
     Program PWSCF v.7.4 starts on  6Jan2025 at 11:57:57 
        Git branch: develop
        Last git commit: e877ff360aceba4b8d76ffc2fb1c70545fc5dd57
        Last git commit date: Sat Jan 4 12:56:15 2025 +0000
        Last git commit subject: Merge branch 'orthoU' into 'develop'

     This program is part of the open-source Quantum ESPRESSO suite
     for quantum simulation of materials; please cite
         "P. Giannozzi et al., J. Phys.:Condens. Matter 21 395502 (2009);
         "P. Giannozzi et al., J. Phys.:Condens. Matter 29 465901 (2017);
         "P. Giannozzi et al., J. Chem. Phys. 152 154105 (2020);
          URL http://www.quantum-espresso.org", 
     in publications or presentations arising from this work. More details at
     http://www.quantum-espresso.org/quote

     Parallel version (MPI), running on   360 processors

     MPI processes distributed on     9 nodes
     177231 MiB available memory on the printing compute node when the environment starts
 
     Reading input from espresso.pwi
Warning: card &CELL ignored
Warning: card    PRESS_CONV_THR   = 0.1 ignored
Warning: card    CELL_DOFREE      = 'ALL' ignored
Warning: card / ignored
Warning: card &FCP ignored
Warning: card / ignored
Warning: card &RISM ignored
Warning: card / ignored

     Current dimensions of program PWSCF are:
     Max number of different atomic species (ntypx) = 10
     Max number of k-points (npk) =  40000
     Max angular momentum in pseudopotentials (lmaxx) =  4

     IMPORTANT: XC functional enforced from input :
     Exchange-correlation= PBE
                           (   1   4   3   4   0   0   0)
     Any further DFT definition will be discarded
     Please, verify this is what you really want

 
     Reading input from environ.in:
     * using ionic solvent mode
     * setting boundary derivatives method to SSCS default
     * setting electrolyte-boundary derivatives method to SSCS default

Environ Warning (1001): card EOF ignored

     
     Found identity + (  0.0000  0.5000  0.0000) symmetry
     This is a supercell, fractional translations are disabled
 
     K-points division:     npool     =       2
     R & G space division:  proc/nbgrp/npool/nimage =     180
     Subspace diagonalization in iterative solution of the eigenvalue problem:
     a serial algorithm will be used

 
     Parallelization info
     --------------------
     sticks:   dense  smooth     PW     G-vecs:    dense   smooth      PW
     Min          59      23      6                35291     8883    1226
     Max          60      24      7                35360     8972    1295
     Sum       10733    4281   1153              6359029  1608267  224795
 
     Using Slab Decomposition
 


     bravais-lattice index     =            6
     lattice parameter (alat)  =      12.9830  a.u.
     unit-cell volume          =   16640.2915 (a.u.)^3
     number of atoms/cell      =           32
     number of atomic types    =            1
     number of electrons       =        96.00
     number of Kohn-Sham states=           72
     kinetic-energy cutoff     =      80.0000  Ry
     charge density cutoff     =     800.0000  Ry
     scf convergence threshold =      1.0E-06
     mixing beta               =       0.2000
     number of iterations used =            8  local-TF  mixing
     energy convergence thresh.=      1.0E-05
     force convergence thresh. =      3.9E-04
     Exchange-correlation= PBE
                           (   1   4   3   4   0   0   0)
     nstep                     =          999


     ================================================================================
 
                                  Environ Setup Summary

     ================================================================================
 
     Please cite

          O. Andreussi, I. Dabo and N. Marzari, J. Chem. Phys. 136, 064102 (2012)
          F. Nattino, M. Truscott, N. Marzari, and O. Andreussi, J. Chem. Phys. 150, 041722 (2019)

     in publications or presentations arising from this work.

     ================================================================================
 
     Parameters
     ==========

     compensation onset threshold      =               0.1000E+00
     static permittivity               =                    89.90
     surface tension in input (dyn/cm) =                    37.30
     surface tension in internal units =               0.4792E-04

     Solvent Boundary
     ================

     solvent mode                      =                    ionic
     derivatives method                =                   lowmem
     electrolyte derivatives method    =                   lowmem
     numerical core for derivatives    =                      fft
     switching function adopted        =                     SCCS
     density limit for vacuum region   =               0.5000E-02
     density limit for bulk solvent    =               0.1000E-03
     soft-sphere radius mode           =                    bondi
     soft-sphere softness              =                     0.50
     alpha                             =                     1.32

     Electrostatic Setup
     ===================

     electrostatic problem to solve    =                    modpb
     numerical solver adopted          =                   newton
     type of auxiliary density adopted =                     none
     numerical core for poisson        =                      fft
     adopting a nested solver scheme
     inner solver                      =                       cg
     inner core                        =                      fft
     type of pbc corrections           =                parabolic
     numerical core for corrections    =                      1da

     ================================================================================
 

     >>>>> Grand-Canonical SCF is activated <<<<<
     Initial Total Charge  =     0.000000 e
     Target Fermi Energy   =    -4.404000 eV
     Thr. of Fermi Energy  =     0.001000 eV
     Wave-shift of Kerker  =     0.400000 bohr^-1
     Wave-shift of Hartree =     1.500000 bohr^-1
     Mixing Rate of Fermi  =     0.050000

     celldm(1)=  12.983009  celldm(2)=   0.000000  celldm(3)=   7.603873
     celldm(4)=   0.000000  celldm(5)=   0.000000  celldm(6)=   0.000000

     crystal axes: (cart. coord. in units of alat)
               a(1) = (   1.000000   0.000000   0.000000 )  
               a(2) = (   0.000000   1.000000   0.000000 )  
               a(3) = (   0.000000   0.000000   7.603873 )  

     reciprocal axes: (cart. coord. in units 2 pi/alat)
               b(1) = (  1.000000  0.000000  0.000000 )  
               b(2) = (  0.000000  1.000000  0.000000 )  
               b(3) = (  0.000000  0.000000  0.131512 )  


     PseudoPot. # 1 for Li read from file:
     /home/mmm1182/Repos/Pseudopotentials/pslibrary/Li.pbe-sl-kjpaw_psl.1.0.0.UPF
     MD5 check sum: f40bb4162937df3f7c561f1969c76545
     Pseudo is Projector augmented-wave, Zval =  3.0
     Generated using 'atomic' code by A. Dal Corso  v.7.3.1
     Shape of augmentation charge: PSQ
     Using radial grid of 1017 points,  4 beta functions with: 
                l(1) =   0
                l(2) =   0
                l(3) =   1
                l(4) =   1
     Q(r) pseudized with 0 coefficients 


     atomic species   valence    mass     pseudopotential
     Li                3.00     6.94000     Li( 1.00)

      8 Sym. Ops. (no inversion) found


                                    s                        frac. trans.

      isym =  1     identity                                     

 cryst.   s( 1) = (     1          0          0      )
                  (     0          1          0      )
                  (     0          0          1      )

 cart.    s( 1) = (  1.0000000  0.0000000  0.0000000 )
                  (  0.0000000  1.0000000  0.0000000 )
                  (  0.0000000  0.0000000  1.0000000 )


      isym =  2     180 deg rotation - cart. axis [0,0,1]        

 cryst.   s( 2) = (    -1          0          0      )
                  (     0         -1          0      )
                  (     0          0          1      )

 cart.    s( 2) = ( -1.0000000  0.0000000  0.0000000 )
                  (  0.0000000 -1.0000000  0.0000000 )
                  (  0.0000000  0.0000000  1.0000000 )


      isym =  3      90 deg rotation - cart. axis [0,0,-1]       

 cryst.   s( 3) = (     0         -1          0      )
                  (     1          0          0      )
                  (     0          0          1      )

 cart.    s( 3) = (  0.0000000  1.0000000  0.0000000 )
                  ( -1.0000000  0.0000000  0.0000000 )
                  (  0.0000000  0.0000000  1.0000000 )


      isym =  4      90 deg rotation - cart. axis [0,0,1]        

 cryst.   s( 4) = (     0          1          0      )
                  (    -1          0          0      )
                  (     0          0          1      )

 cart.    s( 4) = (  0.0000000 -1.0000000  0.0000000 )
                  (  1.0000000  0.0000000  0.0000000 )
                  (  0.0000000  0.0000000  1.0000000 )


      isym =  5     inv. 180 deg rotation - cart. axis [0,1,0]   

 cryst.   s( 5) = (     1          0          0      )
                  (     0         -1          0      )
                  (     0          0          1      )

 cart.    s( 5) = (  1.0000000  0.0000000  0.0000000 )
                  (  0.0000000 -1.0000000  0.0000000 )
                  (  0.0000000  0.0000000  1.0000000 )


      isym =  6     inv. 180 deg rotation - cart. axis [1,0,0]   

 cryst.   s( 6) = (    -1          0          0      )
                  (     0          1          0      )
                  (     0          0          1      )

 cart.    s( 6) = ( -1.0000000  0.0000000  0.0000000 )
                  (  0.0000000  1.0000000  0.0000000 )
                  (  0.0000000  0.0000000  1.0000000 )


      isym =  7     inv. 180 deg rotation - cart. axis [1,1,0]   

 cryst.   s( 7) = (     0         -1          0      )
                  (    -1          0          0      )
                  (     0          0          1      )

 cart.    s( 7) = (  0.0000000 -1.0000000  0.0000000 )
                  ( -1.0000000  0.0000000  0.0000000 )
                  (  0.0000000  0.0000000  1.0000000 )


      isym =  8     inv. 180 deg rotation - cart. axis [1,-1,0]  

 cryst.   s( 8) = (     0          1          0      )
                  (     1          0          0      )
                  (     0          0          1      )

 cart.    s( 8) = (  0.0000000  1.0000000  0.0000000 )
                  (  1.0000000  0.0000000  0.0000000 )
                  (  0.0000000  0.0000000  1.0000000 )


     point group C_4v (4mm) 
     there are  5 classes
     the character table:

       E     2C4   C2    2s_v  2s_d 
A_1    1.00  1.00  1.00  1.00  1.00
A_2    1.00  1.00  1.00 -1.00 -1.00
B_1    1.00 -1.00  1.00  1.00 -1.00
B_2    1.00 -1.00  1.00 -1.00  1.00
E      2.00  0.00 -2.00  0.00  0.00

     the symmetry operations in each class and the name of the first element:

     E        1
          identity                                               
     2C4      3    4
           90 deg rotation - cart. axis [0,0,-1]                 
     C2       2
          180 deg rotation - cart. axis [0,0,1]                  
     2s_v     5    6
          inv. 180 deg rotation - cart. axis [0,1,0]             
     2s_d     7    8
          inv. 180 deg rotation - cart. axis [1,1,0]             

   Cartesian axes

     site n.     atom                  positions (alat units)
         1        Li     tau(   1) = (  -0.0000000  -0.0000000   3.1730457  )
         2        Li     tau(   2) = (   0.2500001   0.2500001   2.8883756  )
         3        Li     tau(   3) = (  -0.0000000  -0.0000000   3.6713052  )
         4        Li     tau(   4) = (   0.2499993   0.2499993   3.4180170  )
         5        Li     tau(   5) = (  -0.0000000  -0.0000000   4.1858720  )
         6        Li     tau(   6) = (   0.2500014   0.2500014   3.9325897  )
         7        Li     tau(   7) = (  -0.0000000  -0.0000000   4.7155140  )
         8        Li     tau(   8) = (   0.2499982   0.2499982   4.4308442  )
         9        Li     tau(   9) = (  -0.0000000   0.5000000   3.1730465  )
        10        Li     tau(  10) = (   0.2500001   0.7499999   2.8883756  )
        11        Li     tau(  11) = (  -0.0000000   0.5000000   3.6713036  )
        12        Li     tau(  12) = (   0.2499993   0.7500007   3.4180170  )
        13        Li     tau(  13) = (  -0.0000000   0.5000000   4.1858763  )
        14        Li     tau(  14) = (   0.2500014   0.7499986   3.9325897  )
        15        Li     tau(  15) = (  -0.0000000   0.5000000   4.7155107  )
        16        Li     tau(  16) = (   0.2499982   0.7500018   4.4308442  )
        17        Li     tau(  17) = (   0.5000000  -0.0000000   3.1730465  )
        18        Li     tau(  18) = (   0.7499999   0.2500001   2.8883756  )
        19        Li     tau(  19) = (   0.5000000  -0.0000000   3.6713036  )
        20        Li     tau(  20) = (   0.7500007   0.2499993   3.4180170  )
        21        Li     tau(  21) = (   0.5000000  -0.0000000   4.1858763  )
        22        Li     tau(  22) = (   0.7499986   0.2500014   3.9325897  )
        23        Li     tau(  23) = (   0.5000000  -0.0000000   4.7155107  )
        24        Li     tau(  24) = (   0.7500018   0.2499982   4.4308442  )
        25        Li     tau(  25) = (   0.5000000   0.5000000   3.1730475  )
        26        Li     tau(  26) = (   0.7499999   0.7499999   2.8883756  )
        27        Li     tau(  27) = (   0.5000000   0.5000000   3.6713018  )
        28        Li     tau(  28) = (   0.7500007   0.7500007   3.4180170  )
        29        Li     tau(  29) = (   0.5000000   0.5000000   4.1858803  )
        30        Li     tau(  30) = (   0.7499986   0.7499986   3.9325897  )
        31        Li     tau(  31) = (   0.5000000   0.5000000   4.7155069  )
        32        Li     tau(  32) = (   0.7500018   0.7500018   4.4308442  )

   Crystallographic axes

     site n.     atom                  positions (cryst. coord.)
         1        Li     tau(   1) = ( -0.0000000 -0.0000000  0.4172934  )
         2        Li     tau(   2) = (  0.2500001  0.2500001  0.3798559  )
         3        Li     tau(   3) = ( -0.0000000 -0.0000000  0.4828204  )
         4        Li     tau(   4) = (  0.2499993  0.2499993  0.4495100  )
         5        Li     tau(   5) = ( -0.0000000 -0.0000000  0.5504921  )
         6        Li     tau(   6) = (  0.2500014  0.2500014  0.5171825  )
         7        Li     tau(   7) = ( -0.0000000 -0.0000000  0.6201463  )
         8        Li     tau(   8) = (  0.2499982  0.2499982  0.5827089  )
         9        Li     tau(   9) = ( -0.0000000  0.5000000  0.4172935  )
        10        Li     tau(  10) = (  0.2500001  0.7499999  0.3798559  )
        11        Li     tau(  11) = ( -0.0000000  0.5000000  0.4828202  )
        12        Li     tau(  12) = (  0.2499993  0.7500007  0.4495100  )
        13        Li     tau(  13) = ( -0.0000000  0.5000000  0.5504927  )
        14        Li     tau(  14) = (  0.2500014  0.7499986  0.5171825  )
        15        Li     tau(  15) = ( -0.0000000  0.5000000  0.6201459  )
        16        Li     tau(  16) = (  0.2499982  0.7500018  0.5827089  )
        17        Li     tau(  17) = (  0.5000000 -0.0000000  0.4172935  )
        18        Li     tau(  18) = (  0.7499999  0.2500001  0.3798559  )
        19        Li     tau(  19) = (  0.5000000 -0.0000000  0.4828202  )
        20        Li     tau(  20) = (  0.7500007  0.2499993  0.4495100  )
        21        Li     tau(  21) = (  0.5000000 -0.0000000  0.5504927  )
        22        Li     tau(  22) = (  0.7499986  0.2500014  0.5171825  )
        23        Li     tau(  23) = (  0.5000000 -0.0000000  0.6201459  )
        24        Li     tau(  24) = (  0.7500018  0.2499982  0.5827089  )
        25        Li     tau(  25) = (  0.5000000  0.5000000  0.4172936  )
        26        Li     tau(  26) = (  0.7499999  0.7499999  0.3798559  )
        27        Li     tau(  27) = (  0.5000000  0.5000000  0.4828200  )
        28        Li     tau(  28) = (  0.7500007  0.7500007  0.4495100  )
        29        Li     tau(  29) = (  0.5000000  0.5000000  0.5504932  )
        30        Li     tau(  30) = (  0.7499986  0.7499986  0.5171825  )
        31        Li     tau(  31) = (  0.5000000  0.5000000  0.6201454  )
        32        Li     tau(  32) = (  0.7500018  0.7500018  0.5827089  )

     number of k points=    21  Marzari-Vanderbilt smearing, width (Ry)=  0.0100
                       cart. coord. in units 2pi/alat
        k(    1) = (   0.0000000   0.0000000   0.0000000), wk =   0.0200000
        k(    2) = (   0.0000000   0.1000000   0.0000000), wk =   0.0800000
        k(    3) = (   0.0000000   0.2000000   0.0000000), wk =   0.0800000
        k(    4) = (   0.0000000   0.3000000   0.0000000), wk =   0.0800000
        k(    5) = (   0.0000000   0.4000000   0.0000000), wk =   0.0800000
        k(    6) = (   0.0000000  -0.5000000   0.0000000), wk =   0.0400000
        k(    7) = (   0.1000000   0.1000000   0.0000000), wk =   0.0800000
        k(    8) = (   0.1000000   0.2000000   0.0000000), wk =   0.1600000
        k(    9) = (   0.1000000   0.3000000   0.0000000), wk =   0.1600000
        k(   10) = (   0.1000000   0.4000000   0.0000000), wk =   0.1600000
        k(   11) = (   0.1000000  -0.5000000   0.0000000), wk =   0.0800000
        k(   12) = (   0.2000000   0.2000000   0.0000000), wk =   0.0800000
        k(   13) = (   0.2000000   0.3000000   0.0000000), wk =   0.1600000
        k(   14) = (   0.2000000   0.4000000   0.0000000), wk =   0.1600000
        k(   15) = (   0.2000000  -0.5000000   0.0000000), wk =   0.0800000
        k(   16) = (   0.3000000   0.3000000   0.0000000), wk =   0.0800000
        k(   17) = (   0.3000000   0.4000000   0.0000000), wk =   0.1600000
        k(   18) = (   0.3000000  -0.5000000   0.0000000), wk =   0.0800000
        k(   19) = (   0.4000000   0.4000000   0.0000000), wk =   0.0800000
        k(   20) = (   0.4000000  -0.5000000   0.0000000), wk =   0.0800000
        k(   21) = (  -0.5000000  -0.5000000   0.0000000), wk =   0.0200000

                       cryst. coord.
        k(    1) = (   0.0000000   0.0000000   0.0000000), wk =   0.0200000
        k(    2) = (   0.0000000   0.1000000   0.0000000), wk =   0.0800000
        k(    3) = (   0.0000000   0.2000000   0.0000000), wk =   0.0800000
        k(    4) = (   0.0000000   0.3000000   0.0000000), wk =   0.0800000
        k(    5) = (   0.0000000   0.4000000   0.0000000), wk =   0.0800000
        k(    6) = (   0.0000000  -0.5000000   0.0000000), wk =   0.0400000
        k(    7) = (   0.1000000   0.1000000   0.0000000), wk =   0.0800000
        k(    8) = (   0.1000000   0.2000000   0.0000000), wk =   0.1600000
        k(    9) = (   0.1000000   0.3000000   0.0000000), wk =   0.1600000
        k(   10) = (   0.1000000   0.4000000   0.0000000), wk =   0.1600000
        k(   11) = (   0.1000000  -0.5000000   0.0000000), wk =   0.0800000
        k(   12) = (   0.2000000   0.2000000   0.0000000), wk =   0.0800000
        k(   13) = (   0.2000000   0.3000000   0.0000000), wk =   0.1600000
        k(   14) = (   0.2000000   0.4000000   0.0000000), wk =   0.1600000
        k(   15) = (   0.2000000  -0.5000000   0.0000000), wk =   0.0800000
        k(   16) = (   0.3000000   0.3000000   0.0000000), wk =   0.0800000
        k(   17) = (   0.3000000   0.4000000   0.0000000), wk =   0.1600000
        k(   18) = (   0.3000000  -0.5000000   0.0000000), wk =   0.0800000
        k(   19) = (   0.4000000   0.4000000   0.0000000), wk =   0.0800000
        k(   20) = (   0.4000000  -0.5000000   0.0000000), wk =   0.0800000
        k(   21) = (  -0.5000000  -0.5000000   0.0000000), wk =   0.0200000

     Dense  grid:  6359029 G-vectors     FFT dimensions: ( 120, 120, 900)

     Smooth grid:  1608267 G-vectors     FFT dimensions: (  75,  75, 576)

     Dynamical RAM for                 wfc:       1.23 MB

     Dynamical RAM for     wfc (w. buffer):      14.73 MB

     Dynamical RAM for           str. fact:       0.54 MB

     Dynamical RAM for           local pot:       0.00 MB

     Dynamical RAM for          nlocal pot:       4.36 MB

     Dynamical RAM for                qrad:       0.65 MB

     Dynamical RAM for          rho,v,vnew:       3.26 MB

     Dynamical RAM for               rhoin:       1.09 MB

     Dynamical RAM for            rho*nmix:       8.62 MB

     Dynamical RAM for           G-vectors:       2.09 MB

     Dynamical RAM for          h,s,v(r/c):       3.80 MB

     Dynamical RAM for          <psi|beta>:       0.28 MB

     Dynamical RAM for                 psi:       4.91 MB

     Dynamical RAM for                hpsi:       4.91 MB

     Dynamical RAM for                spsi:       4.91 MB

     Dynamical RAM for      wfcinit/wfcrot:       2.57 MB

     Dynamical RAM for           addusdens:      20.47 MB

     Dynamical RAM for          addusforce:      37.19 MB

     Estimated static dynamical RAM per process >      30.54 MB

     Estimated max dynamical RAM per process >      97.03 MB

     Estimated total dynamical RAM >      25.33 GB

     Initial potential from superposition of free atoms

     starting charge      95.8525, renormalised to      96.0000

     negative rho (up, down):  2.939E-03 0.000E+00
     Starting wfcs are random
     Checking if some PAW data can be deallocated... 

     total cpu time spent up to now is        8.7 secs

     per-process dynamical memory:   144.2 Mb

     Self-consistent Calculation

     iteration #  1     ecut=    80.00 Ry     beta= 0.20
     Davidson diagonalization with overlap

---- Real-time Memory Report at c_bands before calling an iterative solver
           421 MiB given to the printing process from OS
           140 MiB allocation reported by mallinfo(arena+hblkhd)
        173321 MiB available memory on the node where the printing process lives
------------------
     c_bands:  1 eigenvalues not converged
     c_bands:  2 eigenvalues not converged
     c_bands:  2 eigenvalues not converged
     c_bands:  1 eigenvalues not converged
     ethr =  1.00E-12,  avg # of iterations =119.4

     negative rho (up, down):  2.217E-03 0.000E+00

     add environment contribution to local potential

     total cpu time spent up to now is       96.5 secs

     total energy              =    -481.13524415 Ry
     estimated scf accuracy    <       0.08945138 Ry

     total charge of GC-SCF    =       0.06042713 e
     the Fermi energy          =      -4.30647823 eV
                        (error :       0.09752177 eV)
     electrostatic embedding   =       0.00000000 Ry
     cavitation energy         =       0.01931637 Ry
     electrolyte free energy   =       0.00716218 Ry
     correction to one-el term =       0.00000000 Ry

     iteration #  2     ecut=    80.00 Ry     beta= 0.20
     Davidson diagonalization with overlap

---- Real-time Memory Report at c_bands before calling an iterative solver
           421 MiB given to the printing process from OS
           165 MiB allocation reported by mallinfo(arena+hblkhd)
        172133 MiB available memory on the node where the printing process lives
------------------
     ethr =  1.00E-05,  avg # of iterations = 17.4

     negative rho (up, down):  1.720E-03 0.000E+00

     add environment contribution to local potential

     total cpu time spent up to now is      112.6 secs

     total energy              =    -481.28069846 Ry
     estimated scf accuracy    <       0.03017519 Ry

     total charge of GC-SCF    =       0.10578850 e
     the Fermi energy          =      -3.38403364 eV
                        (error :       1.01996636 eV)
     electrostatic embedding   =      -0.02326509 Ry
     cavitation energy         =       0.01931637 Ry
     electrolyte free energy   =      -0.00495332 Ry
     correction to one-el term =      -1.78126564 Ry

     iteration #  3     ecut=    80.00 Ry     beta= 0.20
     Davidson diagonalization with overlap

---- Real-time Memory Report at c_bands before calling an iterative solver
           421 MiB given to the printing process from OS
           165 MiB allocation reported by mallinfo(arena+hblkhd)
        172119 MiB available memory on the node where the printing process lives
------------------
     ethr =  1.00E-05,  avg # of iterations =  6.7

     negative rho (up, down):  1.258E-03 0.000E+00

     add environment contribution to local potential

     total cpu time spent up to now is      123.0 secs

     total energy              =    -481.22873594 Ry
     estimated scf accuracy    <       0.01533029 Ry

     total charge of GC-SCF    =       0.28197261 e
     the Fermi energy          =      -3.40631489 eV
                        (error :       0.99768511 eV)
     electrostatic embedding   =      -0.02058111 Ry
     cavitation energy         =       0.01931637 Ry
     electrolyte free energy   =      -0.00507549 Ry
     correction to one-el term =      -2.86087747 Ry

     iteration #  4     ecut=    80.00 Ry     beta= 0.20
     Davidson diagonalization with overlap

---- Real-time Memory Report at c_bands before calling an iterative solver
           421 MiB given to the printing process from OS
           165 MiB allocation reported by mallinfo(arena+hblkhd)
        172109 MiB available memory on the node where the printing process lives
------------------
     ethr =  1.00E-05,  avg # of iterations = 12.7

     negative rho (up, down):  1.049E-03 0.000E+00

     add environment contribution to local potential

     total cpu time spent up to now is      138.7 secs

     total energy              =    -481.28732276 Ry
     estimated scf accuracy    <       0.00495752 Ry

     total charge of GC-SCF    =       0.43181041 e
     the Fermi energy          =      -3.12501532 eV
                        (error :       1.27898468 eV)
     electrostatic embedding   =      -0.02202871 Ry
     cavitation energy         =       0.01931637 Ry
     electrolyte free energy   =      -0.00366750 Ry
     correction to one-el term =      -7.94579199 Ry

     iteration #  5     ecut=    80.00 Ry     beta= 0.20
     Davidson diagonalization with overlap

---- Real-time Memory Report at c_bands before calling an iterative solver
           421 MiB given to the printing process from OS
           165 MiB allocation reported by mallinfo(arena+hblkhd)
        172115 MiB available memory on the node where the printing process lives
------------------
     ethr =  5.19E-06,  avg # of iterations =  8.9

     negative rho (up, down):  8.482E-04 0.000E+00

     add environment contribution to local potential

     total cpu time spent up to now is      150.8 secs

     total energy              =    -481.22661396 Ry
     estimated scf accuracy    <       0.00462736 Ry

     total charge of GC-SCF    =       0.90812314 e
     the Fermi energy          =      -3.35725268 eV
                        (error :       1.04674732 eV)
     electrostatic embedding   =      -0.03346599 Ry
     cavitation energy         =       0.01931637 Ry
     electrolyte free energy   =      -0.00493121 Ry
     correction to one-el term =     -11.96646147 Ry

     iteration #  6     ecut=    80.00 Ry     beta= 0.20
     Davidson diagonalization with overlap

---- Real-time Memory Report at c_bands before calling an iterative solver
           421 MiB given to the printing process from OS
           165 MiB allocation reported by mallinfo(arena+hblkhd)
        172116 MiB available memory on the node where the printing process lives
------------------
     ethr =  4.87E-06,  avg # of iterations = 10.0

     negative rho (up, down):  7.431E-04 0.000E+00

     add environment contribution to local potential

     total cpu time spent up to now is      164.7 secs

     total energy              =    -481.30890463 Ry
     estimated scf accuracy    <       0.00547508 Ry

     total charge of GC-SCF    =       1.19481040 e
     the Fermi energy          =      -3.17500644 eV
                        (error :       1.22899356 eV)
     electrostatic embedding   =      -0.13460164 Ry
     cavitation energy         =       0.01931637 Ry
     electrolyte free energy   =      -0.00474251 Ry
     correction to one-el term =     -25.57260464 Ry

     iteration #  7     ecut=    80.00 Ry     beta= 0.20
     Davidson diagonalization with overlap

---- Real-time Memory Report at c_bands before calling an iterative solver
           421 MiB given to the printing process from OS
           165 MiB allocation reported by mallinfo(arena+hblkhd)
        172112 MiB available memory on the node where the printing process lives
------------------
     ethr =  4.87E-06,  avg # of iterations =  7.7

     negative rho (up, down):  6.572E-04 0.000E+00

     add environment contribution to local potential

     total cpu time spent up to now is      175.9 secs

     total energy              =    -481.36805812 Ry
     estimated scf accuracy    <       0.00326560 Ry

     total charge of GC-SCF    =       1.32697487 e
     the Fermi energy          =      -3.27772633 eV
                        (error :       1.12627367 eV)
     electrostatic embedding   =      -0.23559644 Ry
     cavitation energy         =       0.01931637 Ry
     electrolyte free energy   =      -0.00655088 Ry
     correction to one-el term =     -33.93893817 Ry

     iteration #  8     ecut=    80.00 Ry     beta= 0.20
     Davidson diagonalization with overlap

---- Real-time Memory Report at c_bands before calling an iterative solver
           421 MiB given to the printing process from OS
           165 MiB allocation reported by mallinfo(arena+hblkhd)
        172114 MiB available memory on the node where the printing process lives
------------------
     ethr =  3.45E-06,  avg # of iterations =  8.3

     negative rho (up, down):  6.106E-04 0.000E+00

     add environment contribution to local potential

     total cpu time spent up to now is      187.6 secs

     total energy              =    -481.31752057 Ry
     estimated scf accuracy    <       0.00290884 Ry

     total charge of GC-SCF    =       1.64531075 e
     the Fermi energy          =      -3.47143464 eV
                        (error :       0.93256536 eV)
     electrostatic embedding   =      -0.28943455 Ry
     cavitation energy         =       0.01931637 Ry
     electrolyte free energy   =      -0.00826939 Ry
     correction to one-el term =     -37.79668649 Ry

     iteration #  9     ecut=    80.00 Ry     beta= 0.20
     Davidson diagonalization with overlap

---- Real-time Memory Report at c_bands before calling an iterative solver
           421 MiB given to the printing process from OS
           165 MiB allocation reported by mallinfo(arena+hblkhd)
        172115 MiB available memory on the node where the printing process lives
------------------
     ethr =  3.08E-06,  avg # of iterations = 21.2

     negative rho (up, down):  1.060E-03 0.000E+00

     add environment contribution to local potential

     total cpu time spent up to now is      208.5 secs

     total energy              =    -481.33524526 Ry
     estimated scf accuracy    <       0.00226632 Ry

     total charge of GC-SCF    =       2.04548339 e
     the Fermi energy          =      -3.82960857 eV
                        (error :       0.57439143 eV)
     electrostatic embedding   =      -0.45136245 Ry
     cavitation energy         =       0.01931637 Ry
     electrolyte free energy   =      -0.01151499 Ry
     correction to one-el term =     -47.28676762 Ry

     iteration # 10     ecut=    80.00 Ry     beta= 0.20
     Davidson diagonalization with overlap

---- Real-time Memory Report at c_bands before calling an iterative solver
           421 MiB given to the printing process from OS
           165 MiB allocation reported by mallinfo(arena+hblkhd)
        172084 MiB available memory on the node where the printing process lives
------------------
     ethr =  2.41E-06,  avg # of iterations = 10.0

     negative rho (up, down):  1.067E-03 0.000E+00

     add environment contribution to local potential

     total cpu time spent up to now is      222.5 secs

     total energy              =    -481.37873428 Ry
     estimated scf accuracy    <       0.00049656 Ry

     total charge of GC-SCF    =       2.21819854 e
     the Fermi energy          =      -4.06028924 eV
                        (error :       0.34371076 eV)
     electrostatic embedding   =      -0.72057096 Ry
     cavitation energy         =       0.01931637 Ry
     electrolyte free energy   =      -0.01576394 Ry
     correction to one-el term =     -59.43949760 Ry

     iteration # 11     ecut=    80.00 Ry     beta= 0.20
     Davidson diagonalization with overlap

---- Real-time Memory Report at c_bands before calling an iterative solver
           421 MiB given to the printing process from OS
           165 MiB allocation reported by mallinfo(arena+hblkhd)
        172081 MiB available memory on the node where the printing process lives
------------------
     ethr =  5.29E-07,  avg # of iterations = 10.4

     negative rho (up, down):  6.142E-04 0.000E+00

     add environment contribution to local potential

     total cpu time spent up to now is      236.5 secs

     total energy              =    -481.38665533 Ry
     estimated scf accuracy    <       0.00022056 Ry

     total charge of GC-SCF    =       2.29894716 e
     the Fermi energy          =      -4.12080421 eV
                        (error :       0.28319579 eV)
     electrostatic embedding   =      -0.86040552 Ry
     cavitation energy         =       0.01931637 Ry
     electrolyte free energy   =      -0.01798692 Ry
     correction to one-el term =     -64.76889967 Ry

     iteration # 12     ecut=    80.00 Ry     beta= 0.20
     Davidson diagonalization with overlap

---- Real-time Memory Report at c_bands before calling an iterative solver
           421 MiB given to the printing process from OS
           165 MiB allocation reported by mallinfo(arena+hblkhd)
        172081 MiB available memory on the node where the printing process lives
------------------
     ethr =  2.35E-07,  avg # of iterations =  9.8

     negative rho (up, down):  5.318E-04 0.000E+00

     add environment contribution to local potential

     total cpu time spent up to now is      250.6 secs

     total energy              =    -481.39000096 Ry
     estimated scf accuracy    <       0.00003510 Ry

     total charge of GC-SCF    =       2.30860680 e
     the Fermi energy          =      -4.29480810 eV
                        (error :       0.10919190 eV)
     electrostatic embedding   =      -0.92940618 Ry
     cavitation energy         =       0.01931637 Ry
     electrolyte free energy   =      -0.01920495 Ry
     correction to one-el term =     -67.36206767 Ry

     iteration # 13     ecut=    80.00 Ry     beta= 0.20
     Davidson diagonalization with overlap

---- Real-time Memory Report at c_bands before calling an iterative solver
           421 MiB given to the printing process from OS
           165 MiB allocation reported by mallinfo(arena+hblkhd)
        172079 MiB available memory on the node where the printing process lives
------------------
     ethr =  3.75E-08,  avg # of iterations = 11.5

     negative rho (up, down):  4.461E-04 0.000E+00

     add environment contribution to local potential

     total cpu time spent up to now is      265.3 secs

     total energy              =    -481.38990352 Ry
     estimated scf accuracy    <       0.00001689 Ry

     total charge of GC-SCF    =       2.29927705 e
     the Fermi energy          =      -4.34871189 eV
                        (error :       0.05528811 eV)
     electrostatic embedding   =      -0.93485048 Ry
     cavitation energy         =       0.01931637 Ry
     electrolyte free energy   =      -0.01934527 Ry
     correction to one-el term =     -67.54339678 Ry

     iteration # 14     ecut=    80.00 Ry     beta= 0.20
     Davidson diagonalization with overlap

---- Real-time Memory Report at c_bands before calling an iterative solver
           421 MiB given to the printing process from OS
           165 MiB allocation reported by mallinfo(arena+hblkhd)
        172084 MiB available memory on the node where the printing process lives
------------------
     ethr =  1.80E-08,  avg # of iterations =  8.2

     negative rho (up, down):  4.193E-04 0.000E+00

     add environment contribution to local potential

     total cpu time spent up to now is      277.5 secs

     total energy              =    -481.38946633 Ry
     estimated scf accuracy    <       0.00001656 Ry

     total charge of GC-SCF    =       2.30304007 e
     the Fermi energy          =      -4.36972903 eV
                        (error :       0.03427097 eV)
     electrostatic embedding   =      -0.92579606 Ry
     cavitation energy         =       0.01931637 Ry
     electrolyte free energy   =      -0.01921853 Ry
     correction to one-el term =     -67.24371615 Ry

     iteration # 15     ecut=    80.00 Ry     beta= 0.20
     Davidson diagonalization with overlap

---- Real-time Memory Report at c_bands before calling an iterative solver
           421 MiB given to the printing process from OS
           165 MiB allocation reported by mallinfo(arena+hblkhd)
        172088 MiB available memory on the node where the printing process lives
------------------
     ethr =  1.77E-08,  avg # of iterations =  7.0

     negative rho (up, down):  4.101E-04 0.000E+00

     add environment contribution to local potential

     total cpu time spent up to now is      288.4 secs

     total energy              =    -481.38940541 Ry
     estimated scf accuracy    <       0.00000998 Ry

     total charge of GC-SCF    =       2.34753282 e
     the Fermi energy          =      -4.36058227 eV
                        (error :       0.04341773 eV)
     electrostatic embedding   =      -0.92833923 Ry
     cavitation energy         =       0.01931637 Ry
     electrolyte free energy   =      -0.01925957 Ry
     correction to one-el term =     -67.30437337 Ry

     iteration # 16     ecut=    80.00 Ry     beta= 0.20
     Davidson diagonalization with overlap

---- Real-time Memory Report at c_bands before calling an iterative solver
           421 MiB given to the printing process from OS
           165 MiB allocation reported by mallinfo(arena+hblkhd)
        172083 MiB available memory on the node where the printing process lives
------------------
     ethr =  1.07E-08,  avg # of iterations = 17.1

     negative rho (up, down):  4.159E-04 0.000E+00

     add environment contribution to local potential

     total cpu time spent up to now is      305.7 secs

     total energy              =    -481.38956472 Ry
     estimated scf accuracy    <       0.00000168 Ry

     total charge of GC-SCF    =       2.38003773 e
     the Fermi energy          =      -4.37001148 eV
                        (error :       0.03398852 eV)
     electrostatic embedding   =      -0.96636791 Ry
     cavitation energy         =       0.01931637 Ry
     electrolyte free energy   =      -0.01989505 Ry
     correction to one-el term =     -68.56945108 Ry

     iteration # 17     ecut=    80.00 Ry     beta= 0.20
     Davidson diagonalization with overlap

---- Real-time Memory Report at c_bands before calling an iterative solver
           421 MiB given to the printing process from OS
           165 MiB allocation reported by mallinfo(arena+hblkhd)
        172089 MiB available memory on the node where the printing process lives
------------------
     ethr =  1.79E-09,  avg # of iterations = 17.3

     negative rho (up, down):  4.387E-04 0.000E+00

     add environment contribution to local potential

     total cpu time spent up to now is      323.2 secs

     total energy              =    -481.38945675 Ry
     estimated scf accuracy    <       0.00000050 Ry

     total charge of GC-SCF    =       2.38408516 e
     the Fermi energy          =      -4.40277818 eV
                        (error :       0.00122182 eV)
     electrostatic embedding   =      -0.99370999 Ry
     cavitation energy         =       0.01931637 Ry
     electrolyte free energy   =      -0.02038220 Ry
     correction to one-el term =     -69.48364427 Ry

     iteration # 18     ecut=    80.00 Ry     beta= 0.20
     Davidson diagonalization with overlap

---- Real-time Memory Report at c_bands before calling an iterative solver
           421 MiB given to the printing process from OS
           165 MiB allocation reported by mallinfo(arena+hblkhd)
        172079 MiB available memory on the node where the printing process lives
------------------
     ethr =  5.33E-10,  avg # of iterations =  8.8

     negative rho (up, down):  3.908E-04 0.000E+00

     total cpu time spent up to now is      331.8 secs

     End of self-consistent calculation

          k = 0.0000 0.0000 0.0000 (201165 PWs)   bands (ev):

   -52.0180 -52.0176 -52.0166 -52.0166 -52.0162 -52.0162 -52.0153 -52.0149
   -50.9780 -50.9771 -50.9747 -50.9746 -50.9738 -50.9738 -50.9732 -50.9723
   -50.9484 -50.9387 -50.9367 -50.9366 -50.9364 -50.9364 -50.9351 -50.9349
   -50.9324 -50.9324 -50.9318 -50.9316 -50.9309 -50.9302 -50.9282 -50.9242
    -7.8201  -7.4516  -6.8353  -5.9987  -5.4014  -5.4014  -5.4013  -5.4013
    -5.0745  -5.0745  -5.0745  -5.0745  -4.8771  -4.5574  -4.5574  -4.5572
    -4.5572  -3.9280  -3.9280  -3.9149  -3.9149  -3.9145  -3.9145  -3.5328
    -3.4557  -3.4557  -2.6155  -2.6155  -2.4003  -1.6231  -1.6231  -1.4120
    -1.2419  -1.2419  -1.2415  -1.2415  -1.1449  -1.1445  -1.1112  -1.1109

     occupation numbers 
     1.0000   1.0000   1.0000   1.0000   1.0000   1.0000   1.0000   1.0000
     1.0000   1.0000   1.0000   1.0000   1.0000   1.0000   1.0000   1.0000
     1.0000   1.0000   1.0000   1.0000   1.0000   1.0000   1.0000   1.0000
     1.0000   1.0000   1.0000   1.0000   1.0000   1.0000   1.0000   1.0000
     1.0000   1.0000   1.0000   1.0000   1.0000   1.0000   1.0000   1.0000
     1.0000   1.0000   1.0000   1.0000   1.0001   1.0580   1.0580   1.0577
     1.0577   0.0000   0.0000   0.0000   0.0000   0.0000   0.0000   0.0000
     0.0000   0.0000   0.0000   0.0000   0.0000   0.0000   0.0000   0.0000
     0.0000   0.0000   0.0000   0.0000   0.0000   0.0000   0.0000   0.0000

          k = 0.0000 0.1000 0.0000 (201189 PWs)   bands (ev):

   -52.0179 -52.0175 -52.0166 -52.0166 -52.0163 -52.0162 -52.0153 -52.0149
   -50.9779 -50.9770 -50.9748 -50.9746 -50.9738 -50.9737 -50.9732 -50.9723
   -50.9482 -50.9386 -50.9380 -50.9366 -50.9363 -50.9357 -50.9352 -50.9349
   -50.9324 -50.9321 -50.9317 -50.9314 -50.9309 -50.9303 -50.9283 -50.9243
    -7.7962  -7.4277  -6.8113  -5.9752  -5.8641  -5.5191  -5.3785  -5.3785
    -5.0501  -5.0501  -4.9646  -4.8877  -4.8549  -4.5658  -4.5299  -4.5297
    -4.3906  -3.9960  -3.9960  -3.9182  -3.8860  -3.8856  -3.7799  -3.5356
    -3.5356  -3.5125  -2.7284  -2.7283  -2.3799  -1.8177  -1.8175  -1.3897
    -1.3508  -1.2337  -1.2333  -1.0214  -1.0208  -1.0034  -1.0029  -0.9825

     occupation numbers 
     1.0000   1.0000   1.0000   1.0000   1.0000   1.0000   1.0000   1.0000
     1.0000   1.0000   1.0000   1.0000   1.0000   1.0000   1.0000   1.0000
     1.0000   1.0000   1.0000   1.0000   1.0000   1.0000   1.0000   1.0000
     1.0000   1.0000   1.0000   1.0000   1.0000   1.0000   1.0000   1.0000
     1.0000   1.0000   1.0000   1.0000   1.0000   1.0000   1.0000   1.0000
     1.0000   1.0000   1.0000   1.0001   1.0003   1.0684   1.0012   1.0006
     0.3351   0.0000   0.0000   0.0000   0.0000   0.0000   0.0000   0.0000
     0.0000   0.0000   0.0000   0.0000   0.0000   0.0000   0.0000   0.0000
     0.0000   0.0000   0.0000   0.0000   0.0000   0.0000   0.0000   0.0000

          k = 0.0000 0.2000 0.0000 (201103 PWs)   bands (ev):

   -52.0178 -52.0175 -52.0167 -52.0165 -52.0163 -52.0161 -52.0154 -52.0150
   -50.9777 -50.9768 -50.9750 -50.9745 -50.9741 -50.9736 -50.9733 -50.9724
   -50.9477 -50.9396 -50.9385 -50.9365 -50.9362 -50.9357 -50.9353 -50.9350
   -50.9322 -50.9316 -50.9313 -50.9310 -50.9307 -50.9304 -50.9284 -50.9247
    -7.7246  -7.3561  -6.7394  -6.2780  -5.9222  -5.9049  -5.3316  -5.3103
    -5.3103  -4.9773  -4.9773  -4.7889  -4.6329  -4.4478  -4.4476  -4.3027
    -4.1707  -4.1707  -4.1158  -3.7994  -3.7989  -3.7362  -3.7362  -3.7090
    -3.5874  -3.4534  -2.9925  -2.9924  -2.3234  -2.1761  -2.1758  -1.3322
    -1.2173  -1.2096  -1.2092  -1.0295  -0.9188  -0.9186  -0.6973  -0.6971

     occupation numbers 
     1.0000   1.0000   1.0000   1.0000   1.0000   1.0000   1.0000   1.0000
     1.0000   1.0000   1.0000   1.0000   1.0000   1.0000   1.0000   1.0000
     1.0000   1.0000   1.0000   1.0000   1.0000   1.0000   1.0000   1.0000
     1.0000   1.0000   1.0000   1.0000   1.0000   1.0000   1.0000   1.0000
     1.0000   1.0000   1.0000   1.0000   1.0000   1.0000   1.0000   1.0000
     1.0000   1.0000   1.0000   1.0031   1.0703   0.6362   0.6350   0.0682
     0.0014   0.0014   0.0002   0.0000   0.0000   0.0000   0.0000   0.0000
     0.0000   0.0000   0.0000   0.0000   0.0000   0.0000   0.0000   0.0000
     0.0000   0.0000   0.0000   0.0000   0.0000   0.0000   0.0000   0.0000

          k = 0.0000 0.3000 0.0000 (201139 PWs)   bands (ev):

   -52.0177 -52.0173 -52.0169 -52.0165 -52.0163 -52.0159 -52.0156 -52.0152
   -50.9773 -50.9764 -50.9754 -50.9744 -50.9744 -50.9735 -50.9734 -50.9726
   -50.9469 -50.9414 -50.9381 -50.9363 -50.9361 -50.9361 -50.9354 -50.9352
   -50.9321 -50.9314 -50.9312 -50.9306 -50.9305 -50.9295 -50.9287 -50.9252
    -7.6051  -7.2367  -6.6420  -6.6196  -6.2802  -5.7885  -5.6748  -5.1981
    -5.1981  -4.9093  -4.8573  -4.8573  -4.6811  -4.3973  -4.3973  -4.3122
    -4.3120  -4.0198  -3.9894  -3.9894  -3.7028  -3.6556  -3.6552  -3.3708
    -3.3619  -3.3052  -3.3051  -3.2726  -2.5501  -2.5497  -2.2510  -1.3103
    -1.1712  -1.1709  -1.1210  -0.9477  -0.9474  -0.8942  -0.5556  -0.4747

     occupation numbers 
     1.0000   1.0000   1.0000   1.0000   1.0000   1.0000   1.0000   1.0000
     1.0000   1.0000   1.0000   1.0000   1.0000   1.0000   1.0000   1.0000
     1.0000   1.0000   1.0000   1.0000   1.0000   1.0000   1.0000   1.0000
     1.0000   1.0000   1.0000   1.0000   1.0000   1.0000   1.0000   1.0000
     1.0000   1.0000   1.0000   1.0000   1.0000   1.0000   1.0000   1.0000
     1.0000   1.0000   1.0003   1.0003   1.0382   0.3667   0.3666   0.0841
     0.0837   0.0000   0.0000   0.0000   0.0000   0.0000   0.0000   0.0000
     0.0000   0.0000   0.0000   0.0000   0.0000   0.0000   0.0000   0.0000
     0.0000   0.0000   0.0000   0.0000   0.0000   0.0000   0.0000   0.0000

          k = 0.0000 0.4000 0.0000 (201125 PWs)   bands (ev):

   -52.0175 -52.0171 -52.0171 -52.0167 -52.0162 -52.0158 -52.0157 -52.0154
   -50.9768 -50.9759 -50.9758 -50.9749 -50.9742 -50.9737 -50.9732 -50.9728
   -50.9459 -50.9430 -50.9377 -50.9367 -50.9361 -50.9358 -50.9356 -50.9354
   -50.9319 -50.9314 -50.9312 -50.9307 -50.9300 -50.9290 -50.9282 -50.9260
    -7.4375  -7.0694  -6.9563  -6.5911  -6.4524  -5.9784  -5.6272  -5.1813
    -5.0444  -5.0443  -4.6925  -4.6925  -4.6332  -4.6332  -4.5357  -4.2482
    -4.2482  -4.1741  -4.1249  -4.1247  -3.6124  -3.6122  -3.4558  -3.4554
    -3.2530  -3.1791  -2.9885  -2.8975  -2.8971  -2.8477  -2.2278  -1.6613
    -1.1213  -1.1210  -1.0031  -1.0028  -0.9814  -0.9066  -0.7389  -0.6968

     occupation numbers 
     1.0000   1.0000   1.0000   1.0000   1.0000   1.0000   1.0000   1.0000
     1.0000   1.0000   1.0000   1.0000   1.0000   1.0000   1.0000   1.0000
     1.0000   1.0000   1.0000   1.0000   1.0000   1.0000   1.0000   1.0000
     1.0000   1.0000   1.0000   1.0000   1.0000   1.0000   1.0000   1.0000
     1.0000   1.0000   1.0000   1.0000   1.0000   1.0000   1.0000   1.0000
     1.0000   1.0000   1.0314   1.0314   1.0701   1.0701   1.0162   0.0172
     0.0172   0.0016   0.0002   0.0002   0.0000   0.0000   0.0000   0.0000
     0.0000   0.0000   0.0000   0.0000   0.0000   0.0000   0.0000   0.0000
     0.0000   0.0000   0.0000   0.0000   0.0000   0.0000   0.0000   0.0000

          k = 0.0000-0.5000 0.0000 (201080 PWs)   bands (ev):

   -52.0173 -52.0173 -52.0169 -52.0169 -52.0159 -52.0159 -52.0156 -52.0156
   -50.9763 -50.9763 -50.9754 -50.9754 -50.9739 -50.9739 -50.9730 -50.9730
   -50.9446 -50.9445 -50.9373 -50.9372 -50.9359 -50.9358 -50.9356 -50.9356
   -50.9316 -50.9316 -50.9310 -50.9310 -50.9295 -50.9295 -50.9270 -50.9270
    -7.2214  -7.2214  -6.8542  -6.8542  -6.2383  -6.2383  -5.4234  -5.4234
    -4.8535  -4.8535  -4.8534  -4.8534  -4.4870  -4.4870  -4.4870  -4.4870
    -4.3610  -4.3610  -3.8895  -3.8895  -3.8894  -3.8894  -3.2018  -3.2018
    -3.2014  -3.2014  -3.1609  -3.1609  -2.4088  -2.4088  -2.3286  -2.3286
    -1.0636  -1.0636  -1.0633  -1.0633  -0.9595  -0.9595  -0.7335  -0.7334

     occupation numbers 
     1.0000   1.0000   1.0000   1.0000   1.0000   1.0000   1.0000   1.0000
     1.0000   1.0000   1.0000   1.0000   1.0000   1.0000   1.0000   1.0000
     1.0000   1.0000   1.0000   1.0000   1.0000   1.0000   1.0000   1.0000
     1.0000   1.0000   1.0000   1.0000   1.0000   1.0000   1.0000   1.0000
     1.0000   1.0000   1.0000   1.0000   1.0000   1.0000   1.0000   1.0000
     1.0004   1.0004   1.0004   1.0004   0.8399   0.8398   0.8398   0.8398
     0.2134   0.2134   0.0000   0.0000   0.0000   0.0000   0.0000   0.0000
     0.0000   0.0000   0.0000   0.0000   0.0000   0.0000   0.0000   0.0000
     0.0000   0.0000   0.0000   0.0000   0.0000   0.0000   0.0000   0.0000

          k = 0.1000 0.1000 0.0000 (201192 PWs)   bands (ev):

   -52.0179 -52.0175 -52.0166 -52.0166 -52.0162 -52.0162 -52.0154 -52.0150
   -50.9778 -50.9769 -50.9747 -50.9747 -50.9738 -50.9738 -50.9733 -50.9723
   -50.9480 -50.9386 -50.9379 -50.9379 -50.9357 -50.9356 -50.9353 -50.9349
   -50.9321 -50.9321 -50.9315 -50.9313 -50.9310 -50.9303 -50.9283 -50.9244
    -7.7724  -7.4038  -6.7873  -5.9516  -5.8409  -5.8409  -5.4948  -5.4948
    -4.9381  -4.9381  -4.8653  -4.8653  -4.8325  -4.5412  -4.5412  -4.3615
    -4.3615  -4.2288  -3.8913  -3.8913  -3.8657  -3.7913  -3.7498  -3.7498
    -3.4919  -3.3934  -3.0367  -2.5534  -2.3591  -2.1882  -1.5612  -1.3941
    -1.3666  -1.3445  -1.3445  -1.1254  -0.9810  -0.9716  -0.9716  -0.9714

     occupation numbers 
     1.0000   1.0000   1.0000   1.0000   1.0000   1.0000   1.0000   1.0000
     1.0000   1.0000   1.0000   1.0000   1.0000   1.0000   1.0000   1.0000
     1.0000   1.0000   1.0000   1.0000   1.0000   1.0000   1.0000   1.0000
     1.0000   1.0000   1.0000   1.0000   1.0000   1.0000   1.0000   1.0000
     1.0000   1.0000   1.0000   1.0000   1.0000   1.0000   1.0000   1.0000
     1.0000   1.0000   1.0002   1.0002   1.0008   1.0290   1.0290   0.2154
     0.2154   0.0098   0.0000   0.0000   0.0000   0.0000   0.0000   0.0000
     0.0000   0.0000   0.0000   0.0000   0.0000   0.0000   0.0000   0.0000
     0.0000   0.0000   0.0000   0.0000   0.0000   0.0000   0.0000   0.0000

          k = 0.1000 0.2000 0.0000 (201095 PWs)   bands (ev):

   -52.0178 -52.0174 -52.0167 -52.0165 -52.0163 -52.0161 -52.0154 -52.0151
   -50.9776 -50.9767 -50.9749 -50.9746 -50.9740 -50.9737 -50.9734 -50.9725
   -50.9476 -50.9396 -50.9384 -50.9377 -50.9357 -50.9356 -50.9355 -50.9348
   -50.9320 -50.9313 -50.9313 -50.9310 -50.9306 -50.9304 -50.9285 -50.9248
    -7.7008  -7.3322  -6.7152  -6.2546  -5.8981  -5.8812  -5.7716  -5.4224
    -5.3059  -4.8591  -4.7986  -4.7662  -4.6053  -4.5081  -4.4680  -4.2809
    -4.2745  -4.0924  -4.0890  -3.8740  -3.8109  -3.6815  -3.6597  -3.5588
    -3.4321  -3.4262  -3.3714  -2.6644  -2.5172  -2.3011  -1.9015  -1.3367
    -1.3264  -1.3066  -1.2113  -1.0350  -1.0238  -0.9396  -0.8703  -0.8610

     occupation numbers 
     1.0000   1.0000   1.0000   1.0000   1.0000   1.0000   1.0000   1.0000
     1.0000   1.0000   1.0000   1.0000   1.0000   1.0000   1.0000   1.0000
     1.0000   1.0000   1.0000   1.0000   1.0000   1.0000   1.0000   1.0000
     1.0000   1.0000   1.0000   1.0000   1.0000   1.0000   1.0000   1.0000
     1.0000   1.0000   1.0000   1.0000   1.0000   1.0000   1.0000   1.0000
     1.0000   1.0003   1.0023   1.0059   1.0824   0.9296   0.7455   0.0408
     0.0348   0.0001   0.0001   0.0000   0.0000   0.0000   0.0000   0.0000
     0.0000   0.0000   0.0000   0.0000   0.0000   0.0000   0.0000   0.0000
     0.0000   0.0000   0.0000   0.0000   0.0000   0.0000   0.0000   0.0000

          k = 0.1000 0.3000 0.0000 (201150 PWs)   bands (ev):

   -52.0177 -52.0173 -52.0169 -52.0165 -52.0164 -52.0160 -52.0156 -52.0152
   -50.9772 -50.9763 -50.9753 -50.9744 -50.9744 -50.9735 -50.9735 -50.9726
   -50.9468 -50.9413 -50.9381 -50.9375 -50.9361 -50.9360 -50.9354 -50.9348
   -50.9319 -50.9312 -50.9312 -50.9306 -50.9305 -50.9295 -50.9287 -50.9253
    -7.5813  -7.2128  -6.6184  -6.5953  -6.2561  -5.7645  -5.6568  -5.6495
    -5.3025  -4.8828  -4.7931  -4.7281  -4.6900  -4.6578  -4.3955  -4.3483
    -4.1301  -3.9964  -3.9910  -3.7308  -3.6817  -3.6787  -3.5589  -3.5097
    -3.3464  -3.3393  -3.2426  -3.0197  -2.7536  -2.3262  -2.2258  -1.2991
    -1.2798  -1.2517  -1.1198  -0.8888  -0.8855  -0.8376  -0.5916  -0.5899

     occupation numbers 
     1.0000   1.0000   1.0000   1.0000   1.0000   1.0000   1.0000   1.0000
     1.0000   1.0000   1.0000   1.0000   1.0000   1.0000   1.0000   1.0000
     1.0000   1.0000   1.0000   1.0000   1.0000   1.0000   1.0000   1.0000
     1.0000   1.0000   1.0000   1.0000   1.0000   1.0000   1.0000   1.0000
     1.0000   1.0000   1.0000   1.0000   1.0000   1.0000   1.0000   1.0000
     1.0000   1.0001   1.0027   1.0153   1.0328   1.0537   0.3578   0.1713
     0.0003   0.0000   0.0000   0.0000   0.0000   0.0000   0.0000   0.0000
     0.0000   0.0000   0.0000   0.0000   0.0000   0.0000   0.0000   0.0000
     0.0000   0.0000   0.0000   0.0000   0.0000   0.0000   0.0000   0.0000

          k = 0.1000 0.4000 0.0000 (201132 PWs)   bands (ev):

   -52.0175 -52.0171 -52.0170 -52.0167 -52.0162 -52.0158 -52.0158 -52.0154
   -50.9768 -50.9759 -50.9758 -50.9749 -50.9742 -50.9738 -50.9733 -50.9728
   -50.9457 -50.9429 -50.9377 -50.9371 -50.9366 -50.9364 -50.9353 -50.9349
   -50.9317 -50.9313 -50.9310 -50.9307 -50.9300 -50.9291 -50.9282 -50.9261
    -7.4136  -7.0454  -6.9326  -6.5670  -6.4279  -5.9535  -5.6028  -5.4982
    -5.1556  -5.1365  -5.0607  -4.6776  -4.5466  -4.5436  -4.5116  -4.1860
    -4.1761  -4.1472  -4.0427  -3.9293  -3.7707  -3.4975  -3.3683  -3.3002
    -3.2283  -3.1505  -3.0174  -2.9675  -2.8212  -2.7060  -2.1983  -1.6383
    -1.2675  -1.2275  -0.9805  -0.9037  -0.8237  -0.7349  -0.7281  -0.6986

     occupation numbers 
     1.0000   1.0000   1.0000   1.0000   1.0000   1.0000   1.0000   1.0000
     1.0000   1.0000   1.0000   1.0000   1.0000   1.0000   1.0000   1.0000
     1.0000   1.0000   1.0000   1.0000   1.0000   1.0000   1.0000   1.0000
     1.0000   1.0000   1.0000   1.0000   1.0000   1.0000   1.0000   1.0000
     1.0000   1.0000   1.0000   1.0000   1.0000   1.0000   1.0000   1.0000
     1.0000   1.0000   1.0000   1.0404   1.0401   1.0341   0.9425   0.0025
     0.0017   0.0006   0.0000   0.0000   0.0000   0.0000   0.0000   0.0000
     0.0000   0.0000   0.0000   0.0000   0.0000   0.0000   0.0000   0.0000
     0.0000   0.0000   0.0000   0.0000   0.0000   0.0000   0.0000   0.0000

          k = 0.1000-0.5000 0.0000 (201002 PWs)   bands (ev):

   -52.0173 -52.0173 -52.0169 -52.0169 -52.0160 -52.0160 -52.0156 -52.0156
   -50.9763 -50.9763 -50.9754 -50.9754 -50.9740 -50.9740 -50.9731 -50.9731
   -50.9444 -50.9444 -50.9372 -50.9372 -50.9368 -50.9367 -50.9351 -50.9351
   -50.9315 -50.9315 -50.9308 -50.9308 -50.9295 -50.9295 -50.9271 -50.9271
    -7.1976  -7.1976  -6.8302  -6.8302  -6.2136  -6.2136  -5.3985  -5.3985
    -5.2981  -5.2981  -4.9269  -4.9269  -4.3675  -4.3675  -4.3357  -4.3357
    -4.3169  -4.3169  -3.9888  -3.9888  -3.6742  -3.6742  -3.2733  -3.2733
    -3.1334  -3.1334  -3.0318  -3.0318  -2.3785  -2.3785  -2.3097  -2.3097
    -1.2394  -1.2394  -0.9640  -0.9640  -0.7551  -0.7551  -0.7218  -0.7218

     occupation numbers 
     1.0000   1.0000   1.0000   1.0000   1.0000   1.0000   1.0000   1.0000
     1.0000   1.0000   1.0000   1.0000   1.0000   1.0000   1.0000   1.0000
     1.0000   1.0000   1.0000   1.0000   1.0000   1.0000   1.0000   1.0000
     1.0000   1.0000   1.0000   1.0000   1.0000   1.0000   1.0000   1.0000
     1.0000   1.0000   1.0000   1.0000   1.0000   1.0000   1.0000   1.0000
     1.0000   1.0000   1.0000   1.0000   0.2372   0.2372   0.1356   0.1355
     0.0930   0.0930   0.0000   0.0000   0.0000   0.0000   0.0000   0.0000
     0.0000   0.0000   0.0000   0.0000   0.0000   0.0000   0.0000   0.0000
     0.0000   0.0000   0.0000   0.0000   0.0000   0.0000   0.0000   0.0000

          k = 0.2000 0.2000 0.0000 (201180 PWs)   bands (ev):

   -52.0177 -52.0173 -52.0166 -52.0166 -52.0162 -52.0162 -52.0155 -52.0151
   -50.9774 -50.9765 -50.9749 -50.9748 -50.9739 -50.9739 -50.9735 -50.9726
   -50.9471 -50.9394 -50.9393 -50.9382 -50.9361 -50.9356 -50.9355 -50.9347
   -50.9313 -50.9313 -50.9311 -50.9307 -50.9306 -50.9304 -50.9286 -50.9251
    -7.6292  -7.2605  -6.6430  -6.1844  -6.1844  -5.8257  -5.8257  -5.8102
    -5.2288  -5.2288  -4.8467  -4.6988  -4.5228  -4.5228  -4.4452  -4.2166
    -4.2166  -4.0093  -4.0093  -3.7604  -3.6788  -3.5994  -3.5994  -3.4732
    -3.4732  -3.3699  -3.2068  -2.9547  -2.3672  -2.2383  -2.0431  -1.3757
    -1.2921  -1.2370  -1.1946  -1.1946  -1.0097  -1.0097  -1.0063  -0.9976

     occupation numbers 
     1.0000   1.0000   1.0000   1.0000   1.0000   1.0000   1.0000   1.0000
     1.0000   1.0000   1.0000   1.0000   1.0000   1.0000   1.0000   1.0000
     1.0000   1.0000   1.0000   1.0000   1.0000   1.0000   1.0000   1.0000
     1.0000   1.0000   1.0000   1.0000   1.0000   1.0000   1.0000   1.0000
     1.0000   1.0000   1.0000   1.0000   1.0000   1.0000   1.0000   1.0000
     1.0000   1.0000   1.0005   1.0280   0.9803   0.9803   0.6215   0.0067
     0.0067   0.0000   0.0000   0.0000   0.0000   0.0000   0.0000   0.0000
     0.0000   0.0000   0.0000   0.0000   0.0000   0.0000   0.0000   0.0000
     0.0000   0.0000   0.0000   0.0000   0.0000   0.0000   0.0000   0.0000

          k = 0.2000 0.3000 0.0000 (201109 PWs)   bands (ev):

   -52.0176 -52.0172 -52.0168 -52.0165 -52.0164 -52.0161 -52.0157 -52.0153
   -50.9770 -50.9761 -50.9752 -50.9746 -50.9743 -50.9737 -50.9737 -50.9728
   -50.9463 -50.9410 -50.9390 -50.9379 -50.9367 -50.9359 -50.9354 -50.9346
   -50.9312 -50.9311 -50.9306 -50.9306 -50.9304 -50.9296 -50.9288 -50.9256
    -7.5097  -7.1409  -6.5476  -6.5227  -6.1838  -6.0678  -5.7056  -5.6927
    -5.5738  -5.1650  -5.1009  -4.8034  -4.7747  -4.5886  -4.3861  -4.1134
    -4.1112  -3.9047  -3.8798  -3.6319  -3.6203  -3.4631  -3.3319  -3.3169
    -3.2746  -3.2728  -3.1790  -3.1526  -2.4022  -2.3970  -2.1533  -1.3151
    -1.2524  -1.1890  -1.1716  -1.1210  -0.9971  -0.9314  -0.8667  -0.8622

     occupation numbers 
     1.0000   1.0000   1.0000   1.0000   1.0000   1.0000   1.0000   1.0000
     1.0000   1.0000   1.0000   1.0000   1.0000   1.0000   1.0000   1.0000
     1.0000   1.0000   1.0000   1.0000   1.0000   1.0000   1.0000   1.0000
     1.0000   1.0000   1.0000   1.0000   1.0000   1.0000   1.0000   1.0000
     1.0000   1.0000   1.0000   1.0000   1.0000   1.0000   1.0000   1.0000
     1.0000   1.0000   1.0000   1.0020   1.0047   1.0824   0.3143   0.0002
     0.0001   0.0000   0.0000   0.0000   0.0000   0.0000   0.0000   0.0000
     0.0000   0.0000   0.0000   0.0000   0.0000   0.0000   0.0000   0.0000
     0.0000   0.0000   0.0000   0.0000   0.0000   0.0000   0.0000   0.0000

          k = 0.2000 0.4000 0.0000 (201067 PWs)   bands (ev):

   -52.0174 -52.0170 -52.0170 -52.0166 -52.0163 -52.0159 -52.0159 -52.0155
   -50.9766 -50.9757 -50.9756 -50.9747 -50.9744 -50.9739 -50.9735 -50.9730
   -50.9453 -50.9426 -50.9385 -50.9375 -50.9373 -50.9365 -50.9351 -50.9347
   -50.9312 -50.9311 -50.9306 -50.9304 -50.9300 -50.9292 -50.9284 -50.9264
    -7.3421  -6.9735  -6.8614  -6.4948  -6.3547  -5.9058  -5.8788  -5.5386
    -5.5298  -5.4514  -5.0790  -5.0703  -4.9233  -4.4397  -4.4255  -4.1970
    -4.0666  -3.9782  -3.7264  -3.7072  -3.6299  -3.3084  -3.2737  -3.1553
    -3.1378  -3.0665  -2.9058  -2.7431  -2.7406  -2.6303  -2.1109  -1.5775
    -1.1752  -1.1723  -1.1503  -1.0043  -0.9855  -0.9056  -0.7442  -0.7332

     occupation numbers 
     1.0000   1.0000   1.0000   1.0000   1.0000   1.0000   1.0000   1.0000
     1.0000   1.0000   1.0000   1.0000   1.0000   1.0000   1.0000   1.0000
     1.0000   1.0000   1.0000   1.0000   1.0000   1.0000   1.0000   1.0000
     1.0000   1.0000   1.0000   1.0000   1.0000   1.0000   1.0000   1.0000
     1.0000   1.0000   1.0000   1.0000   1.0000   1.0000   1.0000   1.0000
     1.0000   1.0000   1.0000   1.0000   1.0000   0.5910   0.5129   0.0036
     0.0000   0.0000   0.0000   0.0000   0.0000   0.0000   0.0000   0.0000
     0.0000   0.0000   0.0000   0.0000   0.0000   0.0000   0.0000   0.0000
     0.0000   0.0000   0.0000   0.0000   0.0000   0.0000   0.0000   0.0000

          k = 0.2000-0.5000 0.0000 (201048 PWs)   bands (ev):

   -52.0172 -52.0172 -52.0168 -52.0168 -52.0161 -52.0161 -52.0157 -52.0157
   -50.9761 -50.9761 -50.9752 -50.9752 -50.9742 -50.9741 -50.9732 -50.9732
   -50.9440 -50.9440 -50.9380 -50.9379 -50.9370 -50.9370 -50.9349 -50.9349
   -50.9311 -50.9311 -50.9305 -50.9305 -50.9296 -50.9295 -50.9273 -50.9273
    -7.1261  -7.1261  -6.7581  -6.7581  -6.1398  -6.1398  -5.6995  -5.6995
    -5.3261  -5.3261  -5.3239  -5.3239  -4.6974  -4.6974  -4.2601  -4.2601
    -3.9610  -3.9610  -3.8226  -3.8226  -3.5061  -3.5061  -3.0514  -3.0514
    -3.0324  -3.0324  -2.8978  -2.8978  -2.2881  -2.2881  -2.2584  -2.2584
    -1.1440  -1.1440  -1.0574  -1.0574  -0.9947  -0.9946  -0.6976  -0.6976

     occupation numbers 
     1.0000   1.0000   1.0000   1.0000   1.0000   1.0000   1.0000   1.0000
     1.0000   1.0000   1.0000   1.0000   1.0000   1.0000   1.0000   1.0000
     1.0000   1.0000   1.0000   1.0000   1.0000   1.0000   1.0000   1.0000
     1.0000   1.0000   1.0000   1.0000   1.0000   1.0000   1.0000   1.0000
     1.0000   1.0000   1.0000   1.0000   1.0000   1.0000   1.0000   1.0000
     1.0000   1.0000   1.0000   1.0000   1.0287   1.0287   0.0239   0.0239
     0.0000   0.0000   0.0000   0.0000   0.0000   0.0000   0.0000   0.0000
     0.0000   0.0000   0.0000   0.0000   0.0000   0.0000   0.0000   0.0000
     0.0000   0.0000   0.0000   0.0000   0.0000   0.0000   0.0000   0.0000

          k = 0.3000 0.3000 0.0000 (201060 PWs)   bands (ev):

   -52.0174 -52.0170 -52.0166 -52.0166 -52.0162 -52.0162 -52.0158 -52.0154
   -50.9767 -50.9758 -50.9750 -50.9749 -50.9741 -50.9741 -50.9739 -50.9730
   -50.9456 -50.9405 -50.9405 -50.9376 -50.9375 -50.9357 -50.9357 -50.9347
   -50.9309 -50.9306 -50.9306 -50.9303 -50.9297 -50.9296 -50.9290 -50.9261
    -7.3903  -7.0212  -6.4298  -6.4298  -6.4018  -6.0635  -6.0635  -5.5737
    -5.5026  -5.4480  -5.4480  -5.1186  -4.6719  -4.6719  -4.4753  -4.4656
    -3.7617  -3.7617  -3.6638  -3.5249  -3.5249  -3.3679  -3.1682  -3.1605
    -3.1605  -3.0027  -3.0027  -2.8962  -2.6881  -2.0573  -2.0478  -1.6941
    -1.1398  -1.1398  -1.1218  -1.0671  -1.0504  -0.9534  -0.8333  -0.8333

     occupation numbers 
     1.0000   1.0000   1.0000   1.0000   1.0000   1.0000   1.0000   1.0000
     1.0000   1.0000   1.0000   1.0000   1.0000   1.0000   1.0000   1.0000
     1.0000   1.0000   1.0000   1.0000   1.0000   1.0000   1.0000   1.0000
     1.0000   1.0000   1.0000   1.0000   1.0000   1.0000   1.0000   1.0000
     1.0000   1.0000   1.0000   1.0000   1.0000   1.0000   1.0000   1.0000
     1.0000   1.0000   1.0000   1.0000   1.0441   1.0441   0.7826   0.7324
     0.0000   0.0000   0.0000   0.0000   0.0000   0.0000   0.0000   0.0000
     0.0000   0.0000   0.0000   0.0000   0.0000   0.0000   0.0000   0.0000
     0.0000   0.0000   0.0000   0.0000   0.0000   0.0000   0.0000   0.0000

          k = 0.3000 0.4000 0.0000 (200978 PWs)   bands (ev):

   -52.0172 -52.0168 -52.0168 -52.0164 -52.0164 -52.0160 -52.0160 -52.0156
   -50.9763 -50.9754 -50.9754 -50.9747 -50.9745 -50.9741 -50.9738 -50.9732
   -50.9446 -50.9420 -50.9399 -50.9384 -50.9372 -50.9362 -50.9354 -50.9349
   -50.9308 -50.9306 -50.9301 -50.9301 -50.9298 -50.9293 -50.9286 -50.9268
    -7.2228  -6.8535  -6.7429  -6.3746  -6.2655  -6.2330  -5.8959  -5.8004
    -5.7546  -5.4219  -5.4089  -5.2729  -4.9520  -4.7797  -4.4895  -4.3218
    -3.9809  -3.9338  -3.5638  -3.4100  -3.2664  -3.0387  -3.0221  -3.0162
    -2.9384  -2.8043  -2.7936  -2.7898  -2.6198  -2.2157  -1.9702  -1.5775
    -1.5300  -1.2030  -1.0836  -1.0213  -0.9483  -0.9092  -0.8959  -0.8259

     occupation numbers 
     1.0000   1.0000   1.0000   1.0000   1.0000   1.0000   1.0000   1.0000
     1.0000   1.0000   1.0000   1.0000   1.0000   1.0000   1.0000   1.0000
     1.0000   1.0000   1.0000   1.0000   1.0000   1.0000   1.0000   1.0000
     1.0000   1.0000   1.0000   1.0000   1.0000   1.0000   1.0000   1.0000
     1.0000   1.0000   1.0000   1.0000   1.0000   1.0000   1.0000   1.0000
     1.0000   1.0000   1.0000   1.0000   1.0000   1.0041   0.8512   0.1029
     0.0000   0.0000   0.0000   0.0000   0.0000   0.0000   0.0000   0.0000
     0.0000   0.0000   0.0000   0.0000   0.0000   0.0000   0.0000   0.0000
     0.0000   0.0000   0.0000   0.0000   0.0000   0.0000   0.0000   0.0000

          k = 0.3000-0.5000 0.0000 (201006 PWs)   bands (ev):

   -52.0170 -52.0170 -52.0166 -52.0166 -52.0162 -52.0162 -52.0158 -52.0158
   -50.9758 -50.9758 -50.9749 -50.9749 -50.9744 -50.9744 -50.9735 -50.9735
   -50.9434 -50.9434 -50.9392 -50.9392 -50.9367 -50.9367 -50.9351 -50.9351
   -50.9307 -50.9307 -50.9300 -50.9300 -50.9297 -50.9296 -50.9276 -50.9276
    -7.0071  -7.0071  -6.6380  -6.6380  -6.0553  -6.0553  -6.0169  -6.0169
    -5.6816  -5.6816  -5.2003  -5.2003  -5.0496  -5.0496  -4.2580  -4.2580
    -4.1358  -4.1358  -3.3144  -3.3144  -3.3050  -3.3050  -2.9178  -2.9178
    -2.8706  -2.8706  -2.5274  -2.5274  -2.1977  -2.1977  -2.1396  -2.1395
    -1.3445  -1.3445  -1.1057  -1.1057  -0.8874  -0.8874  -0.8298  -0.8298

     occupation numbers 
     1.0000   1.0000   1.0000   1.0000   1.0000   1.0000   1.0000   1.0000
     1.0000   1.0000   1.0000   1.0000   1.0000   1.0000   1.0000   1.0000
     1.0000   1.0000   1.0000   1.0000   1.0000   1.0000   1.0000   1.0000
     1.0000   1.0000   1.0000   1.0000   1.0000   1.0000   1.0000   1.0000
     1.0000   1.0000   1.0000   1.0000   1.0000   1.0000   1.0000   1.0000
     1.0000   1.0000   1.0000   1.0000   1.0000   1.0000   0.0226   0.0226
     0.0004   0.0004   0.0000   0.0000   0.0000   0.0000   0.0000   0.0000
     0.0000   0.0000   0.0000   0.0000   0.0000   0.0000   0.0000   0.0000
     0.0000   0.0000   0.0000   0.0000   0.0000   0.0000   0.0000   0.0000

          k = 0.4000 0.4000 0.0000 (200868 PWs)   bands (ev):

   -52.0170 -52.0166 -52.0166 -52.0166 -52.0162 -52.0162 -52.0162 -52.0158
   -50.9759 -50.9751 -50.9751 -50.9750 -50.9744 -50.9742 -50.9742 -50.9735
   -50.9437 -50.9413 -50.9413 -50.9394 -50.9368 -50.9359 -50.9359 -50.9351
   -50.9305 -50.9302 -50.9302 -50.9298 -50.9295 -50.9290 -50.9289 -50.9274
    -7.0556  -6.6857  -6.5771  -6.5771  -6.2066  -6.2066  -6.1052  -6.0630
    -5.7294  -5.5816  -5.5816  -5.2412  -5.0925  -4.7758  -4.7758  -4.2854
    -4.1616  -3.7514  -3.7514  -3.2648  -2.9336  -2.8899  -2.8166  -2.8166
    -2.6426  -2.6426  -2.4708  -2.4708  -2.4626  -2.1336  -1.8066  -1.7039
    -1.6246  -1.3060  -1.2347  -1.1281  -1.1281  -1.0801  -1.0801  -0.8798

     occupation numbers 
     1.0000   1.0000   1.0000   1.0000   1.0000   1.0000   1.0000   1.0000
     1.0000   1.0000   1.0000   1.0000   1.0000   1.0000   1.0000   1.0000
     1.0000   1.0000   1.0000   1.0000   1.0000   1.0000   1.0000   1.0000
     1.0000   1.0000   1.0000   1.0000   1.0000   1.0000   1.0000   1.0000
     1.0000   1.0000   1.0000   1.0000   1.0000   1.0000   1.0000   1.0000
     1.0000   1.0000   1.0000   1.0000   1.0000   1.0045   1.0045   0.0456
     0.0010   0.0000   0.0000   0.0000   0.0000   0.0000   0.0000   0.0000
     0.0000   0.0000   0.0000   0.0000   0.0000   0.0000   0.0000   0.0000
     0.0000   0.0000   0.0000   0.0000   0.0000   0.0000   0.0000   0.0000

          k = 0.4000-0.5000 0.0000 (200830 PWs)   bands (ev):

   -52.0168 -52.0168 -52.0164 -52.0164 -52.0164 -52.0164 -52.0160 -52.0160
   -50.9755 -50.9755 -50.9748 -50.9747 -50.9746 -50.9746 -50.9738 -50.9738
   -50.9426 -50.9425 -50.9404 -50.9404 -50.9364 -50.9364 -50.9355 -50.9355
   -50.9303 -50.9303 -50.9298 -50.9298 -50.9293 -50.9293 -50.9281 -50.9281
    -6.8404  -6.8404  -6.4700  -6.4700  -6.3644  -6.3644  -5.9913  -5.9913
    -5.8455  -5.8455  -5.3604  -5.3604  -5.0290  -5.0290  -4.5525  -4.5525
    -3.9662  -3.9662  -3.5244  -3.5244  -2.7887  -2.7887  -2.7401  -2.7401
    -2.4013  -2.4013  -2.3626  -2.3626  -2.1943  -2.1943  -1.9443  -1.9443
    -1.3570  -1.3570  -1.3410  -1.3410  -1.2697  -1.2697  -0.8082  -0.8082

     occupation numbers 
     1.0000   1.0000   1.0000   1.0000   1.0000   1.0000   1.0000   1.0000
     1.0000   1.0000   1.0000   1.0000   1.0000   1.0000   1.0000   1.0000
     1.0000   1.0000   1.0000   1.0000   1.0000   1.0000   1.0000   1.0000
     1.0000   1.0000   1.0000   1.0000   1.0000   1.0000   1.0000   1.0000
     1.0000   1.0000   1.0000   1.0000   1.0000   1.0000   1.0000   1.0000
     1.0000   1.0000   1.0000   1.0000   1.0000   1.0000   1.0505   1.0505
     0.0000   0.0000   0.0000   0.0000   0.0000   0.0000   0.0000   0.0000
     0.0000   0.0000   0.0000   0.0000   0.0000   0.0000   0.0000   0.0000
     0.0000   0.0000   0.0000   0.0000   0.0000   0.0000   0.0000   0.0000

          k =-0.5000-0.5000 0.0000 (200724 PWs)   bands (ev):

   -52.0166 -52.0166 -52.0166 -52.0166 -52.0162 -52.0162 -52.0162 -52.0162
   -50.9752 -50.9751 -50.9751 -50.9751 -50.9742 -50.9742 -50.9742 -50.9742
   -50.9416 -50.9416 -50.9416 -50.9415 -50.9360 -50.9360 -50.9360 -50.9359
   -50.9300 -50.9300 -50.9300 -50.9300 -50.9287 -50.9287 -50.9286 -50.9286
    -6.6262  -6.6262  -6.6262  -6.6262  -6.2543  -6.2543  -6.2543  -6.2543
    -5.6263  -5.6263  -5.6263  -5.6263  -4.8118  -4.8118  -4.8118  -4.8118
    -3.7576  -3.7576  -3.7576  -3.7576  -2.5410  -2.5410  -2.5410  -2.5410
    -2.3779  -2.3779  -2.3779  -2.3779  -1.9076  -1.9076  -1.9076  -1.9076
    -1.5458  -1.5458  -1.5458  -1.5458  -1.0710  -1.0710  -1.0710  -1.0710

     occupation numbers 
     1.0000   1.0000   1.0000   1.0000   1.0000   1.0000   1.0000   1.0000
     1.0000   1.0000   1.0000   1.0000   1.0000   1.0000   1.0000   1.0000
     1.0000   1.0000   1.0000   1.0000   1.0000   1.0000   1.0000   1.0000
     1.0000   1.0000   1.0000   1.0000   1.0000   1.0000   1.0000   1.0000
     1.0000   1.0000   1.0000   1.0000   1.0000   1.0000   1.0000   1.0000
     1.0000   1.0000   1.0000   1.0000   1.0015   1.0015   1.0015   1.0015
     0.0000   0.0000   0.0000   0.0000   0.0000   0.0000   0.0000   0.0000
     0.0000   0.0000   0.0000   0.0000   0.0000   0.0000   0.0000   0.0000
     0.0000   0.0000   0.0000   0.0000   0.0000   0.0000   0.0000   0.0000

     the Fermi energy is    -4.4042 ev

!    total energy              =    -481.38943064 Ry
     total all-electron energy =      -481.389691 Ry
     estimated scf accuracy    <       0.00000026 Ry

!    total charge of GC-SCF    =       2.38394460 e
     smearing contrib. (-TS)   =      -0.00046215 Ry
     internal energy E=F+TS    =    -481.38896849 Ry

     The total energy is F=E-TS. E is the sum of the following terms:
     one-electron contribution =   -6206.35910439 Ry
     hartree contribution      =    3044.86662870 Ry
     xc contribution           =    -113.75423639 Ry
     ewald contribution        =    2862.42284633 Ry
     one-center paw contrib.   =       2.82733236 Ry
      -> PAW hartree energy AE =       7.48847104 Ry
      -> PAW hartree energy PS =      -7.26572819 Ry
      -> PAW xc energy AE      =      -3.49634143 Ry
      -> PAW xc energy PS      =       3.36185059 Ry
      -> total E_H with PAW    =    3045.08937155 Ry
      -> total E_XC with PAW   =    -113.88872724 Ry
     pot.stat. contrib. (-muN) =      -0.77165433 Ry
     electrostatic embedding   =      -0.99763270 Ry
     cavitation energy         =       0.01931637 Ry
     electrolyte free energy   =      -0.02044695 Ry
     correction to one-el term =     -69.62201748 Ry

     WARNING: you are using the parabolic pbc correction;
              the potential shift above must be added to 
              band and Fermi energies.

     convergence has been achieved in  18 iterations
     The dielectric solvent contribution to forces
     atom    1 type  1   force =     0.00000000    0.00000000   -0.08099584
     atom    2 type  1   force =     0.00000003    0.00000003   -0.06389011
     atom    3 type  1   force =    -0.00000000   -0.00000000   -0.01650998
     atom    4 type  1   force =     0.00000001    0.00000001   -0.04884785
     atom    5 type  1   force =     0.00000000    0.00000000    0.04882134
     atom    6 type  1   force =     0.00000001    0.00000001    0.01648419
     atom    7 type  1   force =     0.00000000    0.00000000    0.06386974
     atom    8 type  1   force =     0.00000012    0.00000012    0.08096968
     atom    9 type  1   force =     0.00000000   -0.00000000   -0.08099577
     atom   10 type  1   force =     0.00000003   -0.00000003   -0.06389011
     atom   11 type  1   force =    -0.00000000    0.00000000   -0.01651018
     atom   12 type  1   force =     0.00000001   -0.00000001   -0.04884785
     atom   13 type  1   force =     0.00000000   -0.00000000    0.04882192
     atom   14 type  1   force =     0.00000001   -0.00000001    0.01648419
     atom   15 type  1   force =     0.00000000   -0.00000000    0.06387125
     atom   16 type  1   force =     0.00000012   -0.00000012    0.08096968
     atom   17 type  1   force =    -0.00000000    0.00000000   -0.08099577
     atom   18 type  1   force =    -0.00000003    0.00000003   -0.06389011
     atom   19 type  1   force =     0.00000000   -0.00000000   -0.01651018
     atom   20 type  1   force =    -0.00000001    0.00000001   -0.04884785
     atom   21 type  1   force =    -0.00000000    0.00000000    0.04882192
     atom   22 type  1   force =    -0.00000001    0.00000001    0.01648419
     atom   23 type  1   force =    -0.00000000    0.00000000    0.06387125
     atom   24 type  1   force =    -0.00000012    0.00000012    0.08096968
     atom   25 type  1   force =    -0.00000000   -0.00000000   -0.08099565
     atom   26 type  1   force =    -0.00000003   -0.00000003   -0.06389011
     atom   27 type  1   force =     0.00000000    0.00000000   -0.01651041
     atom   28 type  1   force =    -0.00000001   -0.00000001   -0.04884785
     atom   29 type  1   force =    -0.00000000   -0.00000000    0.04882246
     atom   30 type  1   force =    -0.00000001   -0.00000001    0.01648419
     atom   31 type  1   force =    -0.00000000   -0.00000000    0.06387287
     atom   32 type  1   force =    -0.00000012   -0.00000012    0.08096968
 

     Forces acting on atoms (cartesian axes, Ry/au):

     atom    1 type  1   force =     0.00000000    0.00000000    0.00147157
     atom    2 type  1   force =    -0.00000005   -0.00000005   -0.00182146
     atom    3 type  1   force =     0.00000000    0.00000000    0.00052668
     atom    4 type  1   force =    -0.00000011   -0.00000011   -0.00052547
     atom    5 type  1   force =     0.00000000    0.00000000    0.00065240
     atom    6 type  1   force =    -0.00000025   -0.00000025   -0.00025328
     atom    7 type  1   force =     0.00000000    0.00000000    0.00149357
     atom    8 type  1   force =    -0.00000388   -0.00000388   -0.00154873
     atom    9 type  1   force =     0.00000000    0.00000000    0.00147435
     atom   10 type  1   force =    -0.00000005    0.00000005   -0.00182146
     atom   11 type  1   force =     0.00000000    0.00000000    0.00052989
     atom   12 type  1   force =    -0.00000011    0.00000011   -0.00052547
     atom   13 type  1   force =     0.00000000    0.00000000    0.00065397
     atom   14 type  1   force =    -0.00000025    0.00000025   -0.00025328
     atom   15 type  1   force =     0.00000000    0.00000000    0.00149562
     atom   16 type  1   force =    -0.00000388    0.00000388   -0.00154873
     atom   17 type  1   force =     0.00000000    0.00000000    0.00147435
     atom   18 type  1   force =     0.00000005   -0.00000005   -0.00182146
     atom   19 type  1   force =     0.00000000    0.00000000    0.00052989
     atom   20 type  1   force =     0.00000011   -0.00000011   -0.00052547
     atom   21 type  1   force =     0.00000000    0.00000000    0.00065397
     atom   22 type  1   force =     0.00000025   -0.00000025   -0.00025328
     atom   23 type  1   force =     0.00000000    0.00000000    0.00149562
     atom   24 type  1   force =     0.00000388   -0.00000388   -0.00154873
     atom   25 type  1   force =     0.00000000    0.00000000    0.00147148
     atom   26 type  1   force =     0.00000005    0.00000005   -0.00182146
     atom   27 type  1   force =     0.00000000    0.00000000    0.00052898
     atom   28 type  1   force =     0.00000011    0.00000011   -0.00052547
     atom   29 type  1   force =     0.00000000    0.00000000    0.00065031
     atom   30 type  1   force =     0.00000025    0.00000025   -0.00025328
     atom   31 type  1   force =     0.00000000    0.00000000    0.00149314
     atom   32 type  1   force =     0.00000388    0.00000388   -0.00154873
     The non-local contrib.  to forces
     atom    1 type  1   force =     0.00000000    0.00000000   -0.00274861
     atom    2 type  1   force =     0.00000019    0.00000019   -0.08652082
     atom    3 type  1   force =     0.00000000    0.00000000    0.00713733
     atom    4 type  1   force =    -0.00000006   -0.00000006   -0.00436919
     atom    5 type  1   force =     0.00000000    0.00000000    0.00468792
     atom    6 type  1   force =     0.00000002    0.00000002   -0.00665653
     atom    7 type  1   force =     0.00000000    0.00000000    0.08636104
     atom    8 type  1   force =     0.00000016    0.00000016    0.00284488
     atom    9 type  1   force =     0.00000000    0.00000000   -0.00274859
     atom   10 type  1   force =     0.00000019   -0.00000019   -0.08652082
     atom   11 type  1   force =     0.00000000    0.00000000    0.00713735
     atom   12 type  1   force =    -0.00000006    0.00000006   -0.00436919
     atom   13 type  1   force =     0.00000000    0.00000000    0.00468828
     atom   14 type  1   force =     0.00000002   -0.00000002   -0.00665653
     atom   15 type  1   force =     0.00000000    0.00000000    0.08636227
     atom   16 type  1   force =     0.00000016   -0.00000016    0.00284488
     atom   17 type  1   force =     0.00000000    0.00000000   -0.00274859
     atom   18 type  1   force =    -0.00000019    0.00000019   -0.08652082
     atom   19 type  1   force =     0.00000000    0.00000000    0.00713735
     atom   20 type  1   force =     0.00000006   -0.00000006   -0.00436919
     atom   21 type  1   force =     0.00000000    0.00000000    0.00468828
     atom   22 type  1   force =    -0.00000002    0.00000002   -0.00665653
     atom   23 type  1   force =     0.00000000    0.00000000    0.08636227
     atom   24 type  1   force =    -0.00000016    0.00000016    0.00284488
     atom   25 type  1   force =     0.00000000    0.00000000   -0.00274831
     atom   26 type  1   force =    -0.00000019   -0.00000019   -0.08652082
     atom   27 type  1   force =     0.00000000    0.00000000    0.00713728
     atom   28 type  1   force =     0.00000006    0.00000006   -0.00436919
[...]
     atom   19 type  1   force =     0.00000000    0.00000000    0.00630132
     atom   20 type  1   force =    -0.00000004    0.00000004   -0.00488826
     atom   21 type  1   force =     0.00000000    0.00000000    0.00488063
     atom   22 type  1   force =     0.00000010   -0.00000010   -0.00631628
     atom   23 type  1   force =     0.00000000    0.00000000    0.08498062
     atom   24 type  1   force =    -0.00000035    0.00000035    0.00390591
     atom   25 type  1   force =     0.00000000    0.00000000   -0.00390162
     atom   26 type  1   force =    -0.00000013   -0.00000013   -0.08496016
     atom   27 type  1   force =     0.00000000    0.00000000    0.00630090
     atom   28 type  1   force =    -0.00000004   -0.00000004   -0.00488826
     atom   29 type  1   force =     0.00000000    0.00000000    0.00488128
     atom   30 type  1   force =     0.00000010    0.00000010   -0.00631628
     atom   31 type  1   force =     0.00000000    0.00000000    0.08498001
     atom   32 type  1   force =    -0.00000035   -0.00000035    0.00390591
     The ionic contribution  to forces
     atom    1 type  1   force =    -0.00000001   -0.00000001   -9.74629253
     atom    2 type  1   force =     0.00000122    0.00000122  -13.38618064
     atom    3 type  1   force =    -0.00000001   -0.00000001   -1.96509573
     atom    4 type  1   force =     0.00000069    0.00000069   -5.92194623
     atom    5 type  1   force =    -0.00000000   -0.00000000    5.92173035
     atom    6 type  1   force =    -0.00000314   -0.00000314    1.96475139
     atom    7 type  1   force =    -0.00000001   -0.00000001   13.38664686
     atom    8 type  1   force =     0.00001156    0.00001156    9.74636483
     atom    9 type  1   force =    -0.00000001    0.00000001   -9.74628656
     atom   10 type  1   force =     0.00000122   -0.00000122  -13.38618061
     atom   11 type  1   force =    -0.00000001    0.00000001   -1.96512195
     atom   12 type  1   force =     0.00000069   -0.00000069   -5.92194625
     atom   13 type  1   force =    -0.00000000   -0.00000000    5.92182118
     atom   14 type  1   force =    -0.00000314    0.00000315    1.96475138
     atom   15 type  1   force =    -0.00000001    0.00000001   13.38660223
     atom   16 type  1   force =     0.00001156   -0.00001156    9.74636486
     atom   17 type  1   force =     0.00000001   -0.00000001   -9.74628656
     atom   18 type  1   force =    -0.00000122    0.00000122  -13.38618061
     atom   19 type  1   force =     0.00000001   -0.00000001   -1.96512195
     atom   20 type  1   force =    -0.00000069    0.00000069   -5.92194625
     atom   21 type  1   force =    -0.00000000   -0.00000000    5.92182118
     atom   22 type  1   force =     0.00000315   -0.00000314    1.96475138
     atom   23 type  1   force =     0.00000001   -0.00000001   13.38660223
     atom   24 type  1   force =    -0.00001156    0.00001156    9.74636486
     atom   25 type  1   force =     0.00000001    0.00000001   -9.74628417
     atom   26 type  1   force =    -0.00000122   -0.00000122  -13.38618060
     atom   27 type  1   force =     0.00000001    0.00000001   -1.96514711
     atom   28 type  1   force =    -0.00000069   -0.00000069   -5.92194626
     atom   29 type  1   force =    -0.00000000   -0.00000000    5.92191036
     atom   30 type  1   force =     0.00000315    0.00000315    1.96475137
     atom   31 type  1   force =     0.00000001    0.00000001   13.38654466
     atom   32 type  1   force =    -0.00001156   -0.00001156    9.74636487
     The local contribution  to forces
     atom    1 type  1   force =     0.00000407    0.00000407    9.83175664
     atom    2 type  1   force =     0.00000329    0.00000329   13.53515362
     atom    3 type  1   force =     0.00000407    0.00000407    1.97526772
     atom    4 type  1   force =     0.00000400    0.00000400    5.97652152
     atom    5 type  1   force =     0.00000407    0.00000407   -5.97627160
     atom    6 type  1   force =     0.00000749    0.00000749   -1.97489245
     atom    7 type  1   force =     0.00000350    0.00000350  -13.53560877
     atom    8 type  1   force =    -0.00000761   -0.00000761   -9.83180843
     atom    9 type  1   force =     0.00000407    0.00000499    9.83175047
     atom   10 type  1   force =     0.00000329    0.00000613   13.53515243
     atom   11 type  1   force =     0.00000407    0.00000441    1.97529417
     atom   12 type  1   force =     0.00000400    0.00000540    5.97652212
     atom   13 type  1   force =     0.00000407    0.00000383   -5.97636367
     atom   14 type  1   force =     0.00000749    0.00000133   -1.97489245
     atom   15 type  1   force =     0.00000350    0.00000442  -13.53556583
     atom   16 type  1   force =    -0.00000761    0.00001642   -9.83180904
     atom   17 type  1   force =     0.00000499    0.00000407    9.83175047
     atom   18 type  1   force =     0.00000613    0.00000329   13.53515243
     atom   19 type  1   force =     0.00000441    0.00000407    1.97529417
     atom   20 type  1   force =     0.00000540    0.00000400    5.97652212
     atom   21 type  1   force =     0.00000383    0.00000407   -5.97636367
     atom   22 type  1   force =     0.00000133    0.00000749   -1.97489245
     atom   23 type  1   force =     0.00000442    0.00000350  -13.53556583
     atom   24 type  1   force =     0.00001642   -0.00000761   -9.83180904
     atom   25 type  1   force =     0.00000499    0.00000499    9.83174799
     atom   26 type  1   force =     0.00000613    0.00000613   13.53515184
     atom   27 type  1   force =     0.00000441    0.00000441    1.97531966
     atom   28 type  1   force =     0.00000540    0.00000540    5.97652212
     atom   29 type  1   force =     0.00000383    0.00000383   -5.97645371
     atom   30 type  1   force =     0.00000133    0.00000133   -1.97489245
     atom   31 type  1   force =     0.00000442    0.00000442  -13.53551089
     atom   32 type  1   force =     0.00001642    0.00001642   -9.83180904
     The core correction contribution to forces
     atom    1 type  1   force =     0.00000000    0.00000000    0.00000000
     atom    2 type  1   force =     0.00000000    0.00000000    0.00000000
     atom    3 type  1   force =     0.00000000    0.00000000    0.00000000
     atom    4 type  1   force =     0.00000000    0.00000000    0.00000000
     atom    5 type  1   force =     0.00000000    0.00000000    0.00000000
     atom    6 type  1   force =     0.00000000    0.00000000    0.00000000
     atom    7 type  1   force =     0.00000000    0.00000000    0.00000000
     atom    8 type  1   force =     0.00000000    0.00000000    0.00000000
     atom    9 type  1   force =     0.00000000    0.00000000    0.00000000
     atom   10 type  1   force =     0.00000000    0.00000000    0.00000000
     atom   11 type  1   force =     0.00000000    0.00000000    0.00000000
     atom   12 type  1   force =     0.00000000    0.00000000    0.00000000
     atom   13 type  1   force =     0.00000000    0.00000000    0.00000000
     atom   14 type  1   force =     0.00000000    0.00000000    0.00000000
     atom   15 type  1   force =     0.00000000    0.00000000    0.00000000
     atom   16 type  1   force =     0.00000000    0.00000000    0.00000000
     atom   17 type  1   force =     0.00000000    0.00000000    0.00000000
     atom   18 type  1   force =     0.00000000    0.00000000    0.00000000
     atom   19 type  1   force =     0.00000000    0.00000000    0.00000000
     atom   20 type  1   force =     0.00000000    0.00000000    0.00000000
     atom   21 type  1   force =     0.00000000    0.00000000    0.00000000
     atom   22 type  1   force =     0.00000000    0.00000000    0.00000000
     atom   23 type  1   force =     0.00000000    0.00000000    0.00000000
     atom   24 type  1   force =     0.00000000    0.00000000    0.00000000
     atom   25 type  1   force =     0.00000000    0.00000000    0.00000000
     atom   26 type  1   force =     0.00000000    0.00000000    0.00000000
     atom   27 type  1   force =     0.00000000    0.00000000    0.00000000
     atom   28 type  1   force =     0.00000000    0.00000000    0.00000000
     atom   29 type  1   force =     0.00000000    0.00000000    0.00000000
     atom   30 type  1   force =     0.00000000    0.00000000    0.00000000
     atom   31 type  1   force =     0.00000000    0.00000000    0.00000000
     atom   32 type  1   force =     0.00000000    0.00000000    0.00000000
     The Hubbard contrib.    to forces
     atom    1 type  1   force =     0.00000000    0.00000000    0.00000000
     atom    2 type  1   force =     0.00000000    0.00000000    0.00000000
     atom    3 type  1   force =     0.00000000    0.00000000    0.00000000
     atom    4 type  1   force =     0.00000000    0.00000000    0.00000000
     atom    5 type  1   force =     0.00000000    0.00000000    0.00000000
     atom    6 type  1   force =     0.00000000    0.00000000    0.00000000
     atom    7 type  1   force =     0.00000000    0.00000000    0.00000000
     atom    8 type  1   force =     0.00000000    0.00000000    0.00000000
     atom    9 type  1   force =     0.00000000    0.00000000    0.00000000
     atom   10 type  1   force =     0.00000000    0.00000000    0.00000000
     atom   11 type  1   force =     0.00000000    0.00000000    0.00000000
     atom   12 type  1   force =     0.00000000    0.00000000    0.00000000
     atom   13 type  1   force =     0.00000000    0.00000000    0.00000000
     atom   14 type  1   force =     0.00000000    0.00000000    0.00000000
     atom   15 type  1   force =     0.00000000    0.00000000    0.00000000
     atom   16 type  1   force =     0.00000000    0.00000000    0.00000000
     atom   17 type  1   force =     0.00000000    0.00000000    0.00000000
     atom   18 type  1   force =     0.00000000    0.00000000    0.00000000
     atom   19 type  1   force =     0.00000000    0.00000000    0.00000000
     atom   20 type  1   force =     0.00000000    0.00000000    0.00000000
     atom   21 type  1   force =     0.00000000    0.00000000    0.00000000
     atom   22 type  1   force =     0.00000000    0.00000000    0.00000000
     atom   23 type  1   force =     0.00000000    0.00000000    0.00000000
     atom   24 type  1   force =     0.00000000    0.00000000    0.00000000
     atom   25 type  1   force =     0.00000000    0.00000000    0.00000000
     atom   26 type  1   force =     0.00000000    0.00000000    0.00000000
     atom   27 type  1   force =     0.00000000    0.00000000    0.00000000
     atom   28 type  1   force =     0.00000000    0.00000000    0.00000000
     atom   29 type  1   force =     0.00000000    0.00000000    0.00000000
     atom   30 type  1   force =     0.00000000    0.00000000    0.00000000
     atom   31 type  1   force =     0.00000000    0.00000000    0.00000000
     atom   32 type  1   force =     0.00000000    0.00000000    0.00000000
     The SCF correction term to forces
     atom    1 type  1   force =     0.00000000    0.00000000   -0.00000410
     atom    2 type  1   force =    -0.00000000   -0.00000000    0.00000331
     atom    3 type  1   force =     0.00000000   -0.00000000    0.00000033
     atom    4 type  1   force =     0.00000000    0.00000000   -0.00000068
     atom    5 type  1   force =     0.00000000   -0.00000000    0.00000018
     atom    6 type  1   force =    -0.00000000   -0.00000000   -0.00000026
     atom    7 type  1   force =     0.00000000   -0.00000000   -0.00000331
     atom    8 type  1   force =    -0.00000001   -0.00000001    0.00000391
     atom    9 type  1   force =     0.00000000   -0.00000000   -0.00000409
     atom   10 type  1   force =    -0.00000000    0.00000000    0.00000331
     atom   11 type  1   force =    -0.00000000    0.00000000    0.00000032
     atom   12 type  1   force =     0.00000000   -0.00000000   -0.00000068
     atom   13 type  1   force =     0.00000000   -0.00000000    0.00000018
     atom   14 type  1   force =    -0.00000000    0.00000000   -0.00000026
     atom   15 type  1   force =     0.00000000    0.00000000   -0.00000329
     atom   16 type  1   force =    -0.00000001    0.00000001    0.00000391
     atom   17 type  1   force =    -0.00000000   -0.00000000   -0.00000409
     atom   18 type  1   force =     0.00000000   -0.00000000    0.00000331
     atom   19 type  1   force =     0.00000000   -0.00000000    0.00000032
     atom   20 type  1   force =    -0.00000000    0.00000000   -0.00000068
     atom   21 type  1   force =    -0.00000000    0.00000000    0.00000018
     atom   22 type  1   force =     0.00000000   -0.00000000   -0.00000026
     atom   23 type  1   force =     0.00000000    0.00000000   -0.00000329
     atom   24 type  1   force =     0.00000001   -0.00000001    0.00000391
     atom   25 type  1   force =     0.00000000   -0.00000000   -0.00000410
     atom   26 type  1   force =     0.00000000    0.00000000    0.00000331
     atom   27 type  1   force =    -0.00000000    0.00000000    0.00000032
     atom   28 type  1   force =    -0.00000000   -0.00000000   -0.00000068
     atom   29 type  1   force =     0.00000000    0.00000000    0.00000018
     atom   30 type  1   force =     0.00000000    0.00000000   -0.00000026
     atom   31 type  1   force =     0.00000000    0.00000000   -0.00000331
     atom   32 type  1   force =     0.00000001    0.00000001    0.00000391

     Total force =     0.001565     Total SCF correction =     0.000015
     Energy error            =      2.1E-06 Ry
     Gradient error          =      3.9E-04 Ry/Bohr

     bfgs converged in  40 scf cycles and  25 bfgs steps
     (criteria: energy <  1.0E-05 Ry, force <  3.9E-04 Ry/Bohr)

     End of BFGS Geometry Optimization

     Final energy             =    -481.3899465215 Ry

     File ./Li/Lithium.bfgs deleted, as requested
Begin final coordinates

ATOMIC_POSITIONS (angstrom)
Li              -0.0000000700       -0.0000000700       21.8025817175
Li               1.7175778506        1.7175778506       19.7903036218
Li              -0.0000000700       -0.0000000700       25.2289350762
Li               1.7175745421        1.7175745421       23.4827653881
Li              -0.0000000700       -0.0000000700       28.7586336590
Li               1.7175912882        1.7175912882       27.0127165829
Li              -0.0000000600       -0.0000000600       32.4501376334
Li               1.7175553535        1.7175553535       30.4383626975
Li              -0.0000000700        3.4351561600       21.8025848378
Li               1.7175778506        5.1527344794       19.7903036418
Li              -0.0000000700        3.4351561700       25.2289252867
Li               1.7175745421        5.1527377879       23.4827653781
Li              -0.0000000700        3.4351561800       28.7586686033
Li               1.7175912882        5.1527210518       27.0127165829
Li              -0.0000000600        3.4351561700       32.4501023106
Li               1.7175553535        5.1527569865       30.4383627075
Li               3.4351561600       -0.0000000700       21.8025848378
Li               5.1527344794        1.7175778506       19.7903036418
Li               3.4351561700       -0.0000000700       25.2289252867
Li               5.1527377879        1.7175745421       23.4827653781
Li               3.4351561800       -0.0000000700       28.7586686033
Li               5.1527210518        1.7175912882       27.0127165829
Li               3.4351561700       -0.0000000600       32.4501023106
Li               5.1527569865        1.7175553535       30.4383627075
Li               3.4351561600        3.4351561600       21.8025854169
Li               5.1527344794        5.1527344794       19.7903036518
Li               3.4351561700        3.4351561700       25.2289164935
Li               5.1527377879        5.1527377879       23.4827653781
Li               3.4351561800        3.4351561800       28.7587034369
Li               5.1527210518        5.1527210518       27.0127165829
Li               3.4351561700        3.4351561700       32.4500533045
Li               5.1527569865        5.1527569865       30.4383627075
End final coordinates



     Writing all to output data dir ./Li/Lithium.save/ :
     XML data file
     init_run     :      7.21s CPU      8.45s WALL (       1 calls)
     electrons    :   7710.39s CPU   7764.89s WALL (      40 calls)
     update_pot   :      4.57s CPU      4.67s WALL (      39 calls)
     forces       :    824.91s CPU    827.64s WALL (      40 calls)

     Called by init_run:
     wfcinit      :      1.34s CPU      1.66s WALL (       1 calls)
     wfcinit:wfcr :      1.26s CPU      1.57s WALL (      11 calls)
     potinit      :      0.13s CPU      0.56s WALL (       1 calls)
     hinit0       :      2.46s CPU      2.77s WALL (       1 calls)

     Called by electrons:
     c_bands      :   4446.12s CPU   4480.47s WALL (     627 calls)
     sum_band     :    468.80s CPU    472.05s WALL (     627 calls)
     v_of_rho     :     42.81s CPU     43.30s WALL (     628 calls)
     v_h          :      3.76s CPU      3.78s WALL (     628 calls)
     v_xc         :     39.04s CPU     39.50s WALL (     628 calls)
     newd         :     15.33s CPU     15.62s WALL (     628 calls)
     PAW_pot      :     14.26s CPU     14.54s WALL (     667 calls)
     mix_rho      :    127.95s CPU    128.76s WALL (     627 calls)

     Called by c_bands:
     init_us_2    :     55.32s CPU     55.66s WALL (   14674 calls)
     cegterg      :   4229.44s CPU   4259.68s WALL (    7043 calls)

     Called by sum_band:
     sum_band:wei :      2.07s CPU      2.08s WALL (     627 calls)
     sum_band:loo :    440.15s CPU    443.04s WALL (     627 calls)
     sum_band:buf :      4.64s CPU      4.73s WALL (    6897 calls)
     sum_band:ini :     26.03s CPU     26.15s WALL (    6897 calls)
     sum_band:cal :     54.71s CPU     55.07s WALL (    7326 calls)
     sum_band:bec :      1.86s CPU      1.90s WALL (    7326 calls)
     addusdens    :     12.17s CPU     12.36s WALL (     627 calls)
                                        0.00s GPU  (     627 calls)
     addusd:skk   :      2.43s CPU      2.44s WALL (     627 calls)
                                        0.00s GPU  (     627 calls)

     Called by *egterg:
     cdiaghg      :    835.28s CPU    843.51s WALL (   72828 calls)
     cegterg:over :    305.72s CPU    307.82s WALL (   66727 calls)
     cegterg:upda :    158.59s CPU    159.37s WALL (   66727 calls)
     cegterg:last :     29.60s CPU     29.72s WALL (    7675 calls)
     h_psi        :   2651.41s CPU   2669.47s WALL (   73781 calls)
     s_psi        :    137.47s CPU    138.33s WALL (   73781 calls)
     g_psi        :      4.59s CPU      4.62s WALL (   66727 calls)

     Called by h_psi:
     h_psi:calbec :    228.37s CPU    230.42s WALL (   73781 calls)
     vloc_psi     :   2267.47s CPU   2282.73s WALL (   73781 calls)
                                        0.00s GPU  (   73781 calls)
     add_vuspsi   :    144.99s CPU    145.77s WALL (   73781 calls)

     General routines
     calbec       :    294.35s CPU    296.94s WALL (   82867 calls)
     fft          :     40.34s CPU     40.68s WALL (    8242 calls)
     ffts         :     69.34s CPU     70.11s WALL (   68659 calls)
     fftw         :   2503.60s CPU   2520.50s WALL ( 3883540 calls)
     interpolate  :      3.27s CPU      3.67s WALL (     628 calls)
 
     Parallel routines

     PAW routines
     PAW_pot      :     14.26s CPU     14.54s WALL (     667 calls)
     PAW_symme    :      0.27s CPU      0.27s WALL (    1294 calls)
 
     Environ routines
 
     PWSCF        :      2h27m CPU      2h28m WALL

 
   This run was terminated on:  14:26:30   6Jan2025            

=------------------------------------------------------------------------------=
   JOB DONE.
=------------------------------------------------------------------------------=
