
     Program PWSCF v.7.4 starts on  5Jan2025 at  3:23: 2 

     This program is part of the open-source Quantum ESPRESSO suite
     for quantum simulation of materials; please cite
         "P. Giannozzi et al., J. Phys.:Condens. Matter 21 395502 (2009);
         "P. Giannozzi et al., J. Phys.:Condens. Matter 29 465901 (2017);
         "P. Giannozzi et al., J. Chem. Phys. 152 154105 (2020);
          URL http://www.quantum-espresso.org", 
     in publications or presentations arising from this work. More details at
     http://www.quantum-espresso.org/quote

     Parallel version (MPI & OpenMP), running on     512 processor cores
     Number of MPI processes:               512
     Threads/MPI process:                     1

     MPI processes distributed on     4 nodes
     230456 MiB available memory on the printing compute node when the environment starts

     Reading input from espresso.pwi
Warning: card &CELL ignored
Warning: card    PRESS_CONV_THR   = 0.1 ignored
Warning: card    CELL_DOFREE      = 'ALL' ignored
Warning: card / ignored
Warning: card &FCP ignored
Warning: card / ignored
Warning: card &RISM ignored
Warning: card / ignored

     Current dimensions of program PWSCF are:
     Max number of different atomic species (ntypx) = 10
     Max number of k-points (npk) =  40000
     Max angular momentum in pseudopotentials (lmaxx) =  4

     IMPORTANT: XC functional enforced from input :
     Exchange-correlation= PBE
                           (   1   4   3   4   0   0   0)
     Any further DFT definition will be discarded
     Please, verify this is what you really want

     Found identity + ( -0.5000 -0.5000 -0.5000) symmetry
     This is a supercell, fractional translations are disabled
     Message from routine setup:
     using ibrav=0 with symmetry is DISCOURAGED, use correct ibrav instead

     K-points division:     npool     =      32
     R & G space division:  proc/nbgrp/npool/nimage =      16
     Subspace diagonalization in iterative solution of the eigenvalue problem:
     a serial algorithm will be used


     Parallelization info
     --------------------
     sticks:   dense  smooth     PW     G-vecs:    dense   smooth      PW
     Min         168      67     20                 6562     1669     270
     Max         169      68     21                 6565     1672     272
     Sum        2701    1085    325               105015    26745    4337

     Using Slab Decomposition



     bravais-lattice index     =            0
     lattice parameter (alat)  =       6.5007  a.u.
     unit-cell volume          =     274.7084 (a.u.)^3
     number of atoms/cell      =            2
     number of atomic types    =            1
     number of electrons       =         6.00
     number of Kohn-Sham states=            7
     kinetic-energy cutoff     =      80.0000  Ry
     charge density cutoff     =     800.0000  Ry
     scf convergence threshold =      1.0E-14
     mixing beta               =       0.8000
     number of iterations used =            8  plain     mixing
     Exchange-correlation= PBE
                           (   1   4   3   4   0   0   0)

     celldm(1)=   6.500658  celldm(2)=   0.000000  celldm(3)=   0.000000
     celldm(4)=   0.000000  celldm(5)=   0.000000  celldm(6)=   0.000000

     crystal axes: (cart. coord. in units of alat)
               a(1) = (   1.000000   0.000000   0.000000 )  
               a(2) = (   0.000000   1.000000   0.000000 )  
               a(3) = (   0.000000   0.000000   1.000000 )  

     reciprocal axes: (cart. coord. in units 2 pi/alat)
               b(1) = (  1.000000  0.000000  0.000000 )  
               b(2) = (  0.000000  1.000000  0.000000 )  
               b(3) = (  0.000000  0.000000  1.000000 )  


     PseudoPot. # 1 for Li read from file:
     /work/e89/e89/ba3g18/Repos/Pseudopotentials/Pslibrary/Li.pbe-sl-kjpaw_psl.1.0.0.UPF
     MD5 check sum: 3f4d2cafebb47c6c3aa8ed472e6f074d
     Pseudo is Projector augmented-wave, Zval =  3.0
     Generated using 'atomic' code by A. Dal Corso  v.7.4
     Shape of augmentation charge: PSQ
     Using radial grid of 1017 points,  4 beta functions with: 
                l(1) =   0
                l(2) =   0
                l(3) =   1
                l(4) =   1
     Q(r) pseudized with 0 coefficients 


     atomic species   valence    mass     pseudopotential
     Li                3.00     6.94000     Li( 1.00)

     48 Sym. Ops., with inversion, found


                                    s                        frac. trans.

      isym =  1     identity                                     

 cryst.   s( 1) = (     1          0          0      )
                  (     0          1          0      )
                  (     0          0          1      )

 cart.    s( 1) = (  1.0000000  0.0000000  0.0000000 )
                  (  0.0000000  1.0000000  0.0000000 )
                  (  0.0000000  0.0000000  1.0000000 )


      isym =  2     180 deg rotation - cart. axis [0,0,1]        

 cryst.   s( 2) = (    -1          0          0      )
                  (     0         -1          0      )
                  (     0          0          1      )

 cart.    s( 2) = ( -1.0000000  0.0000000  0.0000000 )
                  (  0.0000000 -1.0000000  0.0000000 )
                  (  0.0000000  0.0000000  1.0000000 )


      isym =  3     180 deg rotation - cart. axis [0,1,0]        

 cryst.   s( 3) = (    -1          0          0      )
                  (     0          1          0      )
                  (     0          0         -1      )

 cart.    s( 3) = ( -1.0000000  0.0000000  0.0000000 )
                  (  0.0000000  1.0000000  0.0000000 )
                  (  0.0000000  0.0000000 -1.0000000 )


      isym =  4     180 deg rotation - cart. axis [1,0,0]        

 cryst.   s( 4) = (     1          0          0      )
                  (     0         -1          0      )
                  (     0          0         -1      )

 cart.    s( 4) = (  1.0000000  0.0000000  0.0000000 )
                  (  0.0000000 -1.0000000  0.0000000 )
                  (  0.0000000  0.0000000 -1.0000000 )


      isym =  5     180 deg rotation - cart. axis [1,1,0]        

 cryst.   s( 5) = (     0          1          0      )
                  (     1          0          0      )
                  (     0          0         -1      )

 cart.    s( 5) = (  0.0000000  1.0000000  0.0000000 )
                  (  1.0000000  0.0000000  0.0000000 )
                  (  0.0000000  0.0000000 -1.0000000 )


      isym =  6     180 deg rotation - cart. axis [1,-1,0]       

 cryst.   s( 6) = (     0         -1          0      )
                  (    -1          0          0      )
                  (     0          0         -1      )

 cart.    s( 6) = (  0.0000000 -1.0000000  0.0000000 )
                  ( -1.0000000  0.0000000  0.0000000 )
                  (  0.0000000  0.0000000 -1.0000000 )


      isym =  7      90 deg rotation - cart. axis [0,0,-1]       

 cryst.   s( 7) = (     0         -1          0      )
                  (     1          0          0      )
                  (     0          0          1      )

 cart.    s( 7) = (  0.0000000  1.0000000  0.0000000 )
                  ( -1.0000000  0.0000000  0.0000000 )
                  (  0.0000000  0.0000000  1.0000000 )


      isym =  8      90 deg rotation - cart. axis [0,0,1]        

 cryst.   s( 8) = (     0          1          0      )
                  (    -1          0          0      )
                  (     0          0          1      )

 cart.    s( 8) = (  0.0000000 -1.0000000  0.0000000 )
                  (  1.0000000  0.0000000  0.0000000 )
                  (  0.0000000  0.0000000  1.0000000 )


      isym =  9     180 deg rotation - cart. axis [1,0,1]        

 cryst.   s( 9) = (     0          0          1      )
                  (     0         -1          0      )
                  (     1          0          0      )

 cart.    s( 9) = (  0.0000000  0.0000000  1.0000000 )
                  (  0.0000000 -1.0000000  0.0000000 )
                  (  1.0000000  0.0000000  0.0000000 )


      isym = 10     180 deg rotation - cart. axis [-1,0,1]       

 cryst.   s(10) = (     0          0         -1      )
                  (     0         -1          0      )
                  (    -1          0          0      )

 cart.    s(10) = (  0.0000000  0.0000000 -1.0000000 )
                  (  0.0000000 -1.0000000  0.0000000 )
                  ( -1.0000000  0.0000000  0.0000000 )


      isym = 11      90 deg rotation - cart. axis [0,1,0]        

 cryst.   s(11) = (     0          0         -1      )
                  (     0          1          0      )
                  (     1          0          0      )

 cart.    s(11) = (  0.0000000  0.0000000  1.0000000 )
                  (  0.0000000  1.0000000  0.0000000 )
                  ( -1.0000000  0.0000000  0.0000000 )


      isym = 12      90 deg rotation - cart. axis [0,-1,0]       

 cryst.   s(12) = (     0          0          1      )
                  (     0          1          0      )
                  (    -1          0          0      )

 cart.    s(12) = (  0.0000000  0.0000000 -1.0000000 )
                  (  0.0000000  1.0000000  0.0000000 )
                  (  1.0000000  0.0000000  0.0000000 )


      isym = 13     180 deg rotation - cart. axis [0,1,1]        

 cryst.   s(13) = (    -1          0          0      )
                  (     0          0          1      )
                  (     0          1          0      )

 cart.    s(13) = ( -1.0000000  0.0000000  0.0000000 )
                  (  0.0000000  0.0000000  1.0000000 )
                  (  0.0000000  1.0000000  0.0000000 )


      isym = 14     180 deg rotation - cart. axis [0,1,-1]       

 cryst.   s(14) = (    -1          0          0      )
                  (     0          0         -1      )
                  (     0         -1          0      )

 cart.    s(14) = ( -1.0000000  0.0000000  0.0000000 )
                  (  0.0000000  0.0000000 -1.0000000 )
                  (  0.0000000 -1.0000000  0.0000000 )


      isym = 15      90 deg rotation - cart. axis [-1,0,0]       

 cryst.   s(15) = (     1          0          0      )
                  (     0          0         -1      )
                  (     0          1          0      )

 cart.    s(15) = (  1.0000000  0.0000000  0.0000000 )
                  (  0.0000000  0.0000000  1.0000000 )
                  (  0.0000000 -1.0000000  0.0000000 )


      isym = 16      90 deg rotation - cart. axis [1,0,0]        

 cryst.   s(16) = (     1          0          0      )
                  (     0          0          1      )
                  (     0         -1          0      )

 cart.    s(16) = (  1.0000000  0.0000000  0.0000000 )
                  (  0.0000000  0.0000000 -1.0000000 )
                  (  0.0000000  1.0000000  0.0000000 )


      isym = 17     120 deg rotation - cart. axis [-1,-1,-1]     

 cryst.   s(17) = (     0          0          1      )
                  (     1          0          0      )
                  (     0          1          0      )

 cart.    s(17) = (  0.0000000  1.0000000  0.0000000 )
                  (  0.0000000  0.0000000  1.0000000 )
                  (  1.0000000  0.0000000  0.0000000 )


      isym = 18     120 deg rotation - cart. axis [-1,1,1]       

 cryst.   s(18) = (     0          0         -1      )
                  (    -1          0          0      )
                  (     0          1          0      )

 cart.    s(18) = (  0.0000000 -1.0000000  0.0000000 )
                  (  0.0000000  0.0000000  1.0000000 )
                  ( -1.0000000  0.0000000  0.0000000 )


      isym = 19     120 deg rotation - cart. axis [1,1,-1]       

 cryst.   s(19) = (     0          0         -1      )
                  (     1          0          0      )
                  (     0         -1          0      )

 cart.    s(19) = (  0.0000000  1.0000000  0.0000000 )
                  (  0.0000000  0.0000000 -1.0000000 )
                  ( -1.0000000  0.0000000  0.0000000 )


      isym = 20     120 deg rotation - cart. axis [1,-1,1]       

 cryst.   s(20) = (     0          0          1      )
                  (    -1          0          0      )
                  (     0         -1          0      )

 cart.    s(20) = (  0.0000000 -1.0000000  0.0000000 )
                  (  0.0000000  0.0000000 -1.0000000 )
                  (  1.0000000  0.0000000  0.0000000 )


      isym = 21     120 deg rotation - cart. axis [1,1,1]        

 cryst.   s(21) = (     0          1          0      )
                  (     0          0          1      )
                  (     1          0          0      )

 cart.    s(21) = (  0.0000000  0.0000000  1.0000000 )
                  (  1.0000000  0.0000000  0.0000000 )
                  (  0.0000000  1.0000000  0.0000000 )


      isym = 22     120 deg rotation - cart. axis [-1,1,-1]      

 cryst.   s(22) = (     0         -1          0      )
                  (     0          0         -1      )
                  (     1          0          0      )

 cart.    s(22) = (  0.0000000  0.0000000  1.0000000 )
                  ( -1.0000000  0.0000000  0.0000000 )
                  (  0.0000000 -1.0000000  0.0000000 )


      isym = 23     120 deg rotation - cart. axis [1,-1,-1]      

 cryst.   s(23) = (     0         -1          0      )
                  (     0          0          1      )
                  (    -1          0          0      )

 cart.    s(23) = (  0.0000000  0.0000000 -1.0000000 )
                  ( -1.0000000  0.0000000  0.0000000 )
                  (  0.0000000  1.0000000  0.0000000 )


      isym = 24     120 deg rotation - cart. axis [-1,-1,1]      

 cryst.   s(24) = (     0          1          0      )
                  (     0          0         -1      )
                  (    -1          0          0      )

 cart.    s(24) = (  0.0000000  0.0000000 -1.0000000 )
                  (  1.0000000  0.0000000  0.0000000 )
                  (  0.0000000 -1.0000000  0.0000000 )


      isym = 25     inversion                                    

 cryst.   s(25) = (    -1          0          0      )
                  (     0         -1          0      )
                  (     0          0         -1      )

 cart.    s(25) = ( -1.0000000  0.0000000  0.0000000 )
                  (  0.0000000 -1.0000000  0.0000000 )
                  (  0.0000000  0.0000000 -1.0000000 )


      isym = 26     inv. 180 deg rotation - cart. axis [0,0,1]   

 cryst.   s(26) = (     1          0          0      )
                  (     0          1          0      )
                  (     0          0         -1      )

 cart.    s(26) = (  1.0000000  0.0000000  0.0000000 )
                  (  0.0000000  1.0000000  0.0000000 )
                  (  0.0000000  0.0000000 -1.0000000 )


      isym = 27     inv. 180 deg rotation - cart. axis [0,1,0]   

 cryst.   s(27) = (     1          0          0      )
                  (     0         -1          0      )
                  (     0          0          1      )

 cart.    s(27) = (  1.0000000  0.0000000  0.0000000 )
                  (  0.0000000 -1.0000000  0.0000000 )
                  (  0.0000000  0.0000000  1.0000000 )


      isym = 28     inv. 180 deg rotation - cart. axis [1,0,0]   

 cryst.   s(28) = (    -1          0          0      )
                  (     0          1          0      )
                  (     0          0          1      )

 cart.    s(28) = ( -1.0000000  0.0000000  0.0000000 )
                  (  0.0000000  1.0000000  0.0000000 )
                  (  0.0000000  0.0000000  1.0000000 )


      isym = 29     inv. 180 deg rotation - cart. axis [1,1,0]   

 cryst.   s(29) = (     0         -1          0      )
                  (    -1          0          0      )
                  (     0          0          1      )

 cart.    s(29) = (  0.0000000 -1.0000000  0.0000000 )
                  ( -1.0000000  0.0000000  0.0000000 )
                  (  0.0000000  0.0000000  1.0000000 )


      isym = 30     inv. 180 deg rotation - cart. axis [1,-1,0]  

 cryst.   s(30) = (     0          1          0      )
                  (     1          0          0      )
                  (     0          0          1      )

 cart.    s(30) = (  0.0000000  1.0000000  0.0000000 )
                  (  1.0000000  0.0000000  0.0000000 )
                  (  0.0000000  0.0000000  1.0000000 )


      isym = 31     inv.  90 deg rotation - cart. axis [0,0,-1]  

 cryst.   s(31) = (     0          1          0      )
                  (    -1          0          0      )
                  (     0          0         -1      )

 cart.    s(31) = (  0.0000000 -1.0000000  0.0000000 )
                  (  1.0000000  0.0000000  0.0000000 )
                  (  0.0000000  0.0000000 -1.0000000 )


      isym = 32     inv.  90 deg rotation - cart. axis [0,0,1]   

 cryst.   s(32) = (     0         -1          0      )
                  (     1          0          0      )
                  (     0          0         -1      )

 cart.    s(32) = (  0.0000000  1.0000000  0.0000000 )
                  ( -1.0000000  0.0000000  0.0000000 )
                  (  0.0000000  0.0000000 -1.0000000 )


      isym = 33     inv. 180 deg rotation - cart. axis [1,0,1]   

 cryst.   s(33) = (     0          0         -1      )
                  (     0          1          0      )
                  (    -1          0          0      )

 cart.    s(33) = (  0.0000000  0.0000000 -1.0000000 )
                  (  0.0000000  1.0000000  0.0000000 )
                  ( -1.0000000  0.0000000  0.0000000 )


      isym = 34     inv. 180 deg rotation - cart. axis [-1,0,1]  

 cryst.   s(34) = (     0          0          1      )
                  (     0          1          0      )
                  (     1          0          0      )

 cart.    s(34) = (  0.0000000  0.0000000  1.0000000 )
                  (  0.0000000  1.0000000  0.0000000 )
                  (  1.0000000  0.0000000  0.0000000 )


      isym = 35     inv.  90 deg rotation - cart. axis [0,1,0]   

 cryst.   s(35) = (     0          0          1      )
                  (     0         -1          0      )
                  (    -1          0          0      )

 cart.    s(35) = (  0.0000000  0.0000000 -1.0000000 )
                  (  0.0000000 -1.0000000  0.0000000 )
                  (  1.0000000  0.0000000  0.0000000 )


      isym = 36     inv.  90 deg rotation - cart. axis [0,-1,0]  

 cryst.   s(36) = (     0          0         -1      )
                  (     0         -1          0      )
                  (     1          0          0      )

 cart.    s(36) = (  0.0000000  0.0000000  1.0000000 )
                  (  0.0000000 -1.0000000  0.0000000 )
                  ( -1.0000000  0.0000000  0.0000000 )


      isym = 37     inv. 180 deg rotation - cart. axis [0,1,1]   

 cryst.   s(37) = (     1          0          0      )
                  (     0          0         -1      )
                  (     0         -1          0      )

 cart.    s(37) = (  1.0000000  0.0000000  0.0000000 )
                  (  0.0000000  0.0000000 -1.0000000 )
                  (  0.0000000 -1.0000000  0.0000000 )


      isym = 38     inv. 180 deg rotation - cart. axis [0,1,-1]  

 cryst.   s(38) = (     1          0          0      )
                  (     0          0          1      )
                  (     0          1          0      )

 cart.    s(38) = (  1.0000000  0.0000000  0.0000000 )
                  (  0.0000000  0.0000000  1.0000000 )
                  (  0.0000000  1.0000000  0.0000000 )


      isym = 39     inv.  90 deg rotation - cart. axis [-1,0,0]  

 cryst.   s(39) = (    -1          0          0      )
                  (     0          0          1      )
                  (     0         -1          0      )

 cart.    s(39) = ( -1.0000000  0.0000000  0.0000000 )
                  (  0.0000000  0.0000000 -1.0000000 )
                  (  0.0000000  1.0000000  0.0000000 )


      isym = 40     inv.  90 deg rotation - cart. axis [1,0,0]   

 cryst.   s(40) = (    -1          0          0      )
                  (     0          0         -1      )
                  (     0          1          0      )

 cart.    s(40) = ( -1.0000000  0.0000000  0.0000000 )
                  (  0.0000000  0.0000000  1.0000000 )
                  (  0.0000000 -1.0000000  0.0000000 )


      isym = 41     inv. 120 deg rotation - cart. axis [-1,-1,-1]

 cryst.   s(41) = (     0          0         -1      )
                  (    -1          0          0      )
                  (     0         -1          0      )

 cart.    s(41) = (  0.0000000 -1.0000000  0.0000000 )
                  (  0.0000000  0.0000000 -1.0000000 )
                  ( -1.0000000  0.0000000  0.0000000 )


      isym = 42     inv. 120 deg rotation - cart. axis [-1,1,1]  

 cryst.   s(42) = (     0          0          1      )
                  (     1          0          0      )
                  (     0         -1          0      )

 cart.    s(42) = (  0.0000000  1.0000000  0.0000000 )
                  (  0.0000000  0.0000000 -1.0000000 )
                  (  1.0000000  0.0000000  0.0000000 )


      isym = 43     inv. 120 deg rotation - cart. axis [1,1,-1]  

 cryst.   s(43) = (     0          0          1      )
                  (    -1          0          0      )
                  (     0          1          0      )

 cart.    s(43) = (  0.0000000 -1.0000000  0.0000000 )
                  (  0.0000000  0.0000000  1.0000000 )
                  (  1.0000000  0.0000000  0.0000000 )


      isym = 44     inv. 120 deg rotation - cart. axis [1,-1,1]  

 cryst.   s(44) = (     0          0         -1      )
                  (     1          0          0      )
                  (     0          1          0      )

 cart.    s(44) = (  0.0000000  1.0000000  0.0000000 )
                  (  0.0000000  0.0000000  1.0000000 )
                  ( -1.0000000  0.0000000  0.0000000 )


      isym = 45     inv. 120 deg rotation - cart. axis [1,1,1]   

 cryst.   s(45) = (     0         -1          0      )
                  (     0          0         -1      )
                  (    -1          0          0      )

 cart.    s(45) = (  0.0000000  0.0000000 -1.0000000 )
                  ( -1.0000000  0.0000000  0.0000000 )
                  (  0.0000000 -1.0000000  0.0000000 )


      isym = 46     inv. 120 deg rotation - cart. axis [-1,1,-1] 

 cryst.   s(46) = (     0          1          0      )
                  (     0          0          1      )
                  (    -1          0          0      )

 cart.    s(46) = (  0.0000000  0.0000000 -1.0000000 )
                  (  1.0000000  0.0000000  0.0000000 )
                  (  0.0000000  1.0000000  0.0000000 )


      isym = 47     inv. 120 deg rotation - cart. axis [1,-1,-1] 

 cryst.   s(47) = (     0          1          0      )
                  (     0          0         -1      )
                  (     1          0          0      )

 cart.    s(47) = (  0.0000000  0.0000000  1.0000000 )
                  (  1.0000000  0.0000000  0.0000000 )
                  (  0.0000000 -1.0000000  0.0000000 )


      isym = 48     inv. 120 deg rotation - cart. axis [-1,-1,1] 

 cryst.   s(48) = (     0         -1          0      )
                  (     0          0          1      )
                  (     1          0          0      )

 cart.    s(48) = (  0.0000000  0.0000000  1.0000000 )
                  ( -1.0000000  0.0000000  0.0000000 )
                  (  0.0000000  1.0000000  0.0000000 )


   Cartesian axes

     site n.     atom                  positions (alat units)
         1        Li     tau(   1) = (   0.0000000   0.0000000   0.0000000  )
         2        Li     tau(   2) = (   0.5000000   0.5000000   0.5000000  )

   Crystallographic axes

     site n.     atom                  positions (cryst. coord.)
         1        Li     tau(   1) = (  0.0000000  0.0000000  0.0000000  )
         2        Li     tau(   2) = (  0.5000000  0.5000000  0.5000000  )

     number of k points=   220  Marzari-Vanderbilt smearing, width (Ry)=  0.0100
                       cart. coord. in units 2pi/alat
        k(    1) = (   0.0000000   0.0000000   0.0000000), wk =   0.0002916
        k(    2) = (   0.0000000   0.0000000   0.0526316), wk =   0.0017495
        k(    3) = (   0.0000000   0.0000000   0.1052632), wk =   0.0017495
        k(    4) = (   0.0000000   0.0000000   0.1578947), wk =   0.0017495
        k(    5) = (   0.0000000   0.0000000   0.2105263), wk =   0.0017495
        k(    6) = (   0.0000000   0.0000000   0.2631579), wk =   0.0017495
        k(    7) = (   0.0000000   0.0000000   0.3157895), wk =   0.0017495
        k(    8) = (   0.0000000   0.0000000   0.3684211), wk =   0.0017495
        k(    9) = (   0.0000000   0.0000000   0.4210526), wk =   0.0017495
        k(   10) = (   0.0000000   0.0000000   0.4736842), wk =   0.0017495
        k(   11) = (   0.0000000   0.0526316   0.0526316), wk =   0.0034991
        k(   12) = (   0.0000000   0.0526316   0.1052632), wk =   0.0069981
        k(   13) = (   0.0000000   0.0526316   0.1578947), wk =   0.0069981
        k(   14) = (   0.0000000   0.0526316   0.2105263), wk =   0.0069981
        k(   15) = (   0.0000000   0.0526316   0.2631579), wk =   0.0069981
        k(   16) = (   0.0000000   0.0526316   0.3157895), wk =   0.0069981
        k(   17) = (   0.0000000   0.0526316   0.3684211), wk =   0.0069981
        k(   18) = (   0.0000000   0.0526316   0.4210526), wk =   0.0069981
        k(   19) = (   0.0000000   0.0526316   0.4736842), wk =   0.0069981
        k(   20) = (   0.0000000   0.1052632   0.1052632), wk =   0.0034991
        k(   21) = (   0.0000000   0.1052632   0.1578947), wk =   0.0069981
        k(   22) = (   0.0000000   0.1052632   0.2105263), wk =   0.0069981
        k(   23) = (   0.0000000   0.1052632   0.2631579), wk =   0.0069981
        k(   24) = (   0.0000000   0.1052632   0.3157895), wk =   0.0069981
        k(   25) = (   0.0000000   0.1052632   0.3684211), wk =   0.0069981
        k(   26) = (   0.0000000   0.1052632   0.4210526), wk =   0.0069981
        k(   27) = (   0.0000000   0.1052632   0.4736842), wk =   0.0069981
        k(   28) = (   0.0000000   0.1578947   0.1578947), wk =   0.0034991
        k(   29) = (   0.0000000   0.1578947   0.2105263), wk =   0.0069981
        k(   30) = (   0.0000000   0.1578947   0.2631579), wk =   0.0069981
        k(   31) = (   0.0000000   0.1578947   0.3157895), wk =   0.0069981
        k(   32) = (   0.0000000   0.1578947   0.3684211), wk =   0.0069981
        k(   33) = (   0.0000000   0.1578947   0.4210526), wk =   0.0069981
        k(   34) = (   0.0000000   0.1578947   0.4736842), wk =   0.0069981
        k(   35) = (   0.0000000   0.2105263   0.2105263), wk =   0.0034991
        k(   36) = (   0.0000000   0.2105263   0.2631579), wk =   0.0069981
        k(   37) = (   0.0000000   0.2105263   0.3157895), wk =   0.0069981
        k(   38) = (   0.0000000   0.2105263   0.3684211), wk =   0.0069981
        k(   39) = (   0.0000000   0.2105263   0.4210526), wk =   0.0069981
        k(   40) = (   0.0000000   0.2105263   0.4736842), wk =   0.0069981
        k(   41) = (   0.0000000   0.2631579   0.2631579), wk =   0.0034991
        k(   42) = (   0.0000000   0.2631579   0.3157895), wk =   0.0069981
        k(   43) = (   0.0000000   0.2631579   0.3684211), wk =   0.0069981
        k(   44) = (   0.0000000   0.2631579   0.4210526), wk =   0.0069981
        k(   45) = (   0.0000000   0.2631579   0.4736842), wk =   0.0069981
        k(   46) = (   0.0000000   0.3157895   0.3157895), wk =   0.0034991
        k(   47) = (   0.0000000   0.3157895   0.3684211), wk =   0.0069981
        k(   48) = (   0.0000000   0.3157895   0.4210526), wk =   0.0069981
        k(   49) = (   0.0000000   0.3157895   0.4736842), wk =   0.0069981
        k(   50) = (   0.0000000   0.3684211   0.3684211), wk =   0.0034991
        k(   51) = (   0.0000000   0.3684211   0.4210526), wk =   0.0069981
        k(   52) = (   0.0000000   0.3684211   0.4736842), wk =   0.0069981
        k(   53) = (   0.0000000   0.4210526   0.4210526), wk =   0.0034991
        k(   54) = (   0.0000000   0.4210526   0.4736842), wk =   0.0069981
        k(   55) = (   0.0000000   0.4736842   0.4736842), wk =   0.0034991
        k(   56) = (   0.0526316   0.0526316   0.0526316), wk =   0.0023327
        k(   57) = (   0.0526316   0.0526316   0.1052632), wk =   0.0069981
        k(   58) = (   0.0526316   0.0526316   0.1578947), wk =   0.0069981
        k(   59) = (   0.0526316   0.0526316   0.2105263), wk =   0.0069981
        k(   60) = (   0.0526316   0.0526316   0.2631579), wk =   0.0069981
        k(   61) = (   0.0526316   0.0526316   0.3157895), wk =   0.0069981
        k(   62) = (   0.0526316   0.0526316   0.3684211), wk =   0.0069981
        k(   63) = (   0.0526316   0.0526316   0.4210526), wk =   0.0069981
        k(   64) = (   0.0526316   0.0526316   0.4736842), wk =   0.0069981
        k(   65) = (   0.0526316   0.1052632   0.1052632), wk =   0.0069981
        k(   66) = (   0.0526316   0.1052632   0.1578947), wk =   0.0139962
        k(   67) = (   0.0526316   0.1052632   0.2105263), wk =   0.0139962
        k(   68) = (   0.0526316   0.1052632   0.2631579), wk =   0.0139962
        k(   69) = (   0.0526316   0.1052632   0.3157895), wk =   0.0139962
        k(   70) = (   0.0526316   0.1052632   0.3684211), wk =   0.0139962
        k(   71) = (   0.0526316   0.1052632   0.4210526), wk =   0.0139962
        k(   72) = (   0.0526316   0.1052632   0.4736842), wk =   0.0139962
        k(   73) = (   0.0526316   0.1578947   0.1578947), wk =   0.0069981
        k(   74) = (   0.0526316   0.1578947   0.2105263), wk =   0.0139962
        k(   75) = (   0.0526316   0.1578947   0.2631579), wk =   0.0139962
        k(   76) = (   0.0526316   0.1578947   0.3157895), wk =   0.0139962
        k(   77) = (   0.0526316   0.1578947   0.3684211), wk =   0.0139962
        k(   78) = (   0.0526316   0.1578947   0.4210526), wk =   0.0139962
        k(   79) = (   0.0526316   0.1578947   0.4736842), wk =   0.0139962
        k(   80) = (   0.0526316   0.2105263   0.2105263), wk =   0.0069981
        k(   81) = (   0.0526316   0.2105263   0.2631579), wk =   0.0139962
        k(   82) = (   0.0526316   0.2105263   0.3157895), wk =   0.0139962
        k(   83) = (   0.0526316   0.2105263   0.3684211), wk =   0.0139962
        k(   84) = (   0.0526316   0.2105263   0.4210526), wk =   0.0139962
        k(   85) = (   0.0526316   0.2105263   0.4736842), wk =   0.0139962
        k(   86) = (   0.0526316   0.2631579   0.2631579), wk =   0.0069981
        k(   87) = (   0.0526316   0.2631579   0.3157895), wk =   0.0139962
        k(   88) = (   0.0526316   0.2631579   0.3684211), wk =   0.0139962
        k(   89) = (   0.0526316   0.2631579   0.4210526), wk =   0.0139962
        k(   90) = (   0.0526316   0.2631579   0.4736842), wk =   0.0139962
        k(   91) = (   0.0526316   0.3157895   0.3157895), wk =   0.0069981
        k(   92) = (   0.0526316   0.3157895   0.3684211), wk =   0.0139962
        k(   93) = (   0.0526316   0.3157895   0.4210526), wk =   0.0139962
        k(   94) = (   0.0526316   0.3157895   0.4736842), wk =   0.0139962
        k(   95) = (   0.0526316   0.3684211   0.3684211), wk =   0.0069981
        k(   96) = (   0.0526316   0.3684211   0.4210526), wk =   0.0139962
        k(   97) = (   0.0526316   0.3684211   0.4736842), wk =   0.0139962
        k(   98) = (   0.0526316   0.4210526   0.4210526), wk =   0.0069981
        k(   99) = (   0.0526316   0.4210526   0.4736842), wk =   0.0139962
        k(  100) = (   0.0526316   0.4736842   0.4736842), wk =   0.0069981
        k(  101) = (   0.1052632   0.1052632   0.1052632), wk =   0.0023327
        k(  102) = (   0.1052632   0.1052632   0.1578947), wk =   0.0069981
        k(  103) = (   0.1052632   0.1052632   0.2105263), wk =   0.0069981
        k(  104) = (   0.1052632   0.1052632   0.2631579), wk =   0.0069981
        k(  105) = (   0.1052632   0.1052632   0.3157895), wk =   0.0069981
        k(  106) = (   0.1052632   0.1052632   0.3684211), wk =   0.0069981
        k(  107) = (   0.1052632   0.1052632   0.4210526), wk =   0.0069981
        k(  108) = (   0.1052632   0.1052632   0.4736842), wk =   0.0069981
        k(  109) = (   0.1052632   0.1578947   0.1578947), wk =   0.0069981
        k(  110) = (   0.1052632   0.1578947   0.2105263), wk =   0.0139962
        k(  111) = (   0.1052632   0.1578947   0.2631579), wk =   0.0139962
        k(  112) = (   0.1052632   0.1578947   0.3157895), wk =   0.0139962
        k(  113) = (   0.1052632   0.1578947   0.3684211), wk =   0.0139962
        k(  114) = (   0.1052632   0.1578947   0.4210526), wk =   0.0139962
        k(  115) = (   0.1052632   0.1578947   0.4736842), wk =   0.0139962
        k(  116) = (   0.1052632   0.2105263   0.2105263), wk =   0.0069981
        k(  117) = (   0.1052632   0.2105263   0.2631579), wk =   0.0139962
        k(  118) = (   0.1052632   0.2105263   0.3157895), wk =   0.0139962
        k(  119) = (   0.1052632   0.2105263   0.3684211), wk =   0.0139962
        k(  120) = (   0.1052632   0.2105263   0.4210526), wk =   0.0139962
        k(  121) = (   0.1052632   0.2105263   0.4736842), wk =   0.0139962
        k(  122) = (   0.1052632   0.2631579   0.2631579), wk =   0.0069981
        k(  123) = (   0.1052632   0.2631579   0.3157895), wk =   0.0139962
        k(  124) = (   0.1052632   0.2631579   0.3684211), wk =   0.0139962
        k(  125) = (   0.1052632   0.2631579   0.4210526), wk =   0.0139962
        k(  126) = (   0.1052632   0.2631579   0.4736842), wk =   0.0139962
        k(  127) = (   0.1052632   0.3157895   0.3157895), wk =   0.0069981
        k(  128) = (   0.1052632   0.3157895   0.3684211), wk =   0.0139962
        k(  129) = (   0.1052632   0.3157895   0.4210526), wk =   0.0139962
        k(  130) = (   0.1052632   0.3157895   0.4736842), wk =   0.0139962
        k(  131) = (   0.1052632   0.3684211   0.3684211), wk =   0.0069981
        k(  132) = (   0.1052632   0.3684211   0.4210526), wk =   0.0139962
        k(  133) = (   0.1052632   0.3684211   0.4736842), wk =   0.0139962
        k(  134) = (   0.1052632   0.4210526   0.4210526), wk =   0.0069981
        k(  135) = (   0.1052632   0.4210526   0.4736842), wk =   0.0139962
        k(  136) = (   0.1052632   0.4736842   0.4736842), wk =   0.0069981
        k(  137) = (   0.1578947   0.1578947   0.1578947), wk =   0.0023327
        k(  138) = (   0.1578947   0.1578947   0.2105263), wk =   0.0069981
        k(  139) = (   0.1578947   0.1578947   0.2631579), wk =   0.0069981
        k(  140) = (   0.1578947   0.1578947   0.3157895), wk =   0.0069981
        k(  141) = (   0.1578947   0.1578947   0.3684211), wk =   0.0069981
        k(  142) = (   0.1578947   0.1578947   0.4210526), wk =   0.0069981
        k(  143) = (   0.1578947   0.1578947   0.4736842), wk =   0.0069981
        k(  144) = (   0.1578947   0.2105263   0.2105263), wk =   0.0069981
        k(  145) = (   0.1578947   0.2105263   0.2631579), wk =   0.0139962
        k(  146) = (   0.1578947   0.2105263   0.3157895), wk =   0.0139962
        k(  147) = (   0.1578947   0.2105263   0.3684211), wk =   0.0139962
        k(  148) = (   0.1578947   0.2105263   0.4210526), wk =   0.0139962
        k(  149) = (   0.1578947   0.2105263   0.4736842), wk =   0.0139962
        k(  150) = (   0.1578947   0.2631579   0.2631579), wk =   0.0069981
        k(  151) = (   0.1578947   0.2631579   0.3157895), wk =   0.0139962
        k(  152) = (   0.1578947   0.2631579   0.3684211), wk =   0.0139962
        k(  153) = (   0.1578947   0.2631579   0.4210526), wk =   0.0139962
        k(  154) = (   0.1578947   0.2631579   0.4736842), wk =   0.0139962
        k(  155) = (   0.1578947   0.3157895   0.3157895), wk =   0.0069981
        k(  156) = (   0.1578947   0.3157895   0.3684211), wk =   0.0139962
        k(  157) = (   0.1578947   0.3157895   0.4210526), wk =   0.0139962
        k(  158) = (   0.1578947   0.3157895   0.4736842), wk =   0.0139962
        k(  159) = (   0.1578947   0.3684211   0.3684211), wk =   0.0069981
        k(  160) = (   0.1578947   0.3684211   0.4210526), wk =   0.0139962
        k(  161) = (   0.1578947   0.3684211   0.4736842), wk =   0.0139962
        k(  162) = (   0.1578947   0.4210526   0.4210526), wk =   0.0069981
        k(  163) = (   0.1578947   0.4210526   0.4736842), wk =   0.0139962
        k(  164) = (   0.1578947   0.4736842   0.4736842), wk =   0.0069981
        k(  165) = (   0.2105263   0.2105263   0.2105263), wk =   0.0023327
        k(  166) = (   0.2105263   0.2105263   0.2631579), wk =   0.0069981
        k(  167) = (   0.2105263   0.2105263   0.3157895), wk =   0.0069981
        k(  168) = (   0.2105263   0.2105263   0.3684211), wk =   0.0069981
        k(  169) = (   0.2105263   0.2105263   0.4210526), wk =   0.0069981
        k(  170) = (   0.2105263   0.2105263   0.4736842), wk =   0.0069981
        k(  171) = (   0.2105263   0.2631579   0.2631579), wk =   0.0069981
        k(  172) = (   0.2105263   0.2631579   0.3157895), wk =   0.0139962
        k(  173) = (   0.2105263   0.2631579   0.3684211), wk =   0.0139962
        k(  174) = (   0.2105263   0.2631579   0.4210526), wk =   0.0139962
        k(  175) = (   0.2105263   0.2631579   0.4736842), wk =   0.0139962
        k(  176) = (   0.2105263   0.3157895   0.3157895), wk =   0.0069981
        k(  177) = (   0.2105263   0.3157895   0.3684211), wk =   0.0139962
        k(  178) = (   0.2105263   0.3157895   0.4210526), wk =   0.0139962
        k(  179) = (   0.2105263   0.3157895   0.4736842), wk =   0.0139962
        k(  180) = (   0.2105263   0.3684211   0.3684211), wk =   0.0069981
        k(  181) = (   0.2105263   0.3684211   0.4210526), wk =   0.0139962
        k(  182) = (   0.2105263   0.3684211   0.4736842), wk =   0.0139962
        k(  183) = (   0.2105263   0.4210526   0.4210526), wk =   0.0069981
        k(  184) = (   0.2105263   0.4210526   0.4736842), wk =   0.0139962
        k(  185) = (   0.2105263   0.4736842   0.4736842), wk =   0.0069981
        k(  186) = (   0.2631579   0.2631579   0.2631579), wk =   0.0023327
        k(  187) = (   0.2631579   0.2631579   0.3157895), wk =   0.0069981
        k(  188) = (   0.2631579   0.2631579   0.3684211), wk =   0.0069981
        k(  189) = (   0.2631579   0.2631579   0.4210526), wk =   0.0069981
        k(  190) = (   0.2631579   0.2631579   0.4736842), wk =   0.0069981
        k(  191) = (   0.2631579   0.3157895   0.3157895), wk =   0.0069981
        k(  192) = (   0.2631579   0.3157895   0.3684211), wk =   0.0139962
        k(  193) = (   0.2631579   0.3157895   0.4210526), wk =   0.0139962
        k(  194) = (   0.2631579   0.3157895   0.4736842), wk =   0.0139962
        k(  195) = (   0.2631579   0.3684211   0.3684211), wk =   0.0069981
        k(  196) = (   0.2631579   0.3684211   0.4210526), wk =   0.0139962
        k(  197) = (   0.2631579   0.3684211   0.4736842), wk =   0.0139962
        k(  198) = (   0.2631579   0.4210526   0.4210526), wk =   0.0069981
        k(  199) = (   0.2631579   0.4210526   0.4736842), wk =   0.0139962
        k(  200) = (   0.2631579   0.4736842   0.4736842), wk =   0.0069981
        k(  201) = (   0.3157895   0.3157895   0.3157895), wk =   0.0023327
        k(  202) = (   0.3157895   0.3157895   0.3684211), wk =   0.0069981
        k(  203) = (   0.3157895   0.3157895   0.4210526), wk =   0.0069981
        k(  204) = (   0.3157895   0.3157895   0.4736842), wk =   0.0069981
        k(  205) = (   0.3157895   0.3684211   0.3684211), wk =   0.0069981
        k(  206) = (   0.3157895   0.3684211   0.4210526), wk =   0.0139962
        k(  207) = (   0.3157895   0.3684211   0.4736842), wk =   0.0139962
        k(  208) = (   0.3157895   0.4210526   0.4210526), wk =   0.0069981
        k(  209) = (   0.3157895   0.4210526   0.4736842), wk =   0.0139962
        k(  210) = (   0.3157895   0.4736842   0.4736842), wk =   0.0069981
        k(  211) = (   0.3684211   0.3684211   0.3684211), wk =   0.0023327
        k(  212) = (   0.3684211   0.3684211   0.4210526), wk =   0.0069981
        k(  213) = (   0.3684211   0.3684211   0.4736842), wk =   0.0069981
        k(  214) = (   0.3684211   0.4210526   0.4210526), wk =   0.0069981
        k(  215) = (   0.3684211   0.4210526   0.4736842), wk =   0.0139962
        k(  216) = (   0.3684211   0.4736842   0.4736842), wk =   0.0069981
        k(  217) = (   0.4210526   0.4210526   0.4210526), wk =   0.0023327
        k(  218) = (   0.4210526   0.4210526   0.4736842), wk =   0.0069981
        k(  219) = (   0.4210526   0.4736842   0.4736842), wk =   0.0069981
        k(  220) = (   0.4736842   0.4736842   0.4736842), wk =   0.0023327

                       cryst. coord.
        k(    1) = (   0.0000000   0.0000000   0.0000000), wk =   0.0002916
        k(    2) = (   0.0000000   0.0000000   0.0526316), wk =   0.0017495
        k(    3) = (   0.0000000   0.0000000   0.1052632), wk =   0.0017495
        k(    4) = (   0.0000000   0.0000000   0.1578947), wk =   0.0017495
        k(    5) = (   0.0000000   0.0000000   0.2105263), wk =   0.0017495
        k(    6) = (   0.0000000   0.0000000   0.2631579), wk =   0.0017495
        k(    7) = (   0.0000000   0.0000000   0.3157895), wk =   0.0017495
        k(    8) = (   0.0000000   0.0000000   0.3684211), wk =   0.0017495
        k(    9) = (   0.0000000   0.0000000   0.4210526), wk =   0.0017495
        k(   10) = (   0.0000000   0.0000000   0.4736842), wk =   0.0017495
        k(   11) = (   0.0000000   0.0526316   0.0526316), wk =   0.0034991
        k(   12) = (   0.0000000   0.0526316   0.1052632), wk =   0.0069981
        k(   13) = (   0.0000000   0.0526316   0.1578947), wk =   0.0069981
        k(   14) = (   0.0000000   0.0526316   0.2105263), wk =   0.0069981
        k(   15) = (   0.0000000   0.0526316   0.2631579), wk =   0.0069981
        k(   16) = (   0.0000000   0.0526316   0.3157895), wk =   0.0069981
        k(   17) = (   0.0000000   0.0526316   0.3684211), wk =   0.0069981
        k(   18) = (   0.0000000   0.0526316   0.4210526), wk =   0.0069981
        k(   19) = (   0.0000000   0.0526316   0.4736842), wk =   0.0069981
        k(   20) = (   0.0000000   0.1052632   0.1052632), wk =   0.0034991
        k(   21) = (   0.0000000   0.1052632   0.1578947), wk =   0.0069981
        k(   22) = (   0.0000000   0.1052632   0.2105263), wk =   0.0069981
        k(   23) = (   0.0000000   0.1052632   0.2631579), wk =   0.0069981
        k(   24) = (   0.0000000   0.1052632   0.3157895), wk =   0.0069981
        k(   25) = (   0.0000000   0.1052632   0.3684211), wk =   0.0069981
        k(   26) = (   0.0000000   0.1052632   0.4210526), wk =   0.0069981
        k(   27) = (   0.0000000   0.1052632   0.4736842), wk =   0.0069981
        k(   28) = (   0.0000000   0.1578947   0.1578947), wk =   0.0034991
        k(   29) = (   0.0000000   0.1578947   0.2105263), wk =   0.0069981
        k(   30) = (   0.0000000   0.1578947   0.2631579), wk =   0.0069981
        k(   31) = (   0.0000000   0.1578947   0.3157895), wk =   0.0069981
        k(   32) = (   0.0000000   0.1578947   0.3684211), wk =   0.0069981
        k(   33) = (   0.0000000   0.1578947   0.4210526), wk =   0.0069981
        k(   34) = (   0.0000000   0.1578947   0.4736842), wk =   0.0069981
        k(   35) = (   0.0000000   0.2105263   0.2105263), wk =   0.0034991
        k(   36) = (   0.0000000   0.2105263   0.2631579), wk =   0.0069981
        k(   37) = (   0.0000000   0.2105263   0.3157895), wk =   0.0069981
        k(   38) = (   0.0000000   0.2105263   0.3684211), wk =   0.0069981
        k(   39) = (   0.0000000   0.2105263   0.4210526), wk =   0.0069981
        k(   40) = (   0.0000000   0.2105263   0.4736842), wk =   0.0069981
        k(   41) = (   0.0000000   0.2631579   0.2631579), wk =   0.0034991
        k(   42) = (   0.0000000   0.2631579   0.3157895), wk =   0.0069981
        k(   43) = (   0.0000000   0.2631579   0.3684211), wk =   0.0069981
        k(   44) = (   0.0000000   0.2631579   0.4210526), wk =   0.0069981
        k(   45) = (   0.0000000   0.2631579   0.4736842), wk =   0.0069981
        k(   46) = (   0.0000000   0.3157895   0.3157895), wk =   0.0034991
        k(   47) = (   0.0000000   0.3157895   0.3684211), wk =   0.0069981
        k(   48) = (   0.0000000   0.3157895   0.4210526), wk =   0.0069981
        k(   49) = (   0.0000000   0.3157895   0.4736842), wk =   0.0069981
        k(   50) = (   0.0000000   0.3684211   0.3684211), wk =   0.0034991
        k(   51) = (   0.0000000   0.3684211   0.4210526), wk =   0.0069981
        k(   52) = (   0.0000000   0.3684211   0.4736842), wk =   0.0069981
        k(   53) = (   0.0000000   0.4210526   0.4210526), wk =   0.0034991
        k(   54) = (   0.0000000   0.4210526   0.4736842), wk =   0.0069981
        k(   55) = (   0.0000000   0.4736842   0.4736842), wk =   0.0034991
        k(   56) = (   0.0526316   0.0526316   0.0526316), wk =   0.0023327
        k(   57) = (   0.0526316   0.0526316   0.1052632), wk =   0.0069981
        k(   58) = (   0.0526316   0.0526316   0.1578947), wk =   0.0069981
        k(   59) = (   0.0526316   0.0526316   0.2105263), wk =   0.0069981
        k(   60) = (   0.0526316   0.0526316   0.2631579), wk =   0.0069981
        k(   61) = (   0.0526316   0.0526316   0.3157895), wk =   0.0069981
        k(   62) = (   0.0526316   0.0526316   0.3684211), wk =   0.0069981
        k(   63) = (   0.0526316   0.0526316   0.4210526), wk =   0.0069981
        k(   64) = (   0.0526316   0.0526316   0.4736842), wk =   0.0069981
        k(   65) = (   0.0526316   0.1052632   0.1052632), wk =   0.0069981
        k(   66) = (   0.0526316   0.1052632   0.1578947), wk =   0.0139962
        k(   67) = (   0.0526316   0.1052632   0.2105263), wk =   0.0139962
        k(   68) = (   0.0526316   0.1052632   0.2631579), wk =   0.0139962
        k(   69) = (   0.0526316   0.1052632   0.3157895), wk =   0.0139962
        k(   70) = (   0.0526316   0.1052632   0.3684211), wk =   0.0139962
        k(   71) = (   0.0526316   0.1052632   0.4210526), wk =   0.0139962
        k(   72) = (   0.0526316   0.1052632   0.4736842), wk =   0.0139962
        k(   73) = (   0.0526316   0.1578947   0.1578947), wk =   0.0069981
        k(   74) = (   0.0526316   0.1578947   0.2105263), wk =   0.0139962
        k(   75) = (   0.0526316   0.1578947   0.2631579), wk =   0.0139962
        k(   76) = (   0.0526316   0.1578947   0.3157895), wk =   0.0139962
        k(   77) = (   0.0526316   0.1578947   0.3684211), wk =   0.0139962
        k(   78) = (   0.0526316   0.1578947   0.4210526), wk =   0.0139962
        k(   79) = (   0.0526316   0.1578947   0.4736842), wk =   0.0139962
        k(   80) = (   0.0526316   0.2105263   0.2105263), wk =   0.0069981
        k(   81) = (   0.0526316   0.2105263   0.2631579), wk =   0.0139962
        k(   82) = (   0.0526316   0.2105263   0.3157895), wk =   0.0139962
        k(   83) = (   0.0526316   0.2105263   0.3684211), wk =   0.0139962
        k(   84) = (   0.0526316   0.2105263   0.4210526), wk =   0.0139962
        k(   85) = (   0.0526316   0.2105263   0.4736842), wk =   0.0139962
        k(   86) = (   0.0526316   0.2631579   0.2631579), wk =   0.0069981
        k(   87) = (   0.0526316   0.2631579   0.3157895), wk =   0.0139962
        k(   88) = (   0.0526316   0.2631579   0.3684211), wk =   0.0139962
        k(   89) = (   0.0526316   0.2631579   0.4210526), wk =   0.0139962
        k(   90) = (   0.0526316   0.2631579   0.4736842), wk =   0.0139962
        k(   91) = (   0.0526316   0.3157895   0.3157895), wk =   0.0069981
        k(   92) = (   0.0526316   0.3157895   0.3684211), wk =   0.0139962
        k(   93) = (   0.0526316   0.3157895   0.4210526), wk =   0.0139962
        k(   94) = (   0.0526316   0.3157895   0.4736842), wk =   0.0139962
        k(   95) = (   0.0526316   0.3684211   0.3684211), wk =   0.0069981
        k(   96) = (   0.0526316   0.3684211   0.4210526), wk =   0.0139962
        k(   97) = (   0.0526316   0.3684211   0.4736842), wk =   0.0139962
        k(   98) = (   0.0526316   0.4210526   0.4210526), wk =   0.0069981
        k(   99) = (   0.0526316   0.4210526   0.4736842), wk =   0.0139962
        k(  100) = (   0.0526316   0.4736842   0.4736842), wk =   0.0069981
        k(  101) = (   0.1052632   0.1052632   0.1052632), wk =   0.0023327
        k(  102) = (   0.1052632   0.1052632   0.1578947), wk =   0.0069981
        k(  103) = (   0.1052632   0.1052632   0.2105263), wk =   0.0069981
        k(  104) = (   0.1052632   0.1052632   0.2631579), wk =   0.0069981
        k(  105) = (   0.1052632   0.1052632   0.3157895), wk =   0.0069981
        k(  106) = (   0.1052632   0.1052632   0.3684211), wk =   0.0069981
        k(  107) = (   0.1052632   0.1052632   0.4210526), wk =   0.0069981
        k(  108) = (   0.1052632   0.1052632   0.4736842), wk =   0.0069981
        k(  109) = (   0.1052632   0.1578947   0.1578947), wk =   0.0069981
        k(  110) = (   0.1052632   0.1578947   0.2105263), wk =   0.0139962
        k(  111) = (   0.1052632   0.1578947   0.2631579), wk =   0.0139962
        k(  112) = (   0.1052632   0.1578947   0.3157895), wk =   0.0139962
        k(  113) = (   0.1052632   0.1578947   0.3684211), wk =   0.0139962
        k(  114) = (   0.1052632   0.1578947   0.4210526), wk =   0.0139962
        k(  115) = (   0.1052632   0.1578947   0.4736842), wk =   0.0139962
        k(  116) = (   0.1052632   0.2105263   0.2105263), wk =   0.0069981
        k(  117) = (   0.1052632   0.2105263   0.2631579), wk =   0.0139962
        k(  118) = (   0.1052632   0.2105263   0.3157895), wk =   0.0139962
        k(  119) = (   0.1052632   0.2105263   0.3684211), wk =   0.0139962
        k(  120) = (   0.1052632   0.2105263   0.4210526), wk =   0.0139962
        k(  121) = (   0.1052632   0.2105263   0.4736842), wk =   0.0139962
        k(  122) = (   0.1052632   0.2631579   0.2631579), wk =   0.0069981
        k(  123) = (   0.1052632   0.2631579   0.3157895), wk =   0.0139962
        k(  124) = (   0.1052632   0.2631579   0.3684211), wk =   0.0139962
        k(  125) = (   0.1052632   0.2631579   0.4210526), wk =   0.0139962
        k(  126) = (   0.1052632   0.2631579   0.4736842), wk =   0.0139962
        k(  127) = (   0.1052632   0.3157895   0.3157895), wk =   0.0069981
        k(  128) = (   0.1052632   0.3157895   0.3684211), wk =   0.0139962
        k(  129) = (   0.1052632   0.3157895   0.4210526), wk =   0.0139962
        k(  130) = (   0.1052632   0.3157895   0.4736842), wk =   0.0139962
        k(  131) = (   0.1052632   0.3684211   0.3684211), wk =   0.0069981
        k(  132) = (   0.1052632   0.3684211   0.4210526), wk =   0.0139962
        k(  133) = (   0.1052632   0.3684211   0.4736842), wk =   0.0139962
        k(  134) = (   0.1052632   0.4210526   0.4210526), wk =   0.0069981
        k(  135) = (   0.1052632   0.4210526   0.4736842), wk =   0.0139962
        k(  136) = (   0.1052632   0.4736842   0.4736842), wk =   0.0069981
        k(  137) = (   0.1578947   0.1578947   0.1578947), wk =   0.0023327
        k(  138) = (   0.1578947   0.1578947   0.2105263), wk =   0.0069981
        k(  139) = (   0.1578947   0.1578947   0.2631579), wk =   0.0069981
        k(  140) = (   0.1578947   0.1578947   0.3157895), wk =   0.0069981
        k(  141) = (   0.1578947   0.1578947   0.3684211), wk =   0.0069981
        k(  142) = (   0.1578947   0.1578947   0.4210526), wk =   0.0069981
        k(  143) = (   0.1578947   0.1578947   0.4736842), wk =   0.0069981
        k(  144) = (   0.1578947   0.2105263   0.2105263), wk =   0.0069981
        k(  145) = (   0.1578947   0.2105263   0.2631579), wk =   0.0139962
        k(  146) = (   0.1578947   0.2105263   0.3157895), wk =   0.0139962
        k(  147) = (   0.1578947   0.2105263   0.3684211), wk =   0.0139962
        k(  148) = (   0.1578947   0.2105263   0.4210526), wk =   0.0139962
        k(  149) = (   0.1578947   0.2105263   0.4736842), wk =   0.0139962
        k(  150) = (   0.1578947   0.2631579   0.2631579), wk =   0.0069981
        k(  151) = (   0.1578947   0.2631579   0.3157895), wk =   0.0139962
        k(  152) = (   0.1578947   0.2631579   0.3684211), wk =   0.0139962
        k(  153) = (   0.1578947   0.2631579   0.4210526), wk =   0.0139962
        k(  154) = (   0.1578947   0.2631579   0.4736842), wk =   0.0139962
        k(  155) = (   0.1578947   0.3157895   0.3157895), wk =   0.0069981
        k(  156) = (   0.1578947   0.3157895   0.3684211), wk =   0.0139962
        k(  157) = (   0.1578947   0.3157895   0.4210526), wk =   0.0139962
        k(  158) = (   0.1578947   0.3157895   0.4736842), wk =   0.0139962
        k(  159) = (   0.1578947   0.3684211   0.3684211), wk =   0.0069981
        k(  160) = (   0.1578947   0.3684211   0.4210526), wk =   0.0139962
        k(  161) = (   0.1578947   0.3684211   0.4736842), wk =   0.0139962
        k(  162) = (   0.1578947   0.4210526   0.4210526), wk =   0.0069981
        k(  163) = (   0.1578947   0.4210526   0.4736842), wk =   0.0139962
        k(  164) = (   0.1578947   0.4736842   0.4736842), wk =   0.0069981
        k(  165) = (   0.2105263   0.2105263   0.2105263), wk =   0.0023327
        k(  166) = (   0.2105263   0.2105263   0.2631579), wk =   0.0069981
        k(  167) = (   0.2105263   0.2105263   0.3157895), wk =   0.0069981
        k(  168) = (   0.2105263   0.2105263   0.3684211), wk =   0.0069981
        k(  169) = (   0.2105263   0.2105263   0.4210526), wk =   0.0069981
        k(  170) = (   0.2105263   0.2105263   0.4736842), wk =   0.0069981
        k(  171) = (   0.2105263   0.2631579   0.2631579), wk =   0.0069981
        k(  172) = (   0.2105263   0.2631579   0.3157895), wk =   0.0139962
        k(  173) = (   0.2105263   0.2631579   0.3684211), wk =   0.0139962
        k(  174) = (   0.2105263   0.2631579   0.4210526), wk =   0.0139962
        k(  175) = (   0.2105263   0.2631579   0.4736842), wk =   0.0139962
        k(  176) = (   0.2105263   0.3157895   0.3157895), wk =   0.0069981
        k(  177) = (   0.2105263   0.3157895   0.3684211), wk =   0.0139962
        k(  178) = (   0.2105263   0.3157895   0.4210526), wk =   0.0139962
        k(  179) = (   0.2105263   0.3157895   0.4736842), wk =   0.0139962
        k(  180) = (   0.2105263   0.3684211   0.3684211), wk =   0.0069981
        k(  181) = (   0.2105263   0.3684211   0.4210526), wk =   0.0139962
        k(  182) = (   0.2105263   0.3684211   0.4736842), wk =   0.0139962
        k(  183) = (   0.2105263   0.4210526   0.4210526), wk =   0.0069981
        k(  184) = (   0.2105263   0.4210526   0.4736842), wk =   0.0139962
        k(  185) = (   0.2105263   0.4736842   0.4736842), wk =   0.0069981
        k(  186) = (   0.2631579   0.2631579   0.2631579), wk =   0.0023327
        k(  187) = (   0.2631579   0.2631579   0.3157895), wk =   0.0069981
        k(  188) = (   0.2631579   0.2631579   0.3684211), wk =   0.0069981
        k(  189) = (   0.2631579   0.2631579   0.4210526), wk =   0.0069981
        k(  190) = (   0.2631579   0.2631579   0.4736842), wk =   0.0069981
        k(  191) = (   0.2631579   0.3157895   0.3157895), wk =   0.0069981
        k(  192) = (   0.2631579   0.3157895   0.3684211), wk =   0.0139962
        k(  193) = (   0.2631579   0.3157895   0.4210526), wk =   0.0139962
        k(  194) = (   0.2631579   0.3157895   0.4736842), wk =   0.0139962
        k(  195) = (   0.2631579   0.3684211   0.3684211), wk =   0.0069981
        k(  196) = (   0.2631579   0.3684211   0.4210526), wk =   0.0139962
        k(  197) = (   0.2631579   0.3684211   0.4736842), wk =   0.0139962
        k(  198) = (   0.2631579   0.4210526   0.4210526), wk =   0.0069981
        k(  199) = (   0.2631579   0.4210526   0.4736842), wk =   0.0139962
        k(  200) = (   0.2631579   0.4736842   0.4736842), wk =   0.0069981
        k(  201) = (   0.3157895   0.3157895   0.3157895), wk =   0.0023327
        k(  202) = (   0.3157895   0.3157895   0.3684211), wk =   0.0069981
        k(  203) = (   0.3157895   0.3157895   0.4210526), wk =   0.0069981
        k(  204) = (   0.3157895   0.3157895   0.4736842), wk =   0.0069981
        k(  205) = (   0.3157895   0.3684211   0.3684211), wk =   0.0069981
        k(  206) = (   0.3157895   0.3684211   0.4210526), wk =   0.0139962
        k(  207) = (   0.3157895   0.3684211   0.4736842), wk =   0.0139962
        k(  208) = (   0.3157895   0.4210526   0.4210526), wk =   0.0069981
        k(  209) = (   0.3157895   0.4210526   0.4736842), wk =   0.0139962
        k(  210) = (   0.3157895   0.4736842   0.4736842), wk =   0.0069981
        k(  211) = (   0.3684211   0.3684211   0.3684211), wk =   0.0023327
        k(  212) = (   0.3684211   0.3684211   0.4210526), wk =   0.0069981
        k(  213) = (   0.3684211   0.3684211   0.4736842), wk =   0.0069981
        k(  214) = (   0.3684211   0.4210526   0.4210526), wk =   0.0069981
        k(  215) = (   0.3684211   0.4210526   0.4736842), wk =   0.0139962
        k(  216) = (   0.3684211   0.4736842   0.4736842), wk =   0.0069981
        k(  217) = (   0.4210526   0.4210526   0.4210526), wk =   0.0023327
        k(  218) = (   0.4210526   0.4210526   0.4736842), wk =   0.0069981
        k(  219) = (   0.4210526   0.4736842   0.4736842), wk =   0.0069981
        k(  220) = (   0.4736842   0.4736842   0.4736842), wk =   0.0023327

     Dense  grid:   105015 G-vectors     FFT dimensions: (  60,  60,  60)

     Smooth grid:    26745 G-vectors     FFT dimensions: (  40,  40,  40)

     Dynamical RAM for                 wfc:       0.02 MB

     Dynamical RAM for     wfc (w. buffer):       0.18 MB

     Dynamical RAM for           str. fact:       0.10 MB

     Dynamical RAM for           local pot:       0.00 MB

     Dynamical RAM for          nlocal pot:       0.05 MB

     Dynamical RAM for                qrad:       0.65 MB

     Dynamical RAM for          rho,v,vnew:       0.63 MB

     Dynamical RAM for               rhoin:       0.21 MB

     Dynamical RAM for            rho*nmix:       1.60 MB

     Dynamical RAM for           G-vectors:       0.39 MB

     Dynamical RAM for          h,s,v(r/c):       0.04 MB

     Dynamical RAM for          <psi|beta>:       0.00 MB

     Dynamical RAM for                 psi:       0.09 MB

     Dynamical RAM for                hpsi:       0.09 MB

     Dynamical RAM for                spsi:       0.09 MB

     Dynamical RAM for      wfcinit/wfcrot:       0.05 MB

     Dynamical RAM for           addusdens:       0.24 MB

     Dynamical RAM for          addusforce:       0.20 MB

     Estimated static dynamical RAM per process >       2.95 MB

     Estimated max dynamical RAM per process >       4.86 MB

     Estimated total dynamical RAM >       1.65 GB

     Initial potential from superposition of free atoms

     starting charge       5.9908, renormalised to       6.0000
     Starting wfcs are random
     Checking if some PAW data can be deallocated... 

     total cpu time spent up to now is        1.5 secs

     Self-consistent Calculation

     iteration #  1     ecut=    80.00 Ry     beta= 0.80
     Davidson diagonalization with overlap

---- Real-time Memory Report at c_bands before calling an iterative solver
           139 MiB given to the printing process from OS
             0 MiB allocation reported by mallinfo(arena+hblkhd)
        228355 MiB available memory on the node where the printing process lives
------------------
     c_bands:  2 eigenvalues not converged
     c_bands:  3 eigenvalues not converged
     c_bands:  3 eigenvalues not converged
     c_bands:  1 eigenvalues not converged
     c_bands:  2 eigenvalues not converged
     c_bands:  3 eigenvalues not converged
     c_bands:  2 eigenvalues not converged
     ethr =  1.00E-12,  avg # of iterations = 20.0

     total cpu time spent up to now is        1.9 secs

     total energy              =     -30.08820334 Ry
     estimated scf accuracy    <       0.00062868 Ry

     iteration #  2     ecut=    80.00 Ry     beta= 0.80
     Davidson diagonalization with overlap

---- Real-time Memory Report at c_bands before calling an iterative solver
           144 MiB given to the printing process from OS
             0 MiB allocation reported by mallinfo(arena+hblkhd)
        227970 MiB available memory on the node where the printing process lives
------------------
     ethr =  1.05E-05,  avg # of iterations =  1.5

     total cpu time spent up to now is        2.0 secs

     total energy              =     -30.08822465 Ry
     estimated scf accuracy    <       0.00001525 Ry

     iteration #  3     ecut=    80.00 Ry     beta= 0.80
     Davidson diagonalization with overlap

---- Real-time Memory Report at c_bands before calling an iterative solver
           145 MiB given to the printing process from OS
             0 MiB allocation reported by mallinfo(arena+hblkhd)
        227959 MiB available memory on the node where the printing process lives
------------------
     ethr =  2.54E-07,  avg # of iterations =  3.7

     total cpu time spent up to now is        2.1 secs

     total energy              =     -30.08823796 Ry
     estimated scf accuracy    <       0.00000211 Ry

     iteration #  4     ecut=    80.00 Ry     beta= 0.80
     Davidson diagonalization with overlap

---- Real-time Memory Report at c_bands before calling an iterative solver
           145 MiB given to the printing process from OS
             0 MiB allocation reported by mallinfo(arena+hblkhd)
        227953 MiB available memory on the node where the printing process lives
------------------
     ethr =  3.51E-08,  avg # of iterations =  3.4

     total cpu time spent up to now is        2.2 secs

     total energy              =     -30.08823719 Ry
     estimated scf accuracy    <       0.00000230 Ry

     iteration #  5     ecut=    80.00 Ry     beta= 0.80
     Davidson diagonalization with overlap

---- Real-time Memory Report at c_bands before calling an iterative solver
           145 MiB given to the printing process from OS
             0 MiB allocation reported by mallinfo(arena+hblkhd)
        227949 MiB available memory on the node where the printing process lives
------------------
     ethr =  3.51E-08,  avg # of iterations =  1.0

     total cpu time spent up to now is        2.2 secs

     total energy              =     -30.08823734 Ry
     estimated scf accuracy    <          6.6E-09 Ry

     iteration #  6     ecut=    80.00 Ry     beta= 0.80
     Davidson diagonalization with overlap

---- Real-time Memory Report at c_bands before calling an iterative solver
           146 MiB given to the printing process from OS
             0 MiB allocation reported by mallinfo(arena+hblkhd)
        227946 MiB available memory on the node where the printing process lives
------------------
     ethr =  1.10E-10,  avg # of iterations =  5.9

     total cpu time spent up to now is        2.3 secs

     total energy              =     -30.08823743 Ry
     estimated scf accuracy    <          5.3E-09 Ry

     iteration #  7     ecut=    80.00 Ry     beta= 0.80
     Davidson diagonalization with overlap

---- Real-time Memory Report at c_bands before calling an iterative solver
           146 MiB given to the printing process from OS
             0 MiB allocation reported by mallinfo(arena+hblkhd)
        227944 MiB available memory on the node where the printing process lives
------------------
     ethr =  8.87E-11,  avg # of iterations =  1.0

     total cpu time spent up to now is        2.4 secs

     total energy              =     -30.08823743 Ry
     estimated scf accuracy    <          2.6E-09 Ry

     iteration #  8     ecut=    80.00 Ry     beta= 0.80
     Davidson diagonalization with overlap

---- Real-time Memory Report at c_bands before calling an iterative solver
           146 MiB given to the printing process from OS
             0 MiB allocation reported by mallinfo(arena+hblkhd)
        227942 MiB available memory on the node where the printing process lives
------------------
     ethr =  4.40E-11,  avg # of iterations =  1.1

     total cpu time spent up to now is        2.5 secs

     total energy              =     -30.08823743 Ry
     estimated scf accuracy    <          3.6E-10 Ry

     iteration #  9     ecut=    80.00 Ry     beta= 0.80
     Davidson diagonalization with overlap

---- Real-time Memory Report at c_bands before calling an iterative solver
           147 MiB given to the printing process from OS
             0 MiB allocation reported by mallinfo(arena+hblkhd)
        227941 MiB available memory on the node where the printing process lives
------------------
     ethr =  5.94E-12,  avg # of iterations =  3.4

     total cpu time spent up to now is        2.5 secs

     total energy              =     -30.08823743 Ry
     estimated scf accuracy    <          2.6E-12 Ry

     iteration # 10     ecut=    80.00 Ry     beta= 0.80
     Davidson diagonalization with overlap

---- Real-time Memory Report at c_bands before calling an iterative solver
           147 MiB given to the printing process from OS
             0 MiB allocation reported by mallinfo(arena+hblkhd)
        227943 MiB available memory on the node where the printing process lives
------------------
     ethr =  1.00E-13,  avg # of iterations =  4.3

     total cpu time spent up to now is        2.6 secs

     total energy              =     -30.08823743 Ry
     estimated scf accuracy    <          2.2E-12 Ry

     iteration # 11     ecut=    80.00 Ry     beta= 0.80
     Davidson diagonalization with overlap

---- Real-time Memory Report at c_bands before calling an iterative solver
           147 MiB given to the printing process from OS
             0 MiB allocation reported by mallinfo(arena+hblkhd)
        227942 MiB available memory on the node where the printing process lives
------------------
     ethr =  1.00E-13,  avg # of iterations =  1.0

     total cpu time spent up to now is        2.7 secs

     total energy              =     -30.08823743 Ry
     estimated scf accuracy    <          1.5E-11 Ry

     iteration # 12     ecut=    80.00 Ry     beta= 0.80
     Davidson diagonalization with overlap

---- Real-time Memory Report at c_bands before calling an iterative solver
           148 MiB given to the printing process from OS
             0 MiB allocation reported by mallinfo(arena+hblkhd)
        227943 MiB available memory on the node where the printing process lives
------------------
     ethr =  1.00E-13,  avg # of iterations =  1.0

     total cpu time spent up to now is        2.8 secs

     total energy              =     -30.08823743 Ry
     estimated scf accuracy    <          1.4E-11 Ry

     iteration # 13     ecut=    80.00 Ry     beta= 0.80
     Davidson diagonalization with overlap

---- Real-time Memory Report at c_bands before calling an iterative solver
           148 MiB given to the printing process from OS
             0 MiB allocation reported by mallinfo(arena+hblkhd)
        227944 MiB available memory on the node where the printing process lives
------------------
     ethr =  1.00E-13,  avg # of iterations =  1.0

     total cpu time spent up to now is        2.8 secs

     total energy              =     -30.08823743 Ry
     estimated scf accuracy    <          1.5E-12 Ry

     iteration # 14     ecut=    80.00 Ry     beta= 0.80
     Davidson diagonalization with overlap

---- Real-time Memory Report at c_bands before calling an iterative solver
           148 MiB given to the printing process from OS
             0 MiB allocation reported by mallinfo(arena+hblkhd)
        227947 MiB available memory on the node where the printing process lives
------------------
     ethr =  1.00E-13,  avg # of iterations =  1.0

     total cpu time spent up to now is        2.9 secs

     total energy              =     -30.08823743 Ry
     estimated scf accuracy    <          1.6E-12 Ry

     iteration # 15     ecut=    80.00 Ry     beta= 0.80
     Davidson diagonalization with overlap

---- Real-time Memory Report at c_bands before calling an iterative solver
           149 MiB given to the printing process from OS
             0 MiB allocation reported by mallinfo(arena+hblkhd)
        227949 MiB available memory on the node where the printing process lives
------------------
     ethr =  1.00E-13,  avg # of iterations =  1.0

     total cpu time spent up to now is        2.9 secs

     total energy              =     -30.08823743 Ry
     estimated scf accuracy    <          5.5E-13 Ry

     iteration # 16     ecut=    80.00 Ry     beta= 0.80
     Davidson diagonalization with overlap

---- Real-time Memory Report at c_bands before calling an iterative solver
           149 MiB given to the printing process from OS
             0 MiB allocation reported by mallinfo(arena+hblkhd)
        227950 MiB available memory on the node where the printing process lives
------------------
     ethr =  1.00E-13,  avg # of iterations =  1.0

     total cpu time spent up to now is        3.0 secs

     total energy              =     -30.08823743 Ry
     estimated scf accuracy    <          8.5E-14 Ry

     iteration # 17     ecut=    80.00 Ry     beta= 0.80
     Davidson diagonalization with overlap

---- Real-time Memory Report at c_bands before calling an iterative solver
           149 MiB given to the printing process from OS
             0 MiB allocation reported by mallinfo(arena+hblkhd)
        227952 MiB available memory on the node where the printing process lives
------------------
     ethr =  1.00E-13,  avg # of iterations =  1.0

     total cpu time spent up to now is        3.0 secs

     total energy              =     -30.08823743 Ry
     estimated scf accuracy    <          5.6E-14 Ry

     iteration # 18     ecut=    80.00 Ry     beta= 0.80
     Davidson diagonalization with overlap

---- Real-time Memory Report at c_bands before calling an iterative solver
           149 MiB given to the printing process from OS
             0 MiB allocation reported by mallinfo(arena+hblkhd)
        227956 MiB available memory on the node where the printing process lives
------------------
     ethr =  1.00E-13,  avg # of iterations =  1.0

     total cpu time spent up to now is        3.1 secs

     total energy              =     -30.08823743 Ry
     estimated scf accuracy    <          1.2E-14 Ry

     iteration # 19     ecut=    80.00 Ry     beta= 0.80
     Davidson diagonalization with overlap

---- Real-time Memory Report at c_bands before calling an iterative solver
           149 MiB given to the printing process from OS
             0 MiB allocation reported by mallinfo(arena+hblkhd)
        227959 MiB available memory on the node where the printing process lives
------------------
     ethr =  1.00E-13,  avg # of iterations =  1.0

     total cpu time spent up to now is        3.2 secs

     total energy              =     -30.08823743 Ry
     estimated scf accuracy    <          2.9E-14 Ry

     iteration # 20     ecut=    80.00 Ry     beta= 0.80
     Davidson diagonalization with overlap

---- Real-time Memory Report at c_bands before calling an iterative solver
           149 MiB given to the printing process from OS
             0 MiB allocation reported by mallinfo(arena+hblkhd)
        227961 MiB available memory on the node where the printing process lives
------------------
     ethr =  1.00E-13,  avg # of iterations =  1.0

     total cpu time spent up to now is        3.2 secs

     total energy              =     -30.08823743 Ry
     estimated scf accuracy    <          1.9E-14 Ry

     iteration # 21     ecut=    80.00 Ry     beta= 0.80
     Davidson diagonalization with overlap

---- Real-time Memory Report at c_bands before calling an iterative solver
           149 MiB given to the printing process from OS
             0 MiB allocation reported by mallinfo(arena+hblkhd)
        227965 MiB available memory on the node where the printing process lives
------------------
     ethr =  1.00E-13,  avg # of iterations =  1.0

     total cpu time spent up to now is        3.3 secs

     total energy              =     -30.08823743 Ry
     estimated scf accuracy    <          1.9E-14 Ry

     iteration # 22     ecut=    80.00 Ry     beta= 0.80
     Davidson diagonalization with overlap

---- Real-time Memory Report at c_bands before calling an iterative solver
           149 MiB given to the printing process from OS
             0 MiB allocation reported by mallinfo(arena+hblkhd)
        227970 MiB available memory on the node where the printing process lives
------------------
     ethr =  1.00E-13,  avg # of iterations =  1.0

     total cpu time spent up to now is        3.3 secs

     total energy              =     -30.08823743 Ry
     estimated scf accuracy    <          1.4E-14 Ry

     iteration # 23     ecut=    80.00 Ry     beta= 0.80
     Davidson diagonalization with overlap

---- Real-time Memory Report at c_bands before calling an iterative solver
           150 MiB given to the printing process from OS
             0 MiB allocation reported by mallinfo(arena+hblkhd)
        227979 MiB available memory on the node where the printing process lives
------------------
     ethr =  1.00E-13,  avg # of iterations =  1.0

     total cpu time spent up to now is        3.4 secs

     total energy              =     -30.08823743 Ry
     estimated scf accuracy    <          1.3E-14 Ry

     iteration # 24     ecut=    80.00 Ry     beta= 0.80
     Davidson diagonalization with overlap

---- Real-time Memory Report at c_bands before calling an iterative solver
           150 MiB given to the printing process from OS
             0 MiB allocation reported by mallinfo(arena+hblkhd)
        227983 MiB available memory on the node where the printing process lives
------------------
     ethr =  1.00E-13,  avg # of iterations =  1.0

     total cpu time spent up to now is        3.5 secs

     total energy              =     -30.08823743 Ry
     estimated scf accuracy    <          1.2E-14 Ry

     iteration # 25     ecut=    80.00 Ry     beta= 0.80
     Davidson diagonalization with overlap

---- Real-time Memory Report at c_bands before calling an iterative solver
           150 MiB given to the printing process from OS
             0 MiB allocation reported by mallinfo(arena+hblkhd)
        227985 MiB available memory on the node where the printing process lives
------------------
     ethr =  1.00E-13,  avg # of iterations =  1.0

     total cpu time spent up to now is        3.5 secs

     total energy              =     -30.08823743 Ry
     estimated scf accuracy    <          1.1E-14 Ry

     iteration # 26     ecut=    80.00 Ry     beta= 0.80
     Davidson diagonalization with overlap

---- Real-time Memory Report at c_bands before calling an iterative solver
           150 MiB given to the printing process from OS
             0 MiB allocation reported by mallinfo(arena+hblkhd)
        227988 MiB available memory on the node where the printing process lives
------------------
     ethr =  1.00E-13,  avg # of iterations =  1.0

     total cpu time spent up to now is        3.6 secs

     End of self-consistent calculation

          k = 0.0000 0.0000 0.0000 (  3287 PWs)   bands (ev):

   -45.6218 -45.5898  -2.6650   6.4098   6.4098   6.4098   8.6601

     occupation numbers 
     1.0000   1.0000   1.0000   0.0000   0.0000   0.0000   0.0000

          k = 0.0000 0.0000 0.0526 (  3311 PWs)   bands (ev):

   -45.6215 -45.5899  -2.6387   5.9907   6.4437   6.4437   8.6953

     occupation numbers 
     1.0000   1.0000   1.0000   0.0000   0.0000   0.0000   0.0000

          k = 0.0000 0.0000 0.1053 (  3311 PWs)   bands (ev):

   -45.6208 -45.5905  -2.5600   5.1802   6.5451   6.5451   8.8009

     occupation numbers 
     1.0000   1.0000   1.0000   0.0000   0.0000   0.0000   0.0000

          k = 0.0000 0.0000 0.1579 (  3303 PWs)   bands (ev):

   -45.6195 -45.5913  -2.4285   4.3115   6.7140   6.7140   8.9768

     occupation numbers 
     1.0000   1.0000   1.0000   0.0000   0.0000   0.0000   0.0000

          k = 0.0000 0.0000 0.2105 (  3311 PWs)   bands (ev):

   -45.6178 -45.5926  -2.2438   3.4650   6.9500   6.9500   9.2231

     occupation numbers 
     1.0000   1.0000   1.0000   0.0000   0.0000   0.0000   0.0000

          k = 0.0000 0.0000 0.2632 (  3322 PWs)   bands (ev):

   -45.6158 -45.5941  -2.0055   2.6635   7.2529   7.2529   9.5397

     occupation numbers 
     1.0000   1.0000   1.0000   0.0000   0.0000   0.0000   0.0000

          k = 0.0000 0.0000 0.3158 (  3342 PWs)   bands (ev):

   -45.6135 -45.5960  -1.7129   1.9154   7.6220   7.6220   9.9267

     occupation numbers 
     1.0000   1.0000   1.0000   0.0000   0.0000   0.0000   0.0000

          k = 0.0000 0.0000 0.3684 (  3346 PWs)   bands (ev):

   -45.6109 -45.5981  -1.3653   1.2240   8.0565   8.0565  10.3841

     occupation numbers 
     1.0000   1.0000   1.0000   0.0001   0.0000   0.0000   0.0000

          k = 0.0000 0.0000 0.4211 (  3322 PWs)   bands (ev):

   -45.6083 -45.6004  -0.9619   0.5906   8.5553   8.5553  10.4165

     occupation numbers 
     1.0000   1.0000   1.0000   1.0167   0.0000   0.0000   0.0000

          k = 0.0000 0.0000 0.4737 (  3346 PWs)   bands (ev):

   -45.6056 -45.6030  -0.5019   0.0154   9.1167   9.1167   9.7383

     occupation numbers 
     1.0000   1.0000   1.0000   1.0000   0.0000   0.0000   0.0000

          k = 0.0000 0.0526 0.0526 (  3311 PWs)   bands (ev):

   -45.6213 -45.5901  -2.6125   5.8638   6.2055   6.4775   8.9610

     occupation numbers 
     1.0000   1.0000   1.0000   0.0000   0.0000   0.0000   0.0000

          k = 0.0000 0.0526 0.1053 (  3319 PWs)   bands (ev):

   -45.6205 -45.5906  -2.5338   5.1594   6.2206   6.5788   9.1453

     occupation numbers 
     1.0000   1.0000   1.0000   0.0000   0.0000   0.0000   0.0000

          k = 0.0000 0.0526 0.1579 (  3306 PWs)   bands (ev):

   -45.6193 -45.5915  -2.4023   4.3125   6.3782   6.7476   9.3322

     occupation numbers 
     1.0000   1.0000   1.0000   0.0000   0.0000   0.0000   0.0000

          k = 0.0000 0.0526 0.2105 (  3301 PWs)   bands (ev):

   -45.6176 -45.5927  -2.2177   3.4755   6.6106   6.9835   9.5803

     occupation numbers 
     1.0000   1.0000   1.0000   0.0000   0.0000   0.0000   0.0000

          k = 0.0000 0.0526 0.2632 (  3313 PWs)   bands (ev):

   -45.6156 -45.5942  -1.9795   2.6794   6.9117   7.2862   9.8959

     occupation numbers 
     1.0000   1.0000   1.0000   0.0000   0.0000   0.0000   0.0000

          k = 0.0000 0.0526 0.3158 (  3320 PWs)   bands (ev):

   -45.6133 -45.5960  -1.6870   1.9346   7.2796   7.6550  10.2800

     occupation numbers 
     1.0000   1.0000   1.0000   0.0000   0.0000   0.0000   0.0000

          k = 0.0000 0.0526 0.3684 (  3324 PWs)   bands (ev):

   -45.6108 -45.5981  -1.3397   1.2454   7.7133   8.0891  10.7329

     occupation numbers 
     1.0000   1.0000   1.0000   0.0000   0.0000   0.0000   0.0000

          k = 0.0000 0.0526 0.4211 (  3329 PWs)   bands (ev):

   -45.6082 -45.6004  -0.9366   0.6135   8.2114   8.5873  10.0725

     occupation numbers 
     1.0000   1.0000   1.0000   1.0267   0.0000   0.0000   0.0000

          k = 0.0000 0.0526 0.4737 (  3334 PWs)   bands (ev):

   -45.6055 -45.6029  -0.4772   0.0394   8.7724   9.1478   9.3939

     occupation numbers 
     1.0000   1.0000   1.0000   1.0000   0.0000   0.0000   0.0000

          k = 0.0000 0.1053 0.1053 (  3309 PWs)   bands (ev):

[...]

     occupation numbers 
     1.0000   1.0000   1.0169   0.0288   0.0000   0.0000   0.0000

          k = 0.1579 0.3684 0.3684 (  3318 PWs)   bands (ev):

   -45.6052 -45.6007   0.1123   1.8922   4.1938   6.3012   8.3260

     occupation numbers 
     1.0000   1.0000   1.0000   0.0000   0.0000   0.0000   0.0000

          k = 0.1579 0.3684 0.4211 (  3319 PWs)   bands (ev):

   -45.6042 -45.6014   0.4753   1.6355   4.3139   5.6719   8.6811

     occupation numbers 
     1.0000   1.0000   1.0006   0.0000   0.0000   0.0000   0.0000

          k = 0.1579 0.3684 0.4737 (  3320 PWs)   bands (ev):

   -45.6032 -45.6022   0.8675   1.2684   4.6447   5.1117   9.0862

     occupation numbers 
     1.0000   1.0000   0.6327   0.0000   0.0000   0.0000   0.0000

          k = 0.1579 0.4211 0.4211 (  3312 PWs)   bands (ev):

   -45.6035 -45.6018   0.8072   1.6172   4.1733   5.1028   9.0224

     occupation numbers 
     1.0000   1.0000   0.9274   0.0000   0.0000   0.0000   0.0000

          k = 0.1579 0.4211 0.4737 (  3310 PWs)   bands (ev):

   -45.6028 -45.6023   1.1417   1.4349   4.2948   4.6281   9.4057

     occupation numbers 
     1.0000   1.0000   0.0016   0.0000   0.0000   0.0000   0.0000

          k = 0.1579 0.4737 0.4737 (  3315 PWs)   bands (ev):

   -45.6026 -45.6024   1.3679   1.4795   4.1639   4.2889   9.7399

     occupation numbers 
     1.0000   1.0000   0.0000   0.0000   0.0000   0.0000   0.0000

          k = 0.2105 0.2105 0.2105 (  3323 PWs)   bands (ev):

   -45.6119 -45.5962  -1.4046   3.7703   3.7703   6.8801  10.8617

     occupation numbers 
     1.0000   1.0000   1.0000   0.0000   0.0000   0.0000   0.0000

          k = 0.2105 0.2105 0.2632 (  3318 PWs)   bands (ev):

   -45.6106 -45.5971  -1.1680   3.1585   4.0812   6.9904   9.9062

     occupation numbers 
     1.0000   1.0000   1.0000   0.0000   0.0000   0.0000   0.0000

          k = 0.2105 0.2105 0.3158 (  3317 PWs)   bands (ev):

   -45.6090 -45.5981  -0.8789   2.5294   4.4608   7.1968   9.0032

     occupation numbers 
     1.0000   1.0000   1.0000   0.0000   0.0000   0.0000   0.0000

          k = 0.2105 0.2105 0.3684 (  3331 PWs)   bands (ev):

   -45.6074 -45.5994  -0.5375   1.9154   4.9090   7.4764   8.1590

     occupation numbers 
     1.0000   1.0000   1.0000   0.0000   0.0000   0.0000   0.0000

          k = 0.2105 0.2105 0.4211 (  3323 PWs)   bands (ev):

   -45.6057 -45.6008  -0.1443   1.3337   5.4253   7.3773   7.8157

     occupation numbers 
     1.0000   1.0000   1.0000   0.0000   0.0000   0.0000   0.0000

          k = 0.2105 0.2105 0.4737 (  3320 PWs)   bands (ev):

   -45.6040 -45.6023   0.2999   0.7935   6.0093   6.6602   8.2061

     occupation numbers 
     1.0000   1.0000   1.0000   0.9753   0.0000   0.0000   0.0000

          k = 0.2105 0.2632 0.2632 (  3316 PWs)   bands (ev):

   -45.6094 -45.5978  -0.9317   3.0926   3.8902   7.0455   9.2847

     occupation numbers 
     1.0000   1.0000   1.0000   0.0000   0.0000   0.0000   0.0000

          k = 0.2105 0.2632 0.3158 (  3311 PWs)   bands (ev):

   -45.6080 -45.5987  -0.6435   2.6391   4.1203   7.2098   8.4704

     occupation numbers 
     1.0000   1.0000   1.0000   0.0000   0.0000   0.0000   0.0000

          k = 0.2105 0.2632 0.3684 (  3320 PWs)   bands (ev):

   -45.6066 -45.5997  -0.3041   2.0845   4.5225   7.4549   7.6676

     occupation numbers 
     1.0000   1.0000   1.0000   0.0000   0.0000   0.0000   0.0000

          k = 0.2105 0.2632 0.4211 (  3322 PWs)   bands (ev):

   -45.6051 -45.6009   0.0857   1.5317   5.0148   6.9121   7.7637

     occupation numbers 
     1.0000   1.0000   1.0000   0.0000   0.0000   0.0000   0.0000

          k = 0.2105 0.2632 0.4737 (  3319 PWs)   bands (ev):

   -45.6036 -45.6022   0.5240   1.0078   5.5809   6.2147   8.1250

     occupation numbers 
     1.0000   1.0000   1.0029   0.0750   0.0000   0.0000   0.0000

          k = 0.2105 0.3158 0.3158 (  3314 PWs)   bands (ev):

   -45.6069 -45.5993  -0.3574   2.5464   3.9987   7.3441   7.7593

     occupation numbers 
     1.0000   1.0000   1.0000   0.0000   0.0000   0.0000   0.0000

          k = 0.2105 0.3158 0.3684 (  3318 PWs)   bands (ev):

   -45.6057 -45.6001  -0.0219   2.1946   4.1955   7.0279   7.5666

     occupation numbers 
     1.0000   1.0000   1.0000   0.0000   0.0000   0.0000   0.0000

          k = 0.2105 0.3158 0.4211 (  3312 PWs)   bands (ev):

   -45.6045 -45.6011   0.3606   1.7293   4.5888   6.3275   7.8561

     occupation numbers 
     1.0000   1.0000   1.0000   0.0000   0.0000   0.0000   0.0000

          k = 0.2105 0.3158 0.4737 (  3322 PWs)   bands (ev):

   -45.6032 -45.6021   0.7862   1.2476   5.0937   5.6784   8.1993

     occupation numbers 
     1.0000   1.0000   0.9972   0.0000   0.0000   0.0000   0.0000

          k = 0.2105 0.3684 0.3684 (  3316 PWs)   bands (ev):

   -45.6047 -45.6007   0.3059   2.1351   4.0865   6.3618   7.7719

     occupation numbers 
     1.0000   1.0000   1.0000   0.0000   0.0000   0.0000   0.0000

          k = 0.2105 0.3684 0.4211 (  3321 PWs)   bands (ev):

   -45.6038 -45.6013   0.6743   1.8680   4.2605   5.7233   8.0451

     occupation numbers 
     1.0000   1.0000   1.0655   0.0000   0.0000   0.0000   0.0000

          k = 0.2105 0.3684 0.4737 (  3317 PWs)   bands (ev):

   -45.6029 -45.6021   1.0739   1.4857   4.6385   5.1402   8.3681

     occupation numbers 
     1.0000   1.0000   0.0140   0.0000   0.0000   0.0000   0.0000

          k = 0.2105 0.4211 0.4211 (  3319 PWs)   bands (ev):

   -45.6032 -45.6016   1.0155   1.8602   4.1480   5.1554   8.2977

     occupation numbers 
     1.0000   1.0000   0.0631   0.0000   0.0000   0.0000   0.0000

          k = 0.2105 0.4211 0.4737 (  3316 PWs)   bands (ev):

   -45.6026 -45.6021   1.3622   1.6698   4.3027   4.6646   8.5852

     occupation numbers 
     1.0000   1.0000   0.0000   0.0000   0.0000   0.0000   0.0000

          k = 0.2105 0.4737 0.4737 (  3310 PWs)   bands (ev):

   -45.6023 -45.6022   1.6034   1.7226   4.1798   4.3172   8.7965

     occupation numbers 
     1.0000   1.0000   0.0000   0.0000   0.0000   0.0000   0.0000

          k = 0.2632 0.2632 0.2632 (  3311 PWs)   bands (ev):

   -45.6083 -45.5984  -0.6948   3.4041   3.4041   7.0043   9.2565

     occupation numbers 
     1.0000   1.0000   1.0000   0.0000   0.0000   0.0000   0.0000

          k = 0.2632 0.2632 0.3158 (  3313 PWs)   bands (ev):

   -45.6071 -45.5991  -0.4063   2.8601   3.7845   7.0890   8.3456

     occupation numbers 
     1.0000   1.0000   1.0000   0.0000   0.0000   0.0000   0.0000

          k = 0.2632 0.2632 0.3684 (  3311 PWs)   bands (ev):

   -45.6059 -45.5999  -0.0671   2.3011   4.2337   7.2664   7.4959

     occupation numbers 
     1.0000   1.0000   1.0000   0.0000   0.0000   0.0000   0.0000

          k = 0.2632 0.2632 0.4211 (  3320 PWs)   bands (ev):

   -45.6046 -45.6009   0.3215   1.7546   4.7513   6.7103   7.5123

     occupation numbers 
     1.0000   1.0000   1.0000   0.0000   0.0000   0.0000   0.0000

          k = 0.2632 0.2632 0.4737 (  3317 PWs)   bands (ev):

   -45.6033 -45.6021   0.7573   1.2368   5.3370   5.9903   7.8097

     occupation numbers 
     1.0000   1.0000   1.0581   0.0000   0.0000   0.0000   0.0000

          k = 0.2632 0.3158 0.3158 (  3303 PWs)   bands (ev):

   -45.6061 -45.5996  -0.1182   2.8583   3.6638   7.1077   7.8035

     occupation numbers 
     1.0000   1.0000   1.0000   0.0000   0.0000   0.0000   0.0000

          k = 0.2632 0.3158 0.3684 (  3319 PWs)   bands (ev):

   -45.6050 -45.6003   0.2192   2.4737   3.9618   7.0517   7.2307

     occupation numbers 
     1.0000   1.0000   1.0000   0.0000   0.0000   0.0000   0.0000

          k = 0.2632 0.3158 0.4211 (  3320 PWs)   bands (ev):

   -45.6040 -45.6011   0.6037   1.9861   4.4304   6.3091   7.4285

     occupation numbers 
     1.0000   1.0000   1.0220   0.0000   0.0000   0.0000   0.0000

          k = 0.2632 0.3158 0.4737 (  3320 PWs)   bands (ev):

   -45.6029 -45.6019   1.0314   1.4961   4.9880   5.6171   7.6784

     occupation numbers 
     1.0000   1.0000   0.0434   0.0000   0.0000   0.0000   0.0000

          k = 0.2632 0.3684 0.3684 (  3312 PWs)   bands (ev):

   -45.6042 -45.6007   0.5520   2.4473   3.9054   6.4301   7.3118

     occupation numbers 
     1.0000   1.0000   1.0065   0.0000   0.0000   0.0000   0.0000

          k = 0.2632 0.3684 0.4211 (  3317 PWs)   bands (ev):

   -45.6034 -45.6012   0.9264   2.1624   4.1600   5.7779   7.4733

     occupation numbers 
     1.0000   1.0000   0.3246   0.0000   0.0000   0.0000   0.0000

          k = 0.2632 0.3684 0.4737 (  3318 PWs)   bands (ev):

   -45.6026 -45.6019   1.3342   1.7590   4.6070   5.1593   7.6856

     occupation numbers 
     1.0000   1.0000   0.0000   0.0000   0.0000   0.0000   0.0000

          k = 0.2632 0.4211 0.4211 (  3317 PWs)   bands (ev):

   -45.6028 -45.6015   1.2793   2.1726   4.0926   5.2208   7.6001

     occupation numbers 
     1.0000   1.0000   0.0000   0.0000   0.0000   0.0000   0.0000

          k = 0.2632 0.4211 0.4737 (  3311 PWs)   bands (ev):

   -45.6023 -45.6019   1.6418   1.9694   4.3012   4.7077   7.7677

     occupation numbers 
     1.0000   1.0000   0.0000   0.0000   0.0000   0.0000   0.0000

          k = 0.2632 0.4737 0.4737 (  3311 PWs)   bands (ev):

   -45.6021 -45.6019   1.9044   2.0351   4.1944   4.3517   7.8656

     occupation numbers 
     1.0000   1.0000   0.0000   0.0000   0.0000   0.0000   0.0000

          k = 0.3158 0.3158 0.3158 (  3311 PWs)   bands (ev):

   -45.6053 -45.6000   0.1717   3.2393   3.2393   7.0164   7.8129

     occupation numbers 
     1.0000   1.0000   1.0000   0.0000   0.0000   0.0000   0.0000

          k = 0.3158 0.3158 0.3684 (  3313 PWs)   bands (ev):

   -45.6044 -45.6005   0.5102   2.7622   3.6892   6.9596   7.0417

     occupation numbers 
     1.0000   1.0000   1.0019   0.0000   0.0000   0.0000   0.0000

          k = 0.3158 0.3158 0.4211 (  3316 PWs)   bands (ev):

   -45.6035 -45.6011   0.8947   2.2678   4.2078   6.1713   7.1483

     occupation numbers 
     1.0000   1.0000   0.4835   0.0000   0.0000   0.0000   0.0000

          k = 0.3158 0.3158 0.4737 (  3318 PWs)   bands (ev):

   -45.6026 -45.6018   1.3207   1.7818   4.7946   5.4494   7.3050

     occupation numbers 
     1.0000   1.0000   0.0000   0.0000   0.0000   0.0000   0.0000

          k = 0.3158 0.3684 0.3684 (  3309 PWs)   bands (ev):

   -45.6036 -45.6008   0.8481   2.8287   3.6345   6.4977   6.9803

     occupation numbers 
     1.0000   1.0000   0.7381   0.0000   0.0000   0.0000   0.0000

          k = 0.3158 0.3684 0.4211 (  3316 PWs)   bands (ev):

   -45.6029 -45.6012   1.2281   2.5089   3.9969   5.8168   7.0097

     occupation numbers 
     1.0000   1.0000   0.0000   0.0000   0.0000   0.0000   0.0000

          k = 0.3158 0.3684 0.4737 (  3319 PWs)   bands (ev):

   -45.6023 -45.6017   1.6431   2.0797   4.5283   5.1437   7.0922

     occupation numbers 
     1.0000   1.0000   0.0000   0.0000   0.0000   0.0000   0.0000

          k = 0.3158 0.4211 0.4211 (  3317 PWs)   bands (ev):

   -45.6025 -45.6014   1.5946   2.5542   3.9854   5.2980   6.9758

     occupation numbers 
     1.0000   1.0000   0.0000   0.0000   0.0000   0.0000   0.0000

          k = 0.3158 0.4211 0.4737 (  3312 PWs)   bands (ev):

   -45.6020 -45.6017   1.9759   2.3302   4.2785   4.7531   7.0036

     occupation numbers 
     1.0000   1.0000   0.0000   0.0000   0.0000   0.0000   0.0000

          k = 0.3158 0.4737 0.4737 (  3311 PWs)   bands (ev):

   -45.6018 -45.6017   2.2683   2.4168   4.2018   4.3919   6.9866

     occupation numbers 
     1.0000   1.0000   0.0000   0.0000   0.0000   0.0000   0.0000

          k = 0.3684 0.3684 0.3684 (  3307 PWs)   bands (ev):

   -45.6031 -45.6010   1.1906   3.2791   3.2791   6.5549   6.5549

     occupation numbers 
     1.0000   1.0000   0.0002   0.0000   0.0000   0.0000   0.0000

          k = 0.3684 0.3684 0.4211 (  3316 PWs)   bands (ev):

   -45.6025 -45.6012   1.5740   2.8658   3.7982   5.7649   6.5940

     occupation numbers 
     1.0000   1.0000   0.0000   0.0000   0.0000   0.0000   0.0000

          k = 0.3684 0.3684 0.4737 (  3314 PWs)   bands (ev):

   -45.6020 -45.6016   1.9904   2.4272   4.3858   5.0416   6.6158

     occupation numbers 
     1.0000   1.0000   0.0000   0.0000   0.0000   0.0000   0.0000

          k = 0.3684 0.4211 0.4211 (  3311 PWs)   bands (ev):

   -45.6021 -45.6013   1.9551   3.0049   3.8012   5.3874   6.2840

     occupation numbers 
     1.0000   1.0000   0.0000   0.0000   0.0000   0.0000   0.0000

          k = 0.3684 0.4211 0.4737 (  3312 PWs)   bands (ev):

   -45.6018 -45.6015   2.3557   2.7422   4.2170   4.7903   6.2683

     occupation numbers 
     1.0000   1.0000   0.0000   0.0000   0.0000   0.0000   0.0000

          k = 0.3684 0.4737 0.4737 (  3310 PWs)   bands (ev):

   -45.6016 -45.6015   2.6898   2.8676   4.1912   4.4402   6.1483

     occupation numbers 
     1.0000   1.0000   0.0000   0.0000   0.0000   0.0000   0.0000

          k = 0.4211 0.4211 0.4211 (  3313 PWs)   bands (ev):

   -45.6018 -45.6013   2.3503   3.5244   3.5244   5.4930   5.4930

     occupation numbers 
     1.0000   1.0000   0.0000   0.0000   0.0000   0.0000   0.0000

          k = 0.4211 0.4211 0.4737 (  3317 PWs)   bands (ev):

   -45.6016 -45.6014   2.7632   3.1669   4.1125   4.7689   5.6257

     occupation numbers 
     1.0000   1.0000   0.0000   0.0000   0.0000   0.0000   0.0000

          k = 0.4211 0.4737 0.4737 (  3312 PWs)   bands (ev):

   -45.6015 -45.6014   3.1551   3.3873   4.1379   4.5072   5.3568

     occupation numbers 
     1.0000   1.0000   0.0000   0.0000   0.0000   0.0000   0.0000

          k = 0.4737 0.4737 0.4737 (  3328 PWs)   bands (ev):

   -45.6014 -45.6013   3.6216   3.9757   3.9757   4.6323   4.6323

     occupation numbers 
     1.0000   1.0000   0.0000   0.0000   0.0000   0.0000   0.0000

     the Fermi energy is     0.9105 ev

!    total energy              =     -30.08823743 Ry
     total all-electron energy =       -30.088254 Ry
     estimated scf accuracy    <          9.9E-15 Ry
     smearing contrib. (-TS)   =      -0.00002857 Ry
     internal energy E=F+TS    =     -30.08820887 Ry

     The total energy is F=E-TS. E is the sum of the following terms:
     one-electron contribution =     -21.17048851 Ry
     hartree contribution      =       8.17254817 Ry
     xc contribution           =      -7.18971660 Ry
     ewald contribution        =     -10.07685736 Ry
     one-center paw contrib.   =       0.17630543 Ry
      -> PAW hartree energy AE =       7.51743732 Ry
      -> PAW hartree energy PS =      -7.29495408 Ry
      -> PAW xc energy AE      =      -3.50245489 Ry
      -> PAW xc energy PS      =       3.36812436 Ry
      -> total E_H with PAW    =       8.39503142 Ry
      -> total E_XC with PAW   =      -7.32404713 Ry

     convergence has been achieved in  26 iterations

     Forces acting on atoms (cartesian axes, Ry/au):

     atom    1 type  1   force =     0.00000000    0.00000000    0.00000000
     atom    2 type  1   force =     0.00000000    0.00000000    0.00000000
     The non-local contrib.  to forces
     atom    1 type  1   force =     0.00000000    0.00000000    0.00000000
     atom    2 type  1   force =     0.00000000    0.00000000    0.00000000
     The ionic contribution  to forces
     atom    1 type  1   force =     0.00000000    0.00000000    0.00000000
     atom    2 type  1   force =     0.00000000    0.00000000    0.00000000
     The local contribution  to forces
     atom    1 type  1   force =     0.00000000    0.00000000    0.00000000
     atom    2 type  1   force =    -0.00000000   -0.00000000   -0.00000000
     The core correction contribution to forces
     atom    1 type  1   force =     0.00000000    0.00000000    0.00000000
     atom    2 type  1   force =     0.00000000    0.00000000    0.00000000
     The Hubbard contrib.    to forces
     atom    1 type  1   force =     0.00000000    0.00000000    0.00000000
     atom    2 type  1   force =     0.00000000    0.00000000    0.00000000
     The SCF correction term to forces
     atom    1 type  1   force =     0.00000000   -0.00000000    0.00000000
     atom    2 type  1   force =     0.00000000    0.00000000    0.00000000

     Total force =     0.000000     Total SCF correction =     0.000000

     Writing all to output data dir ./Li/Lithium.save/ :
     XML data file
     init_run     :      0.82s CPU      0.93s WALL (       1 calls)
     electrons    :      1.33s CPU      2.11s WALL (       1 calls)
     forces       :      0.01s CPU      0.01s WALL (       1 calls)

     Called by init_run:
     wfcinit      :      0.01s CPU      0.04s WALL (       1 calls)
     wfcinit:wfcr :      0.01s CPU      0.04s WALL (       7 calls)
     potinit      :      0.32s CPU      0.35s WALL (       1 calls)
     hinit0       :      0.41s CPU      0.41s WALL (       1 calls)

     Called by electrons:
     c_bands      :      0.70s CPU      1.11s WALL (      26 calls)
     sum_band     :      0.18s CPU      0.25s WALL (      26 calls)
     v_of_rho     :      0.20s CPU      0.30s WALL (      27 calls)
     v_h          :      0.01s CPU      0.02s WALL (      27 calls)
     v_xc         :      0.18s CPU      0.27s WALL (      27 calls)
     newd         :      0.02s CPU      0.03s WALL (      27 calls)
     PAW_pot      :      0.15s CPU      0.24s WALL (      27 calls)
     mix_rho      :      0.04s CPU      0.06s WALL (      26 calls)

     Called by c_bands:
     init_us_2    :      0.01s CPU      0.01s WALL (     378 calls)
     cegterg      :      0.54s CPU      0.74s WALL (     182 calls)

     Called by sum_band:
     sum_band:wei :      0.03s CPU      0.05s WALL (      26 calls)
     sum_band:loo :      0.08s CPU      0.11s WALL (      26 calls)
     sum_band:buf :      0.00s CPU      0.00s WALL (     182 calls)
     sum_band:ini :      0.00s CPU      0.01s WALL (     182 calls)
     sum_band:cal :      0.01s CPU      0.01s WALL (     182 calls)
     sum_band:bec :      0.00s CPU      0.00s WALL (     182 calls)
     addusdens    :      0.01s CPU      0.02s WALL (      26 calls)
                                        0.00s GPU  (      26 calls)
     addusd:skk   :      0.00s CPU      0.00s WALL (      26 calls)
                                        0.00s GPU  (      26 calls)

     Called by *egterg:
     cdiaghg      :      0.04s CPU      0.11s WALL (     582 calls)
     cegterg:over :      0.02s CPU      0.03s WALL (     400 calls)
     cegterg:upda :      0.01s CPU      0.01s WALL (     400 calls)
     cegterg:last :      0.01s CPU      0.01s WALL (     223 calls)
     h_psi        :      0.44s CPU      0.59s WALL (     589 calls)
     s_psi        :      0.01s CPU      0.01s WALL (     589 calls)
     g_psi        :      0.00s CPU      0.00s WALL (     400 calls)

     Called by h_psi:
     h_psi:calbec :      0.02s CPU      0.03s WALL (     589 calls)
     vloc_psi     :      0.41s CPU      0.54s WALL (     589 calls)
                                        0.00s GPU  (     589 calls)
     add_vuspsi   :      0.01s CPU      0.01s WALL (     589 calls)

     General routines
     calbec       :      0.03s CPU      0.03s WALL (     799 calls)
     fft          :      0.51s CPU      0.57s WALL (     351 calls)
     ffts         :      0.29s CPU      0.29s WALL (      53 calls)
     fftw         :      0.43s CPU      0.57s WALL (    8656 calls)
     interpolate  :      0.30s CPU      0.31s WALL (      27 calls)

     Parallel routines

     PAW routines
     PAW_pot      :      0.15s CPU      0.24s WALL (      27 calls)
     PAW_symme    :      0.00s CPU      0.01s WALL (      53 calls)

     PWSCF        :      2.27s CPU      3.69s WALL


   This run was terminated on:   3:23: 6   5Jan2025            

=------------------------------------------------------------------------------=
   JOB DONE.
=------------------------------------------------------------------------------=
