
     Program PWSCF v.7.4 starts on  5Jan2025 at  2:10:48 

     This program is part of the open-source Quantum ESPRESSO suite
     for quantum simulation of materials; please cite
         "P. Giannozzi et al., J. Phys.:Condens. Matter 21 395502 (2009);
         "P. Giannozzi et al., J. Phys.:Condens. Matter 29 465901 (2017);
         "P. Giannozzi et al., J. Chem. Phys. 152 154105 (2020);
          URL http://www.quantum-espresso.org", 
     in publications or presentations arising from this work. More details at
     http://www.quantum-espresso.org/quote

     Parallel version (MPI & OpenMP), running on     256 processor cores
     Number of MPI processes:               256
     Threads/MPI process:                     1

     MPI processes distributed on     2 nodes
     489862 MiB available memory on the printing compute node when the environment starts

     Reading input from espresso.pwi
Warning: card &CELL ignored
Warning: card    PRESS_CONV_THR   = 0.1 ignored
Warning: card    CELL_DOFREE      = 'ALL' ignored
Warning: card / ignored
Warning: card &FCP ignored
Warning: card / ignored
Warning: card &RISM ignored
Warning: card / ignored

     Current dimensions of program PWSCF are:
     Max number of different atomic species (ntypx) = 10
     Max number of k-points (npk) =  40000
     Max angular momentum in pseudopotentials (lmaxx) =  4

     IMPORTANT: XC functional enforced from input :
     Exchange-correlation= PBE
                           (   1   4   3   4   0   0   0)
     Any further DFT definition will be discarded
     Please, verify this is what you really want


     Reading input from environ.in:
     * using ionic solvent mode
     * setting boundary derivatives method to SSCS default
     * setting electrolyte-boundary derivatives method to SSCS default

Environ Warning (1001): card EOF ignored

     

     R & G space division:  proc/nbgrp/npool/nimage =     256
     Subspace diagonalization in iterative solution of the eigenvalue problem:
     a serial algorithm will be used


     Parallelization info
     --------------------
     sticks:   dense  smooth     PW     G-vecs:    dense   smooth      PW
     Min          29      11      3                15801     3945     551
     Max          30      12      4                15890     4040     600
     Sum        7593    3025    841              4056641  1025567  148303

     Using Slab Decomposition



     bravais-lattice index     =           14
     lattice parameter (alat)  =      11.2436  a.u.
     unit-cell volume          =   10615.2838 (a.u.)^3
     number of atoms/cell      =           16
     number of atomic types    =            1
     number of electrons       =        48.00
     number of Kohn-Sham states=           36
     kinetic-energy cutoff     =      80.0000  Ry
     charge density cutoff     =     800.0000  Ry
     scf convergence threshold =      1.0E-06
     mixing beta               =       0.2000
     number of iterations used =            8  local-TF  mixing
     energy convergence thresh.=      1.0E-05
     force convergence thresh. =      3.9E-04
     Exchange-correlation= PBE
                           (   1   4   3   4   0   0   0)
     nstep                     =          999


     ================================================================================

                                  Environ Setup Summary

     ================================================================================

     Please cite

          O. Andreussi, I. Dabo and N. Marzari, J. Chem. Phys. 136, 064102 (2012)
          F. Nattino, M. Truscott, N. Marzari, and O. Andreussi, J. Chem. Phys. 150, 041722 (2019)

     in publications or presentations arising from this work.

     ================================================================================

     Parameters
     ==========

     compensation onset threshold      =               0.1000E+00
     static permittivity               =                    89.90
     surface tension in input (dyn/cm) =                    37.30
     surface tension in internal units =               0.4792E-04

     Solvent Boundary
     ================

     solvent mode                      =                    ionic
     derivatives method                =                   lowmem
     electrolyte derivatives method    =                   lowmem
     numerical core for derivatives    =                      fft
     switching function adopted        =                     SCCS
     density limit for vacuum region   =               0.5000E-02
     density limit for bulk solvent    =               0.1000E-03
     soft-sphere radius mode           =                    bondi
     soft-sphere softness              =                     0.50
     alpha                             =                     1.32

     Electrostatic Setup
     ===================

     electrostatic problem to solve    =                    modpb
     numerical solver adopted          =                   newton
     type of auxiliary density adopted =                     none
     numerical core for poisson        =                      fft
     adopting a nested solver scheme
     inner solver                      =                       cg
     inner core                        =                      fft
     type of pbc corrections           =                parabolic
     numerical core for corrections    =                      1da

     ================================================================================


     >>>>> Grand-Canonical SCF is activated <<<<<
     Initial Total Charge  =     0.000000 e
     Target Fermi Energy   =    -1.404000 eV
     Thr. of Fermi Energy  =     0.001000 eV
     Wave-shift of Kerker  =     0.400000 bohr^-1
     Wave-shift of Hartree =     1.500000 bohr^-1
     Mixing Rate of Fermi  =     0.050000

     celldm(1)=  11.243615  celldm(2)=   1.000000  celldm(3)=   7.921182
     celldm(4)=   0.000000  celldm(5)=   0.000000  celldm(6)=  -0.333333

     crystal axes: (cart. coord. in units of alat)
               a(1) = (   1.000000   0.000000   0.000000 )  
               a(2) = (  -0.333333   0.942809   0.000000 )  
               a(3) = (   0.000000   0.000000   7.921182 )  

     reciprocal axes: (cart. coord. in units 2 pi/alat)
               b(1) = (  1.000000  0.353553 -0.000000 )  
               b(2) = (  0.000000  1.060660  0.000000 )  
               b(3) = (  0.000000 -0.000000  0.126244 )  


     PseudoPot. # 1 for Li read from file:
     /work/e89/e89/ba3g18/Repos/Pseudopotentials/Pslibrary/Li.pbe-sl-kjpaw_psl.1.0.0.UPF
     MD5 check sum: 3f4d2cafebb47c6c3aa8ed472e6f074d
     Pseudo is Projector augmented-wave, Zval =  3.0
     Generated using 'atomic' code by A. Dal Corso  v.7.4
     Shape of augmentation charge: PSQ
     Using radial grid of 1017 points,  4 beta functions with: 
                l(1) =   0
                l(2) =   0
                l(3) =   1
                l(4) =   1
     Q(r) pseudized with 0 coefficients 


     atomic species   valence    mass     pseudopotential
     Li                3.00     6.94000     Li( 1.00)

      2 Sym. Ops. (no inversion) found


                                    s                        frac. trans.

      isym =  1     identity                                     

 cryst.   s( 1) = (     1          0          0      )
                  (     0          1          0      )
                  (     0          0          1      )

 cart.    s( 1) = (  1.0000000 -0.0000000  0.0000000 )
                  (  0.0000000  1.0000000  0.0000000 )
                  (  0.0000000  0.0000000  1.0000000 )


      isym =  2     180 deg rotation - cart. axis [0,0,1]        

 cryst.   s( 2) = (    -1          0          0      )
                  (     0         -1          0      )
                  (     0          0          1      )

 cart.    s( 2) = ( -1.0000000  0.0000000  0.0000000 )
                  (  0.0000000 -1.0000000  0.0000000 )
                  (  0.0000000  0.0000000  1.0000000 )


     point group C_2  (2)   
     there are  2 classes
     the character table:

       E     C2   
A      1.00  1.00
B      1.00 -1.00

     the symmetry operations in each class and the name of the first element:

     E        1
          identity                                               
     C2       2
          180 deg rotation - cart. axis [0,0,1]                  

   Cartesian axes

     site n.     atom                  positions (alat units)
         1        Li     tau(   1) = (   0.1666578   0.2356939   3.3442038  )
         2        Li     tau(   2) = (   0.3333333   0.4714046   3.7533361  )
         3        Li     tau(   3) = (   0.1666670   0.2356844   4.1675908  )
         4        Li     tau(   4) = (   0.3333333   0.4714046   4.5772534  )
         5        Li     tau(   5) = (  -0.0000041   0.7071175   3.3441915  )
         6        Li     tau(   6) = (   0.1666667   0.9428090   3.7533389  )
         7        Li     tau(   7) = (   0.0000040   0.7071235   4.1675720  )
         8        Li     tau(   8) = (   0.1666667   0.9428090   4.5772518  )
         9        Li     tau(   9) = (   0.6666708   0.2356915   3.3441915  )
        10        Li     tau(  10) = (   0.8333333   0.4714046   3.7533443  )
        11        Li     tau(  11) = (   0.6666626   0.2356856   4.1675720  )
        12        Li     tau(  12) = (   0.8333333   0.4714046   4.5772625  )
        13        Li     tau(  13) = (   0.5000089   0.7071151   3.3442038  )
        14        Li     tau(  14) = (   0.6666667   0.9428090   3.7533497  )
        15        Li     tau(  15) = (   0.4999997   0.7071247   4.1675908  )
        16        Li     tau(  16) = (   0.6666667   0.9428090   4.5772444  )

   Crystallographic axes

     site n.     atom                  positions (cryst. coord.)
         1        Li     tau(   1) = (  0.2499881  0.2499912  0.4221850  )
         2        Li     tau(   2) = (  0.4999999  0.5000001  0.4738354  )
         3        Li     tau(   3) = (  0.2499939  0.2499811  0.5261324  )
         4        Li     tau(   4) = (  0.4999999  0.5000001  0.5778498  )
         5        Li     tau(   5) = (  0.2499995  0.7500115  0.4221834  )
         6        Li     tau(   6) = (  0.4999997  1.0000001  0.4738357  )
         7        Li     tau(   7) = (  0.2500097  0.7500177  0.5261301  )
         8        Li     tau(   8) = (  0.4999997  1.0000000  0.5778496  )
         9        Li     tau(   9) = (  0.7500002  0.2499886  0.4221834  )
        10        Li     tau(  10) = (  0.9999999  0.5000001  0.4738364  )
        11        Li     tau(  11) = (  0.7499900  0.2499823  0.5261301  )
        12        Li     tau(  12) = (  0.9999999  0.5000001  0.5778509  )
        13        Li     tau(  13) = (  0.7500116  0.7500089  0.4221850  )
        14        Li     tau(  14) = (  0.9999997  1.0000000  0.4738371  )
        15        Li     tau(  15) = (  0.7500058  0.7500190  0.5261324  )
        16        Li     tau(  16) = (  0.9999997  1.0000000  0.5778487  )

     number of k points=    61  Marzari-Vanderbilt smearing, width (Ry)=  0.0100
                       cart. coord. in units 2pi/alat
        k(    1) = (   0.0000000   0.0000000   0.0000000), wk =   0.0165289
        k(    2) = (   0.0000000   0.0964237   0.0000000), wk =   0.0330579
        k(    3) = (   0.0000000   0.1928473   0.0000000), wk =   0.0330579
        k(    4) = (   0.0000000   0.2892710   0.0000000), wk =   0.0330579
        k(    5) = (   0.0000000   0.3856946   0.0000000), wk =   0.0330579
        k(    6) = (   0.0000000   0.4821183   0.0000000), wk =   0.0330579
        k(    7) = (   0.0909091   0.0321412   0.0000000), wk =   0.0330579
        k(    8) = (   0.0909091   0.1285648   0.0000000), wk =   0.0330579
        k(    9) = (   0.0909091   0.2249885   0.0000000), wk =   0.0330579
        k(   10) = (   0.0909091   0.3214122   0.0000000), wk =   0.0330579
        k(   11) = (   0.0909091   0.4178358   0.0000000), wk =   0.0330579
        k(   12) = (   0.0909091   0.5142595   0.0000000), wk =   0.0330579
        k(   13) = (   0.0909091  -0.4499771   0.0000000), wk =   0.0330579
        k(   14) = (   0.0909091  -0.3535534   0.0000000), wk =   0.0330579
        k(   15) = (   0.0909091  -0.2571298   0.0000000), wk =   0.0330579
        k(   16) = (   0.0909091  -0.1607061   0.0000000), wk =   0.0330579
        k(   17) = (   0.0909091  -0.0642825   0.0000000), wk =   0.0330579
        k(   18) = (   0.1818182   0.0642824   0.0000000), wk =   0.0330579
        k(   19) = (   0.1818182   0.1607060   0.0000000), wk =   0.0330579
        k(   20) = (   0.1818182   0.2571297   0.0000000), wk =   0.0330579
        k(   21) = (   0.1818182   0.3535533   0.0000000), wk =   0.0330579
        k(   22) = (   0.1818182   0.4499770   0.0000000), wk =   0.0330579
        k(   23) = (   0.1818182   0.5464007   0.0000000), wk =   0.0330579
        k(   24) = (   0.1818182  -0.4178359   0.0000000), wk =   0.0330579
        k(   25) = (   0.1818182  -0.3214123   0.0000000), wk =   0.0330579
        k(   26) = (   0.1818182  -0.2249886   0.0000000), wk =   0.0330579
        k(   27) = (   0.1818182  -0.1285649   0.0000000), wk =   0.0330579
        k(   28) = (   0.1818182  -0.0321413   0.0000000), wk =   0.0330579
        k(   29) = (   0.2727273   0.0964236   0.0000000), wk =   0.0330579
        k(   30) = (   0.2727273   0.1928472   0.0000000), wk =   0.0330579
        k(   31) = (   0.2727273   0.2892709   0.0000000), wk =   0.0330579
        k(   32) = (   0.2727273   0.3856945   0.0000000), wk =   0.0330579
        k(   33) = (   0.2727273   0.4821182   0.0000000), wk =   0.0330579
        k(   34) = (   0.2727273   0.5785418   0.0000000), wk =   0.0330579
        k(   35) = (   0.2727273  -0.3856947   0.0000000), wk =   0.0330579
        k(   36) = (   0.2727273  -0.2892711   0.0000000), wk =   0.0330579
        k(   37) = (   0.2727273  -0.1928474   0.0000000), wk =   0.0330579
        k(   38) = (   0.2727273  -0.0964238   0.0000000), wk =   0.0330579
        k(   39) = (   0.2727273  -0.0000001   0.0000000), wk =   0.0330579
        k(   40) = (   0.3636364   0.1285647   0.0000000), wk =   0.0330579
        k(   41) = (   0.3636364   0.2249884   0.0000000), wk =   0.0330579
        k(   42) = (   0.3636364   0.3214121   0.0000000), wk =   0.0330579
        k(   43) = (   0.3636364   0.4178357   0.0000000), wk =   0.0330579
        k(   44) = (   0.3636364   0.5142594   0.0000000), wk =   0.0330579
        k(   45) = (   0.3636364   0.6106830   0.0000000), wk =   0.0330579
        k(   46) = (   0.3636364  -0.3535535   0.0000000), wk =   0.0330579
        k(   47) = (   0.3636364  -0.2571299   0.0000000), wk =   0.0330579
        k(   48) = (   0.3636364  -0.1607062   0.0000000), wk =   0.0330579
        k(   49) = (   0.3636364  -0.0642826   0.0000000), wk =   0.0330579
        k(   50) = (   0.3636364   0.0321411   0.0000000), wk =   0.0330579
        k(   51) = (   0.4545455   0.1607059   0.0000000), wk =   0.0330579
        k(   52) = (   0.4545455   0.2571296   0.0000000), wk =   0.0330579
        k(   53) = (   0.4545455   0.3535532   0.0000000), wk =   0.0330579
        k(   54) = (   0.4545455   0.4499769   0.0000000), wk =   0.0330579
        k(   55) = (   0.4545455   0.5464006   0.0000000), wk =   0.0330579
        k(   56) = (   0.4545455   0.6428242   0.0000000), wk =   0.0330579
        k(   57) = (   0.4545455  -0.3214123   0.0000000), wk =   0.0330579
        k(   58) = (   0.4545455  -0.2249887   0.0000000), wk =   0.0330579
        k(   59) = (   0.4545455  -0.1285650   0.0000000), wk =   0.0330579
        k(   60) = (   0.4545455  -0.0321414   0.0000000), wk =   0.0330579
        k(   61) = (   0.4545455   0.0642823   0.0000000), wk =   0.0330579

                       cryst. coord.
        k(    1) = (   0.0000000   0.0000000   0.0000000), wk =   0.0165289
        k(    2) = (   0.0000000   0.0909091   0.0000000), wk =   0.0330579
        k(    3) = (   0.0000000   0.1818182   0.0000000), wk =   0.0330579
        k(    4) = (   0.0000000   0.2727273   0.0000000), wk =   0.0330579
        k(    5) = (   0.0000000   0.3636364   0.0000000), wk =   0.0330579
        k(    6) = (   0.0000000   0.4545455   0.0000000), wk =   0.0330579
        k(    7) = (   0.0909091  -0.0000000   0.0000000), wk =   0.0330579
        k(    8) = (   0.0909091   0.0909091   0.0000000), wk =   0.0330579
        k(    9) = (   0.0909091   0.1818182   0.0000000), wk =   0.0330579
        k(   10) = (   0.0909091   0.2727273   0.0000000), wk =   0.0330579
        k(   11) = (   0.0909091   0.3636364   0.0000000), wk =   0.0330579
        k(   12) = (   0.0909091   0.4545455   0.0000000), wk =   0.0330579
        k(   13) = (   0.0909091  -0.4545455   0.0000000), wk =   0.0330579
        k(   14) = (   0.0909091  -0.3636364   0.0000000), wk =   0.0330579
        k(   15) = (   0.0909091  -0.2727273   0.0000000), wk =   0.0330579
        k(   16) = (   0.0909091  -0.1818182   0.0000000), wk =   0.0330579
        k(   17) = (   0.0909091  -0.0909091   0.0000000), wk =   0.0330579
        k(   18) = (   0.1818182  -0.0000000   0.0000000), wk =   0.0330579
        k(   19) = (   0.1818182   0.0909091   0.0000000), wk =   0.0330579
        k(   20) = (   0.1818182   0.1818182   0.0000000), wk =   0.0330579
        k(   21) = (   0.1818182   0.2727273   0.0000000), wk =   0.0330579
        k(   22) = (   0.1818182   0.3636364   0.0000000), wk =   0.0330579
        k(   23) = (   0.1818182   0.4545455   0.0000000), wk =   0.0330579
        k(   24) = (   0.1818182  -0.4545455   0.0000000), wk =   0.0330579
        k(   25) = (   0.1818182  -0.3636364   0.0000000), wk =   0.0330579
        k(   26) = (   0.1818182  -0.2727273   0.0000000), wk =   0.0330579
        k(   27) = (   0.1818182  -0.1818182   0.0000000), wk =   0.0330579
        k(   28) = (   0.1818182  -0.0909091   0.0000000), wk =   0.0330579
        k(   29) = (   0.2727273  -0.0000000   0.0000000), wk =   0.0330579
        k(   30) = (   0.2727273   0.0909091   0.0000000), wk =   0.0330579
        k(   31) = (   0.2727273   0.1818182   0.0000000), wk =   0.0330579
        k(   32) = (   0.2727273   0.2727273   0.0000000), wk =   0.0330579
        k(   33) = (   0.2727273   0.3636364   0.0000000), wk =   0.0330579
        k(   34) = (   0.2727273   0.4545455   0.0000000), wk =   0.0330579
        k(   35) = (   0.2727273  -0.4545455   0.0000000), wk =   0.0330579
        k(   36) = (   0.2727273  -0.3636364   0.0000000), wk =   0.0330579
        k(   37) = (   0.2727273  -0.2727273   0.0000000), wk =   0.0330579
        k(   38) = (   0.2727273  -0.1818182   0.0000000), wk =   0.0330579
        k(   39) = (   0.2727273  -0.0909091   0.0000000), wk =   0.0330579
        k(   40) = (   0.3636364  -0.0000000   0.0000000), wk =   0.0330579
        k(   41) = (   0.3636364   0.0909091   0.0000000), wk =   0.0330579
        k(   42) = (   0.3636364   0.1818182   0.0000000), wk =   0.0330579
        k(   43) = (   0.3636364   0.2727273   0.0000000), wk =   0.0330579
        k(   44) = (   0.3636364   0.3636364   0.0000000), wk =   0.0330579
        k(   45) = (   0.3636364   0.4545455   0.0000000), wk =   0.0330579
        k(   46) = (   0.3636364  -0.4545455   0.0000000), wk =   0.0330579
        k(   47) = (   0.3636364  -0.3636364   0.0000000), wk =   0.0330579
        k(   48) = (   0.3636364  -0.2727273   0.0000000), wk =   0.0330579
        k(   49) = (   0.3636364  -0.1818182   0.0000000), wk =   0.0330579
        k(   50) = (   0.3636364  -0.0909091   0.0000000), wk =   0.0330579
        k(   51) = (   0.4545455  -0.0000000   0.0000000), wk =   0.0330579
        k(   52) = (   0.4545455   0.0909091   0.0000000), wk =   0.0330579
        k(   53) = (   0.4545455   0.1818182   0.0000000), wk =   0.0330579
        k(   54) = (   0.4545455   0.2727273   0.0000000), wk =   0.0330579
        k(   55) = (   0.4545455   0.3636364   0.0000000), wk =   0.0330579
        k(   56) = (   0.4545455   0.4545455   0.0000000), wk =   0.0330579
        k(   57) = (   0.4545455  -0.4545455   0.0000000), wk =   0.0330579
        k(   58) = (   0.4545455  -0.3636364   0.0000000), wk =   0.0330579
        k(   59) = (   0.4545455  -0.2727273   0.0000000), wk =   0.0330579
        k(   60) = (   0.4545455  -0.1818182   0.0000000), wk =   0.0330579
        k(   61) = (   0.4545455  -0.0909091   0.0000000), wk =   0.0330579

     Dense  grid:  4056641 G-vectors     FFT dimensions: ( 108, 108, 810)

     Smooth grid:  1025567 G-vectors     FFT dimensions: (  72,  72, 512)

     Dynamical RAM for                 wfc:       0.28 MB

     Dynamical RAM for     wfc (w. buffer):      17.06 MB

     Dynamical RAM for           str. fact:       0.24 MB

     Dynamical RAM for           local pot:       0.00 MB

     Dynamical RAM for          nlocal pot:       0.98 MB

     Dynamical RAM for                qrad:       0.65 MB

     Dynamical RAM for          rho,v,vnew:       1.79 MB

     Dynamical RAM for               rhoin:       0.60 MB

     Dynamical RAM for            rho*nmix:       3.86 MB

     Dynamical RAM for           G-vectors:       0.94 MB

     Dynamical RAM for          h,s,v(r/c):       0.95 MB

     Dynamical RAM for          <psi|beta>:       0.07 MB

     Dynamical RAM for                 psi:       1.10 MB

     Dynamical RAM for                hpsi:       1.10 MB

     Dynamical RAM for                spsi:       1.10 MB

     Dynamical RAM for      wfcinit/wfcrot:       0.58 MB

     Dynamical RAM for           addusdens:      14.24 MB

     Dynamical RAM for          addusforce:      21.62 MB

     Estimated static dynamical RAM per process >      24.52 MB

     Estimated max dynamical RAM per process >      61.90 MB

     Estimated total dynamical RAM >      12.50 GB

     Initial potential from superposition of free atoms

     starting charge      47.9263, renormalised to      48.0000

     negative rho (up, down):  1.937E-03 0.000E+00
     Starting wfcs are random
     Checking if some PAW data can be deallocated... 

     total cpu time spent up to now is       17.9 secs

     Self-consistent Calculation

     iteration #  1     ecut=    80.00 Ry     beta= 0.20
     Davidson diagonalization with overlap

---- Real-time Memory Report at c_bands before calling an iterative solver
           246 MiB given to the printing process from OS
             0 MiB allocation reported by mallinfo(arena+hblkhd)
        479627 MiB available memory on the node where the printing process lives
------------------
     c_bands:  2 eigenvalues not converged
     c_bands:  1 eigenvalues not converged
     c_bands:  1 eigenvalues not converged
     c_bands:  1 eigenvalues not converged
     c_bands:  1 eigenvalues not converged
     c_bands:  1 eigenvalues not converged
     c_bands:  2 eigenvalues not converged
     c_bands:  1 eigenvalues not converged
     c_bands:  1 eigenvalues not converged
     ethr =  1.00E-12,  avg # of iterations =103.6

     negative rho (up, down):  1.462E-03 0.000E+00

     add environment contribution to local potential

     total cpu time spent up to now is      148.5 secs

     total energy              =    -240.71588593 Ry
     estimated scf accuracy    <       0.07478104 Ry

     total charge of GC-SCF    =      -0.00244598 e
     the Fermi energy          =      -4.48990881 eV
                        (error :       3.08590881 eV)
     electrostatic embedding   =       0.00000000 Ry
     cavitation energy         =       0.01235683 Ry
     electrolyte free energy   =       0.00456895 Ry
     correction to one-el term =      -0.00000000 Ry

     iteration #  2     ecut=    80.00 Ry     beta= 0.20
     Davidson diagonalization with overlap

---- Real-time Memory Report at c_bands before calling an iterative solver
           246 MiB given to the printing process from OS
             0 MiB allocation reported by mallinfo(arena+hblkhd)
        479723 MiB available memory on the node where the printing process lives
------------------
     ethr =  1.00E-05,  avg # of iterations = 11.3

     negative rho (up, down):  1.121E-03 0.000E+00

     add environment contribution to local potential

     total cpu time spent up to now is      165.2 secs

     total energy              =    -240.65393020 Ry
     estimated scf accuracy    <       0.01963224 Ry

     total charge of GC-SCF    =      -0.03213733 e
     the Fermi energy          =      -3.64420734 eV
                        (error :       2.24020734 eV)
     electrostatic embedding   =      -0.01830906 Ry
     cavitation energy         =       0.01235683 Ry
     electrolyte free energy   =      -0.00239205 Ry
     correction to one-el term =      -0.11449335 Ry

     iteration #  3     ecut=    80.00 Ry     beta= 0.20
     Davidson diagonalization with overlap

---- Real-time Memory Report at c_bands before calling an iterative solver
           247 MiB given to the printing process from OS
             0 MiB allocation reported by mallinfo(arena+hblkhd)
        479735 MiB available memory on the node where the printing process lives
------------------
     ethr =  1.00E-05,  avg # of iterations = 14.4

     negative rho (up, down):  8.900E-04 0.000E+00

     add environment contribution to local potential

     total cpu time spent up to now is      183.9 secs

     total energy              =    -240.57871738 Ry
     estimated scf accuracy    <       0.01117467 Ry

     total charge of GC-SCF    =      -0.12623632 e
     the Fermi energy          =      -3.10199388 eV
                        (error :       1.69799388 eV)
     electrostatic embedding   =      -0.01687318 Ry
     cavitation energy         =       0.01235683 Ry
     electrolyte free energy   =      -0.00188467 Ry
     correction to one-el term =       0.51986250 Ry

     iteration #  4     ecut=    80.00 Ry     beta= 0.20
     Davidson diagonalization with overlap

---- Real-time Memory Report at c_bands before calling an iterative solver
           247 MiB given to the printing process from OS
             0 MiB allocation reported by mallinfo(arena+hblkhd)
        479735 MiB available memory on the node where the printing process lives
------------------
     ethr =  1.00E-05,  avg # of iterations = 10.8

     negative rho (up, down):  7.519E-04 0.000E+00

     add environment contribution to local potential

     total cpu time spent up to now is      200.4 secs

     total energy              =    -240.61128935 Ry
     estimated scf accuracy    <       0.00219696 Ry

     total charge of GC-SCF    =      -0.15293569 e
     the Fermi energy          =      -2.80487921 eV
                        (error :       1.40087921 eV)
     electrostatic embedding   =      -0.02042153 Ry
     cavitation energy         =       0.01235683 Ry
     electrolyte free energy   =      -0.00107519 Ry
     correction to one-el term =       3.52406948 Ry

     iteration #  5     ecut=    80.00 Ry     beta= 0.20
     Davidson diagonalization with overlap

---- Real-time Memory Report at c_bands before calling an iterative solver
           247 MiB given to the printing process from OS
             0 MiB allocation reported by mallinfo(arena+hblkhd)
        479735 MiB available memory on the node where the printing process lives
------------------
     ethr =  4.56E-06,  avg # of iterations =  7.9

     negative rho (up, down):  7.578E-04 0.000E+00

     add environment contribution to local potential

     total cpu time spent up to now is      212.8 secs

     total energy              =    -240.55845183 Ry
     estimated scf accuracy    <       0.00161206 Ry

     total charge of GC-SCF    =      -0.33027413 e
     the Fermi energy          =      -2.70920593 eV
                        (error :       1.30520593 eV)
     electrostatic embedding   =      -0.02279749 Ry
     cavitation energy         =       0.01235683 Ry
     electrolyte free energy   =      -0.00079024 Ry
     correction to one-el term =       4.34166150 Ry

     iteration #  6     ecut=    80.00 Ry     beta= 0.20
     Davidson diagonalization with overlap

---- Real-time Memory Report at c_bands before calling an iterative solver
           247 MiB given to the printing process from OS
             0 MiB allocation reported by mallinfo(arena+hblkhd)
        479716 MiB available memory on the node where the printing process lives
------------------
     ethr =  3.34E-06,  avg # of iterations = 10.5

     negative rho (up, down):  7.056E-04 0.000E+00

     add environment contribution to local potential

     total cpu time spent up to now is      229.1 secs

     total energy              =    -240.58579697 Ry
     estimated scf accuracy    <       0.00059925 Ry

     total charge of GC-SCF    =      -0.46831965 e
     the Fermi energy          =      -2.55732062 eV
                        (error :       1.15332062 eV)
     electrostatic embedding   =      -0.05453146 Ry
     cavitation energy         =       0.01235683 Ry
     electrolyte free energy   =      -0.00030302 Ry
     correction to one-el term =       9.91516197 Ry

     iteration #  7     ecut=    80.00 Ry     beta= 0.20
     Davidson diagonalization with overlap

---- Real-time Memory Report at c_bands before calling an iterative solver
           247 MiB given to the printing process from OS
             0 MiB allocation reported by mallinfo(arena+hblkhd)
        479730 MiB available memory on the node where the printing process lives
------------------
     ethr =  1.24E-06,  avg # of iterations =  7.0

     negative rho (up, down):  5.529E-04 0.000E+00

     add environment contribution to local potential

     total cpu time spent up to now is      242.2 secs

     total energy              =    -240.56809279 Ry
     estimated scf accuracy    <       0.00052361 Ry

     total charge of GC-SCF    =      -0.81986497 e
     the Fermi energy          =      -2.49082911 eV
                        (error :       1.08682911 eV)
     electrostatic embedding   =      -0.09410193 Ry
     cavitation energy         =       0.01235683 Ry
     electrolyte free energy   =      -0.00028430 Ry
     correction to one-el term =      14.20667777 Ry

     iteration #  8     ecut=    80.00 Ry     beta= 0.20
     Davidson diagonalization with overlap

---- Real-time Memory Report at c_bands before calling an iterative solver
           247 MiB given to the printing process from OS
             0 MiB allocation reported by mallinfo(arena+hblkhd)
        479690 MiB available memory on the node where the printing process lives
------------------
     ethr =  1.07E-06,  avg # of iterations =  9.4

     negative rho (up, down):  4.839E-04 0.000E+00

     add environment contribution to local potential

     total cpu time spent up to now is      259.2 secs

     total energy              =    -240.63486027 Ry
     estimated scf accuracy    <       0.00132483 Ry

     total charge of GC-SCF    =      -0.91955158 e
     the Fermi energy          =      -2.39535885 eV
                        (error :       0.99135885 eV)
     electrostatic embedding   =      -0.24837031 Ry
     cavitation energy         =       0.01235683 Ry
     electrolyte free energy   =      -0.00105617 Ry
     correction to one-el term =      24.56881737 Ry

     iteration #  9     ecut=    80.00 Ry     beta= 0.20
     Davidson diagonalization with overlap

---- Real-time Memory Report at c_bands before calling an iterative solver
           247 MiB given to the printing process from OS
             0 MiB allocation reported by mallinfo(arena+hblkhd)
        479693 MiB available memory on the node where the printing process lives
------------------
     ethr =  1.07E-06,  avg # of iterations =  7.1

     negative rho (up, down):  4.700E-04 0.000E+00

     add environment contribution to local potential

     total cpu time spent up to now is      272.6 secs

     total energy              =    -240.62310227 Ry
     estimated scf accuracy    <       0.00057549 Ry

     total charge of GC-SCF    =      -1.21669913 e
     the Fermi energy          =      -2.43879576 eV
                        (error :       1.03479576 eV)
     electrostatic embedding   =      -0.30756597 Ry
     cavitation energy         =       0.01235683 Ry
     electrolyte free energy   =      -0.00147279 Ry
     correction to one-el term =      27.32027561 Ry

     iteration # 10     ecut=    80.00 Ry     beta= 0.20
     Davidson diagonalization with overlap

---- Real-time Memory Report at c_bands before calling an iterative solver
           247 MiB given to the printing process from OS
             0 MiB allocation reported by mallinfo(arena+hblkhd)
        479685 MiB available memory on the node where the printing process lives
------------------
     ethr =  1.07E-06,  avg # of iterations = 10.0

     negative rho (up, down):  4.969E-04 0.000E+00

     add environment contribution to local potential

     total cpu time spent up to now is      289.3 secs

     total energy              =    -240.73232662 Ry
     estimated scf accuracy    <       0.00642924 Ry

     total charge of GC-SCF    =      -1.28371575 e
     the Fermi energy          =      -2.62506139 eV
                        (error :       1.22106139 eV)
     electrostatic embedding   =      -0.51797065 Ry
     cavitation energy         =       0.01235683 Ry
     electrolyte free energy   =      -0.00378991 Ry
     correction to one-el term =      35.43663443 Ry

     iteration # 11     ecut=    80.00 Ry     beta= 0.20
     Davidson diagonalization with overlap

---- Real-time Memory Report at c_bands before calling an iterative solver
           248 MiB given to the printing process from OS
             0 MiB allocation reported by mallinfo(arena+hblkhd)
        479678 MiB available memory on the node where the printing process lives
------------------
     ethr =  1.07E-06,  avg # of iterations = 10.8

     negative rho (up, down):  5.156E-04 0.000E+00

     add environment contribution to local potential

     total cpu time spent up to now is      306.9 secs

     total energy              =    -240.67212792 Ry
     estimated scf accuracy    <       0.02415435 Ry

     total charge of GC-SCF    =      -1.86176994 e
     the Fermi energy          =      -2.82416188 eV
                        (error :       1.42016188 eV)
     electrostatic embedding   =      -0.57704044 Ry
     cavitation energy         =       0.01235683 Ry
     electrolyte free energy   =      -0.00479446 Ry
     correction to one-el term =      37.55314515 Ry

     iteration # 12     ecut=    80.00 Ry     beta= 0.20
     Davidson diagonalization with overlap

---- Real-time Memory Report at c_bands before calling an iterative solver
           248 MiB given to the printing process from OS
             0 MiB allocation reported by mallinfo(arena+hblkhd)
        479686 MiB available memory on the node where the printing process lives
------------------
     ethr =  1.07E-06,  avg # of iterations = 10.7

     negative rho (up, down):  3.681E-04 0.000E+00

     add environment contribution to local potential

     total cpu time spent up to now is      324.2 secs

     total energy              =    -240.72091028 Ry
     estimated scf accuracy    <       0.01424346 Ry

     total charge of GC-SCF    =      -1.85839284 e
     the Fermi energy          =      -2.55523872 eV
                        (error :       1.15123872 eV)
     electrostatic embedding   =      -1.13846486 Ry
     cavitation energy         =       0.01235683 Ry
     electrolyte free energy   =      -0.01232354 Ry
     correction to one-el term =      53.54585867 Ry

     iteration # 13     ecut=    80.00 Ry     beta= 0.20
     Davidson diagonalization with overlap

---- Real-time Memory Report at c_bands before calling an iterative solver
           248 MiB given to the printing process from OS
             0 MiB allocation reported by mallinfo(arena+hblkhd)
        479695 MiB available memory on the node where the printing process lives
------------------
     ethr =  1.07E-06,  avg # of iterations =  9.2

     negative rho (up, down):  5.888E-04 0.000E+00

     add environment contribution to local potential

     total cpu time spent up to now is      340.9 secs

     total energy              =    -240.83892946 Ry
     estimated scf accuracy    <       0.00304446 Ry

     total charge of GC-SCF    =      -1.52098293 e
     the Fermi energy          =      -2.31495095 eV
                        (error :       0.91095095 eV)
     electrostatic embedding   =      -1.12037602 Ry
     cavitation energy         =       0.01235683 Ry
     electrolyte free energy   =      -0.01151112 Ry
     correction to one-el term =      53.51214815 Ry

     iteration # 14     ecut=    80.00 Ry     beta= 0.20
     Davidson diagonalization with overlap

---- Real-time Memory Report at c_bands before calling an iterative solver
           248 MiB given to the printing process from OS
             0 MiB allocation reported by mallinfo(arena+hblkhd)
        479678 MiB available memory on the node where the printing process lives
------------------
     ethr =  1.07E-06,  avg # of iterations =  7.5

     negative rho (up, down):  2.907E-04 0.000E+00

     add environment contribution to local potential

     total cpu time spent up to now is      356.4 secs

     total energy              =    -240.66686922 Ry
     estimated scf accuracy    <       0.00542985 Ry

     total charge of GC-SCF    =      -2.22424693 e
     the Fermi energy          =      -2.49437930 eV
                        (error :       1.09037930 eV)
     electrostatic embedding   =      -0.77834264 Ry
     cavitation energy         =       0.01235683 Ry
     electrolyte free energy   =      -0.00665230 Ry
     correction to one-el term =      43.99163060 Ry

     iteration # 15     ecut=    80.00 Ry     beta= 0.20
     Davidson diagonalization with overlap

---- Real-time Memory Report at c_bands before calling an iterative solver
           248 MiB given to the printing process from OS
             0 MiB allocation reported by mallinfo(arena+hblkhd)
        479682 MiB available memory on the node where the printing process lives
------------------
     ethr =  1.07E-06,  avg # of iterations = 12.2

     negative rho (up, down):  2.499E-04 0.000E+00

     add environment contribution to local potential

     total cpu time spent up to now is      374.6 secs

     total energy              =    -240.75123540 Ry
     estimated scf accuracy    <       0.00080053 Ry

     total charge of GC-SCF    =      -2.18430072 e
     the Fermi energy          =      -2.03676874 eV
                        (error :       0.63276874 eV)
     electrostatic embedding   =      -1.54216263 Ry
     cavitation energy         =       0.01235683 Ry
     electrolyte free energy   =      -0.01970806 Ry
     correction to one-el term =      63.39447604 Ry

     iteration # 16     ecut=    80.00 Ry     beta= 0.20
     Davidson diagonalization with overlap

---- Real-time Memory Report at c_bands before calling an iterative solver
           248 MiB given to the printing process from OS
             0 MiB allocation reported by mallinfo(arena+hblkhd)
        479682 MiB available memory on the node where the printing process lives
------------------
     ethr =  1.07E-06,  avg # of iterations =  7.5

     negative rho (up, down):  2.646E-04 0.000E+00

     add environment contribution to local potential

     total cpu time spent up to now is      390.6 secs

     total energy              =    -240.77423413 Ry
     estimated scf accuracy    <       0.00436478 Ry

     total charge of GC-SCF    =      -3.04878511 e
     the Fermi energy          =      -2.25065782 eV
                        (error :       0.84665782 eV)
     electrostatic embedding   =      -1.50319745 Ry
     cavitation energy         =       0.01235683 Ry
     electrolyte free energy   =      -0.01869695 Ry
     correction to one-el term =      62.15706456 Ry

     iteration # 17     ecut=    80.00 Ry     beta= 0.20
     Davidson diagonalization with overlap

---- Real-time Memory Report at c_bands before calling an iterative solver
           248 MiB given to the printing process from OS
             0 MiB allocation reported by mallinfo(arena+hblkhd)
        479658 MiB available memory on the node where the printing process lives
------------------
     ethr =  1.07E-06,  avg # of iterations = 12.9

     negative rho (up, down):  2.413E-04 0.000E+00

     add environment contribution to local potential

     total cpu time spent up to now is      410.3 secs

     total energy              =    -240.74924039 Ry
     estimated scf accuracy    <       0.00066996 Ry

     total charge of GC-SCF    =      -3.04850705 e
     the Fermi energy          =      -1.62615838 eV
                        (error :       0.22215838 eV)
     electrostatic embedding   =      -2.80673799 Ry
     cavitation energy         =       0.01235683 Ry
     electrolyte free energy   =      -0.05281361 Ry
     correction to one-el term =      86.81513968 Ry

     iteration # 18     ecut=    80.00 Ry     beta= 0.20
     Davidson diagonalization with overlap

---- Real-time Memory Report at c_bands before calling an iterative solver
           248 MiB given to the printing process from OS
             0 MiB allocation reported by mallinfo(arena+hblkhd)
        479651 MiB available memory on the node where the printing process lives
------------------
     ethr =  1.07E-06,  avg # of iterations = 10.1

     negative rho (up, down):  2.678E-04 0.000E+00

     add environment contribution to local potential

     total cpu time spent up to now is      428.2 secs

     total energy              =    -240.75995410 Ry
     estimated scf accuracy    <       0.00102701 Ry

     total charge of GC-SCF    =      -2.87027230 e
     the Fermi energy          =      -1.45452534 eV
                        (error :       0.05052534 eV)
     electrostatic embedding   =      -2.78985685 Ry
     cavitation energy         =       0.01235683 Ry
     electrolyte free energy   =      -0.05308788 Ry
     correction to one-el term =      86.48616445 Ry

     iteration # 19     ecut=    80.00 Ry     beta= 0.20
     Davidson diagonalization with overlap

---- Real-time Memory Report at c_bands before calling an iterative solver
           248 MiB given to the printing process from OS
             0 MiB allocation reported by mallinfo(arena+hblkhd)
        479647 MiB available memory on the node where the printing process lives
------------------
     ethr =  1.07E-06,  avg # of iterations =  6.2

     negative rho (up, down):  1.787E-04 0.000E+00

     add environment contribution to local potential

     total cpu time spent up to now is      442.9 secs

     total energy              =    -240.77531963 Ry
     estimated scf accuracy    <       0.00032038 Ry

     total charge of GC-SCF    =      -3.29078688 e
     the Fermi energy          =      -1.61624625 eV
                        (error :       0.21224625 eV)
     electrostatic embedding   =      -2.50090611 Ry
     cavitation energy         =       0.01235683 Ry
     electrolyte free energy   =      -0.04385830 Ry
     correction to one-el term =      81.77737148 Ry

     iteration # 20     ecut=    80.00 Ry     beta= 0.20
     Davidson diagonalization with overlap

---- Real-time Memory Report at c_bands before calling an iterative solver
           248 MiB given to the printing process from OS
             0 MiB allocation reported by mallinfo(arena+hblkhd)
        479620 MiB available memory on the node where the printing process lives
------------------
     ethr =  6.25E-07,  avg # of iterations =  9.8

     negative rho (up, down):  1.719E-04 0.000E+00

     add environment contribution to local potential

     total cpu time spent up to now is      460.8 secs

     total energy              =    -240.75583640 Ry
     estimated scf accuracy    <       0.00082003 Ry

     total charge of GC-SCF    =      -3.24903334 e
     the Fermi energy          =      -1.35128672 eV
                        (error :       0.05271328 eV)
     electrostatic embedding   =      -3.19112845 Ry
     cavitation energy         =       0.01235683 Ry
     electrolyte free energy   =      -0.06809402 Ry
     correction to one-el term =      92.37672839 Ry

     iteration # 21     ecut=    80.00 Ry     beta= 0.20
     Davidson diagonalization with overlap

---- Real-time Memory Report at c_bands before calling an iterative solver
           248 MiB given to the printing process from OS
             0 MiB allocation reported by mallinfo(arena+hblkhd)
        479605 MiB available memory on the node where the printing process lives
------------------
     ethr =  6.25E-07,  avg # of iterations =  4.9

     negative rho (up, down):  1.736E-04 0.000E+00

     add environment contribution to local potential

     total cpu time spent up to now is      474.0 secs

     total energy              =    -240.76067409 Ry
     estimated scf accuracy    <       0.00141217 Ry

     total charge of GC-SCF    =      -3.23080943 e
     the Fermi energy          =      -1.35342831 eV
                        (error :       0.05057169 eV)
     electrostatic embedding   =      -3.09756065 Ry
     cavitation energy         =       0.01235683 Ry
     electrolyte free energy   =      -0.06509805 Ry
     correction to one-el term =      90.76341810 Ry

     iteration # 22     ecut=    80.00 Ry     beta= 0.20
     Davidson diagonalization with overlap

---- Real-time Memory Report at c_bands before calling an iterative solver
           248 MiB given to the printing process from OS
             0 MiB allocation reported by mallinfo(arena+hblkhd)
        479604 MiB available memory on the node where the printing process lives
------------------
     ethr =  6.25E-07,  avg # of iterations =  3.5

     negative rho (up, down):  1.649E-04 0.000E+00

     add environment contribution to local potential

     total cpu time spent up to now is      485.4 secs

     total energy              =    -240.74507276 Ry
     estimated scf accuracy    <       0.00158418 Ry

     total charge of GC-SCF    =      -3.39411655 e
     the Fermi energy          =      -1.34258562 eV
                        (error :       0.06141438 eV)
     electrostatic embedding   =      -3.07823055 Ry
     cavitation energy         =       0.01235683 Ry
     electrolyte free energy   =      -0.06395156 Ry
     correction to one-el term =      90.64529138 Ry

     iteration # 23     ecut=    80.00 Ry     beta= 0.20
     Davidson diagonalization with overlap

---- Real-time Memory Report at c_bands before calling an iterative solver
           248 MiB given to the printing process from OS
             0 MiB allocation reported by mallinfo(arena+hblkhd)
        479606 MiB available memory on the node where the printing process lives
------------------
     ethr =  6.25E-07,  avg # of iterations =  7.9

     negative rho (up, down):  1.596E-04 0.000E+00

     add environment contribution to local potential

     total cpu time spent up to now is      502.7 secs

     total energy              =    -240.75965968 Ry
     estimated scf accuracy    <       0.00021373 Ry

     total charge of GC-SCF    =      -3.29999883 e
     the Fermi energy          =      -1.40391539 eV
                        (error :       0.00008461 eV)
     electrostatic embedding   =      -3.28428555 Ry
     cavitation energy         =       0.01235683 Ry
     electrolyte free energy   =      -0.07595506 Ry
     correction to one-el term =      92.45408105 Ry

     iteration # 24     ecut=    80.00 Ry     beta= 0.20
     Davidson diagonalization with overlap

---- Real-time Memory Report at c_bands before calling an iterative solver
           248 MiB given to the printing process from OS
             0 MiB allocation reported by mallinfo(arena+hblkhd)
        479611 MiB available memory on the node where the printing process lives
------------------
     ethr =  4.17E-07,  avg # of iterations =  4.3

     negative rho (up, down):  1.594E-04 0.000E+00

     add environment contribution to local potential

     total cpu time spent up to now is      514.7 secs

     total energy              =    -240.75367039 Ry
     estimated scf accuracy    <       0.00030303 Ry

     total charge of GC-SCF    =      -3.26478773 e
     the Fermi energy          =      -1.44115073 eV
                        (error :       0.03715073 eV)
     electrostatic embedding   =      -3.13279998 Ry
     cavitation energy         =       0.01235683 Ry
     electrolyte free energy   =      -0.06832041 Ry
     correction to one-el term =      90.44689868 Ry

     iteration # 25     ecut=    80.00 Ry     beta= 0.20
     Davidson diagonalization with overlap

---- Real-time Memory Report at c_bands before calling an iterative solver
           248 MiB given to the printing process from OS
             0 MiB allocation reported by mallinfo(arena+hblkhd)
        479616 MiB available memory on the node where the printing process lives
------------------
     ethr =  4.17E-07,  avg # of iterations =  7.6

     negative rho (up, down):  1.572E-04 0.000E+00

     add environment contribution to local potential

     total cpu time spent up to now is      531.5 secs

     total energy              =    -240.75363850 Ry
     estimated scf accuracy    <       0.00005846 Ry

     total charge of GC-SCF    =      -3.35816042 e
     the Fermi energy          =      -1.57090700 eV
                        (error :       0.16690700 eV)
     electrostatic embedding   =      -3.03890549 Ry
     cavitation energy         =       0.01235683 Ry
     electrolyte free energy   =      -0.06536068 Ry
     correction to one-el term =      88.37499552 Ry

     iteration # 26     ecut=    80.00 Ry     beta= 0.20
     Davidson diagonalization with overlap

---- Real-time Memory Report at c_bands before calling an iterative solver
           248 MiB given to the printing process from OS
             0 MiB allocation reported by mallinfo(arena+hblkhd)
        479612 MiB available memory on the node where the printing process lives
------------------
     ethr =  1.14E-07,  avg # of iterations =  7.3

     negative rho (up, down):  1.530E-04 0.000E+00

     add environment contribution to local potential

     total cpu time spent up to now is      548.2 secs

     total energy              =    -240.75571227 Ry
     estimated scf accuracy    <       0.00002237 Ry

     total charge of GC-SCF    =      -3.38513404 e
     the Fermi energy          =      -1.48142247 eV
                        (error :       0.07742247 eV)
     electrostatic embedding   =      -3.21167484 Ry
     cavitation energy         =       0.01235683 Ry
     electrolyte free energy   =      -0.07262834 Ry
     correction to one-el term =      91.13921502 Ry

     iteration # 27     ecut=    80.00 Ry     beta= 0.20
     Davidson diagonalization with overlap

---- Real-time Memory Report at c_bands before calling an iterative solver
           248 MiB given to the printing process from OS
             0 MiB allocation reported by mallinfo(arena+hblkhd)
        479592 MiB available memory on the node where the printing process lives
------------------
     ethr =  4.35E-08,  avg # of iterations =  5.4

     negative rho (up, down):  1.564E-04 0.000E+00

     add environment contribution to local potential

     total cpu time spent up to now is      562.3 secs

     total energy              =    -240.75679173 Ry
     estimated scf accuracy    <       0.00001184 Ry

     total charge of GC-SCF    =      -3.48028964 e
     the Fermi energy          =      -1.46872695 eV
                        (error :       0.06472695 eV)
     electrostatic embedding   =      -3.25925318 Ry
     cavitation energy         =       0.01235683 Ry
     electrolyte free energy   =      -0.07496401 Ry
     correction to one-el term =      91.80445542 Ry

     iteration # 28     ecut=    80.00 Ry     beta= 0.20
     Davidson diagonalization with overlap

---- Real-time Memory Report at c_bands before calling an iterative solver
           248 MiB given to the printing process from OS
             0 MiB allocation reported by mallinfo(arena+hblkhd)
        479606 MiB available memory on the node where the printing process lives
------------------
     ethr =  2.30E-08,  avg # of iterations =  7.0

     negative rho (up, down):  1.541E-04 0.000E+00

     add environment contribution to local potential

     total cpu time spent up to now is      579.0 secs

     total energy              =    -240.75718050 Ry
     estimated scf accuracy    <       0.00000228 Ry

     total charge of GC-SCF    =      -3.41325175 e
     the Fermi energy          =      -1.40211537 eV
                        (error :       0.00188463 eV)
     electrostatic embedding   =      -3.42192300 Ry
     cavitation energy         =       0.01235683 Ry
     electrolyte free energy   =      -0.08771115 Ry
     correction to one-el term =      94.07984035 Ry

     iteration # 29     ecut=    80.00 Ry     beta= 0.20
     Davidson diagonalization with overlap

---- Real-time Memory Report at c_bands before calling an iterative solver
           248 MiB given to the printing process from OS
             0 MiB allocation reported by mallinfo(arena+hblkhd)
        479605 MiB available memory on the node where the printing process lives
------------------
     ethr =  4.44E-09,  avg # of iterations = 10.3

     negative rho (up, down):  1.524E-04 0.000E+00

     add environment contribution to local potential
  Warning: Electrolyte charge not converged


     total cpu time spent up to now is      683.1 secs

     total energy              =    -240.75665337 Ry
     estimated scf accuracy    <       0.00000178 Ry

     total charge of GC-SCF    =      -3.49007675 e
     the Fermi energy          =      -1.45554556 eV
                        (error :       0.05154556 eV)
     electrostatic embedding   =      -3.30836456 Ry
     cavitation energy         =       0.01235683 Ry
     electrolyte free energy   =      -0.07764785 Ry
     correction to one-el term =      92.49320299 Ry

     iteration # 30     ecut=    80.00 Ry     beta= 0.20
     Davidson diagonalization with overlap

---- Real-time Memory Report at c_bands before calling an iterative solver
           248 MiB given to the printing process from OS
             0 MiB allocation reported by mallinfo(arena+hblkhd)
        479569 MiB available memory on the node where the printing process lives
------------------
     ethr =  3.46E-09,  avg # of iterations = 11.7

     negative rho (up, down):  1.521E-04 0.000E+00

     add environment contribution to local potential

     total cpu time spent up to now is      755.3 secs

     total energy              =    -240.75749954 Ry
     estimated scf accuracy    <       0.00000102 Ry

     total charge of GC-SCF    =      -3.54015202 e
     the Fermi energy          =      -1.44777090 eV
                        (error :       0.04377090 eV)
     electrostatic embedding   =      -3.45104569 Ry
     cavitation energy         =       0.01235683 Ry
     electrolyte free energy   =      -0.07586398 Ry
     correction to one-el term =      94.47234319 Ry

     iteration # 31     ecut=    80.00 Ry     beta= 0.20
     Davidson diagonalization with overlap

---- Real-time Memory Report at c_bands before calling an iterative solver
           248 MiB given to the printing process from OS
             0 MiB allocation reported by mallinfo(arena+hblkhd)
        479560 MiB available memory on the node where the printing process lives
------------------
     ethr =  1.99E-09,  avg # of iterations = 35.4

     negative rho (up, down):  4.095E-04 0.000E+00

     add environment contribution to local potential

     total cpu time spent up to now is      857.1 secs

     total energy              =    -240.99843835 Ry
     estimated scf accuracy    <       0.00314715 Ry

     total charge of GC-SCF    =      -3.53953480 e
     the Fermi energy          =      -2.62589144 eV
                        (error :       1.22189144 eV)
     electrostatic embedding   =      -3.52488134 Ry
     cavitation energy         =       0.01235683 Ry
     electrolyte free energy   =      -0.24829468 Ry
     correction to one-el term =     100.09038339 Ry

     iteration # 32     ecut=    80.00 Ry     beta= 0.20
     Davidson diagonalization with overlap

---- Real-time Memory Report at c_bands before calling an iterative solver
           248 MiB given to the printing process from OS
             0 MiB allocation reported by mallinfo(arena+hblkhd)
        479541 MiB available memory on the node where the printing process lives
------------------
     ethr =  1.99E-09,  avg # of iterations = 12.8

     negative rho (up, down):  9.131E-04 0.000E+00

     add environment contribution to local potential

     total cpu time spent up to now is      874.7 secs

     total energy              =    -240.97169445 Ry
     estimated scf accuracy    <       0.00365285 Ry

     total charge of GC-SCF    =      -3.45537490 e
     the Fermi energy          =      -2.63458170 eV
                        (error :       1.23058170 eV)
     electrostatic embedding   =      -3.52510639 Ry
     cavitation energy         =       0.01235683 Ry
     electrolyte free energy   =      -0.24827695 Ry
     correction to one-el term =     100.09993870 Ry

     iteration # 33     ecut=    80.00 Ry     beta= 0.20
     Davidson diagonalization with overlap

---- Real-time Memory Report at c_bands before calling an iterative solver
           248 MiB given to the printing process from OS
             0 MiB allocation reported by mallinfo(arena+hblkhd)
        479558 MiB available memory on the node where the printing process lives
------------------
     ethr =  1.99E-09,  avg # of iterations = 28.4

     negative rho (up, down):  1.875E-03 0.000E+00

     add environment contribution to local potential

     total cpu time spent up to now is      913.5 secs

     total energy              =    -240.75708078 Ry
     estimated scf accuracy    <       0.00000309 Ry

     total charge of GC-SCF    =      -3.40157464 e
     the Fermi energy          =      -1.41947326 eV
                        (error :       0.01547326 eV)
     electrostatic embedding   =      -3.38366872 Ry
     cavitation energy         =       0.01235683 Ry
     electrolyte free energy   =      -0.08264496 Ry
     correction to one-el term =      93.57699255 Ry

     iteration # 34     ecut=    80.00 Ry     beta= 0.20
     Davidson diagonalization with overlap

---- Real-time Memory Report at c_bands before calling an iterative solver
           249 MiB given to the printing process from OS
             0 MiB allocation reported by mallinfo(arena+hblkhd)
        479560 MiB available memory on the node where the printing process lives
------------------
     ethr =  1.99E-09,  avg # of iterations = 14.2

     negative rho (up, down):  2.865E-03 0.000E+00

     add environment contribution to local potential

     total cpu time spent up to now is      934.7 secs

     total energy              =    -240.75664490 Ry
     estimated scf accuracy    <       0.00000168 Ry

     total charge of GC-SCF    =      -3.37781062 e
     the Fermi energy          =      -1.46365746 eV
                        (error :       0.05965746 eV)
     electrostatic embedding   =      -3.29013052 Ry
     cavitation energy         =       0.01235683 Ry
     electrolyte free energy   =      -0.07653199 Ry
     correction to one-el term =      92.20454618 Ry

     iteration # 35     ecut=    80.00 Ry     beta= 0.20
     Davidson diagonalization with overlap

---- Real-time Memory Report at c_bands before calling an iterative solver
           249 MiB given to the printing process from OS
             0 MiB allocation reported by mallinfo(arena+hblkhd)
        479530 MiB available memory on the node where the printing process lives
------------------
     ethr =  1.99E-09,  avg # of iterations = 10.3

     negative rho (up, down):  4.631E-03 0.000E+00

     add environment contribution to local potential

     total cpu time spent up to now is      953.0 secs

     total energy              =    -240.75626863 Ry
     estimated scf accuracy    <       0.00000258 Ry

     total charge of GC-SCF    =      -3.36929019 e
     the Fermi energy          =      -1.47689786 eV
                        (error :       0.07289786 eV)
     electrostatic embedding   =      -3.25225986 Ry
     cavitation energy         =       0.01235683 Ry
     electrolyte free energy   =      -0.07437377 Ry
     correction to one-el term =      91.68546824 Ry

     iteration # 36     ecut=    80.00 Ry     beta= 0.20
     Davidson diagonalization with overlap

---- Real-time Memory Report at c_bands before calling an iterative solver
           249 MiB given to the printing process from OS
             0 MiB allocation reported by mallinfo(arena+hblkhd)
        479533 MiB available memory on the node where the printing process lives
------------------
     ethr =  1.99E-09,  avg # of iterations = 10.2

     negative rho (up, down):  5.937E-03 0.000E+00

     add environment contribution to local potential

     total cpu time spent up to now is      970.5 secs

     total energy              =    -240.75610668 Ry
     estimated scf accuracy    <       0.00000443 Ry

     total charge of GC-SCF    =      -3.37081212 e
     the Fermi energy          =      -1.47684161 eV
                        (error :       0.07284161 eV)
     electrostatic embedding   =      -3.24405219 Ry
     cavitation energy         =       0.01235683 Ry
     electrolyte free energy   =      -0.07369789 Ry
     correction to one-el term =      91.61708233 Ry

     iteration # 37     ecut=    80.00 Ry     beta= 0.20
     Davidson diagonalization with overlap

---- Real-time Memory Report at c_bands before calling an iterative solver
           249 MiB given to the printing process from OS
             0 MiB allocation reported by mallinfo(arena+hblkhd)
        479533 MiB available memory on the node where the printing process lives
------------------
     ethr =  1.99E-09,  avg # of iterations =  9.9

     negative rho (up, down):  6.134E-03 0.000E+00

     add environment contribution to local potential

     total cpu time spent up to now is      987.1 secs

     total energy              =    -240.75635293 Ry
     estimated scf accuracy    <       0.00000556 Ry

     total charge of GC-SCF    =      -3.35865944 e
     the Fermi energy          =      -1.47355943 eV
                        (error :       0.06955943 eV)
     electrostatic embedding   =      -3.25113688 Ry
     cavitation energy         =       0.01235683 Ry
     electrolyte free energy   =      -0.07387821 Ry
     correction to one-el term =      91.74273986 Ry

     iteration # 38     ecut=    80.00 Ry     beta= 0.20
     Davidson diagonalization with overlap

---- Real-time Memory Report at c_bands before calling an iterative solver
           249 MiB given to the printing process from OS
             0 MiB allocation reported by mallinfo(arena+hblkhd)
        479534 MiB available memory on the node where the printing process lives
------------------
     ethr =  1.99E-09,  avg # of iterations =  7.6

     negative rho (up, down):  6.322E-03 0.000E+00

     add environment contribution to local potential

     total cpu time spent up to now is     1002.6 secs

     total energy              =    -240.75618013 Ry
     estimated scf accuracy    <       0.00000542 Ry

     total charge of GC-SCF    =      -3.35523285 e
     the Fermi energy          =      -1.48141789 eV
                        (error :       0.07741789 eV)
     electrostatic embedding   =      -3.23100931 Ry
     cavitation energy         =       0.01235683 Ry
     electrolyte free energy   =      -0.07285206 Ry
     correction to one-el term =      91.45506395 Ry

     iteration # 39     ecut=    80.00 Ry     beta= 0.20
     Davidson diagonalization with overlap

---- Real-time Memory Report at c_bands before calling an iterative solver
           249 MiB given to the printing process from OS
             0 MiB allocation reported by mallinfo(arena+hblkhd)
        479535 MiB available memory on the node where the printing process lives
------------------
     ethr =  1.99E-09,  avg # of iterations =  6.3

     negative rho (up, down):  6.318E-03 0.000E+00

     add environment contribution to local potential

     total cpu time spent up to now is     1014.7 secs

     total energy              =    -240.75607362 Ry
     estimated scf accuracy    <       0.00000578 Ry

     total charge of GC-SCF    =      -3.35823260 e
     the Fermi energy          =      -1.48297028 eV
                        (error :       0.07897028 eV)
     electrostatic embedding   =      -3.22592980 Ry
     cavitation energy         =       0.01235683 Ry
     electrolyte free energy   =      -0.07257491 Ry
     correction to one-el term =      91.38775239 Ry

     iteration # 40     ecut=    80.00 Ry     beta= 0.20
     Davidson diagonalization with overlap

---- Real-time Memory Report at c_bands before calling an iterative solver
           249 MiB given to the printing process from OS
             0 MiB allocation reported by mallinfo(arena+hblkhd)
        479537 MiB available memory on the node where the printing process lives
------------------
     ethr =  1.99E-09,  avg # of iterations =  4.8

     negative rho (up, down):  3.741E-04 0.000E+00

     add environment contribution to local potential
  Warning: Electrolyte charge not converged


     total cpu time spent up to now is     1111.0 secs

     total energy              =    -240.75850439 Ry
     estimated scf accuracy    <       0.00000571 Ry

     total charge of GC-SCF    =      -3.50918153 e
     the Fermi energy          =      -1.48109635 eV
                        (error :       0.07709635 eV)
     electrostatic embedding   =      -3.23102508 Ry
     cavitation energy         =       0.01235683 Ry
     electrolyte free energy   =      -0.07282379 Ry
     correction to one-el term =      91.46127890 Ry

     iteration # 41     ecut=    80.00 Ry     beta= 0.20
     Davidson diagonalization with overlap

---- Real-time Memory Report at c_bands before calling an iterative solver
           249 MiB given to the printing process from OS
             0 MiB allocation reported by mallinfo(arena+hblkhd)
        479507 MiB available memory on the node where the printing process lives
------------------
     ethr =  1.99E-09,  avg # of iterations = 18.9

     negative rho (up, down):  1.152E-03 0.000E+00

     add environment contribution to local potential

     total cpu time spent up to now is     1137.7 secs

     total energy              =    -240.75692512 Ry
     estimated scf accuracy    <       0.00000036 Ry

     total charge of GC-SCF    =      -3.43969416 e
     the Fermi energy          =      -1.38117121 eV
                        (error :       0.02282879 eV)
     electrostatic embedding   =      -3.46264908 Ry
     cavitation energy         =       0.01235683 Ry
     electrolyte free energy   =      -0.09193739 Ry
     correction to one-el term =      94.55928599 Ry

     iteration # 42     ecut=    80.00 Ry     beta= 0.20
     Davidson diagonalization with overlap

---- Real-time Memory Report at c_bands before calling an iterative solver
           249 MiB given to the printing process from OS
             0 MiB allocation reported by mallinfo(arena+hblkhd)
        479453 MiB available memory on the node where the printing process lives
------------------
     ethr =  6.90E-10,  avg # of iterations = 16.6

     negative rho (up, down):  4.502E-04 0.000E+00

     add environment contribution to local potential
  Warning: Electrolyte charge not converged


     total cpu time spent up to now is     1250.1 secs

     total energy              =    -240.75631210 Ry
     estimated scf accuracy    <       0.00000071 Ry

     total charge of GC-SCF    =      -3.48612304 e
     the Fermi energy          =      -1.44226810 eV
                        (error :       0.03826810 eV)
     electrostatic embedding   =      -3.35009244 Ry
     cavitation energy         =       0.01235683 Ry
     electrolyte free energy   =      -0.08054636 Ry
     correction to one-el term =      93.00306197 Ry

     iteration # 43     ecut=    80.00 Ry     beta= 0.20
     Davidson diagonalization with overlap

---- Real-time Memory Report at c_bands before calling an iterative solver
           249 MiB given to the printing process from OS
             0 MiB allocation reported by mallinfo(arena+hblkhd)
        479487 MiB available memory on the node where the printing process lives
------------------
     ethr =  6.90E-10,  avg # of iterations = 17.3

     negative rho (up, down):  4.599E-04 0.000E+00

     add environment contribution to local potential

     total cpu time spent up to now is     1296.0 secs

     total energy              =    -240.75783748 Ry
     estimated scf accuracy    <       0.00000328 Ry

     total charge of GC-SCF    =      -3.49464773 e
     the Fermi energy          =      -1.47196221 eV
                        (error :       0.06796221 eV)
     electrostatic embedding   =      -3.44623657 Ry
     cavitation energy         =       0.01235683 Ry
     electrolyte free energy   =      -0.06944844 Ry
     correction to one-el term =      94.33740417 Ry

     iteration # 44     ecut=    80.00 Ry     beta= 0.20
     Davidson diagonalization with overlap

---- Real-time Memory Report at c_bands before calling an iterative solver
           249 MiB given to the printing process from OS
             0 MiB allocation reported by mallinfo(arena+hblkhd)
        479440 MiB available memory on the node where the printing process lives
------------------
     ethr =  6.90E-10,  avg # of iterations = 33.3

     negative rho (up, down):  3.727E-04 0.000E+00

     add environment contribution to local potential

     total cpu time spent up to now is     1345.8 secs

     total energy              =    -240.99937062 Ry
     estimated scf accuracy    <       0.00390801 Ry

     total charge of GC-SCF    =      -3.49548005 e
     the Fermi energy          =      -2.64412429 eV
                        (error :       1.24012429 eV)
     electrostatic embedding   =      -3.43425233 Ry
     cavitation energy         =       0.01235683 Ry
     electrolyte free energy   =      -0.24834677 Ry
     correction to one-el term =      98.79071304 Ry

     iteration # 45     ecut=    80.00 Ry     beta= 0.20
     Davidson diagonalization with overlap

---- Real-time Memory Report at c_bands before calling an iterative solver
           249 MiB given to the printing process from OS
             0 MiB allocation reported by mallinfo(arena+hblkhd)
        479437 MiB available memory on the node where the printing process lives
------------------
     ethr =  6.90E-10,  avg # of iterations = 10.7

     negative rho (up, down):  8.237E-04 0.000E+00

     add environment contribution to local potential

     total cpu time spent up to now is     1362.7 secs

     total energy              =    -240.99482650 Ry
     estimated scf accuracy    <       0.00406308 Ry

     total charge of GC-SCF    =      -3.47913584 e
     the Fermi energy          =      -2.64614505 eV
                        (error :       1.24214505 eV)
     electrostatic embedding   =      -3.43483704 Ry
     cavitation energy         =       0.01235683 Ry
     electrolyte free energy   =      -0.24835995 Ry
     correction to one-el term =      98.79389237 Ry

     iteration # 46     ecut=    80.00 Ry     beta= 0.20
     Davidson diagonalization with overlap

---- Real-time Memory Report at c_bands before calling an iterative solver
           249 MiB given to the printing process from OS
             0 MiB allocation reported by mallinfo(arena+hblkhd)
        479436 MiB available memory on the node where the printing process lives
------------------
     ethr =  6.90E-10,  avg # of iterations = 27.9

     negative rho (up, down):  2.150E-04 0.000E+00

     add environment contribution to local potential

     total cpu time spent up to now is     1462.2 secs

     total energy              =    -240.75620552 Ry
     estimated scf accuracy    <       0.00000005 Ry

     total charge of GC-SCF    =      -3.49401783 e
     the Fermi energy          =      -1.40553197 eV
                        (error :       0.00153197 eV)
     electrostatic embedding   =      -3.41507107 Ry
     cavitation energy         =       0.01235683 Ry
     electrolyte free energy   =      -0.08727162 Ry
     correction to one-el term =      93.91664499 Ry

     iteration # 47     ecut=    80.00 Ry     beta= 0.20
     Davidson diagonalization with overlap

---- Real-time Memory Report at c_bands before calling an iterative solver
           249 MiB given to the printing process from OS
             0 MiB allocation reported by mallinfo(arena+hblkhd)
        479374 MiB available memory on the node where the printing process lives
------------------
     ethr =  9.20E-11,  avg # of iterations = 36.8

     negative rho (up, down):  7.793E-04 0.000E+00

     add environment contribution to local potential

     total cpu time spent up to now is     1513.6 secs

     total energy              =    -240.99603600 Ry
     estimated scf accuracy    <       0.00377667 Ry

     total charge of GC-SCF    =      -3.48187233 e
     the Fermi energy          =      -2.64175530 eV
                        (error :       1.23775530 eV)
     electrostatic embedding   =      -3.43206530 Ry
     cavitation energy         =       0.01235683 Ry
     electrolyte free energy   =      -0.24835543 Ry
     correction to one-el term =      98.75582678 Ry

     iteration # 48     ecut=    80.00 Ry     beta= 0.20
     Davidson diagonalization with overlap

---- Real-time Memory Report at c_bands before calling an iterative solver
           249 MiB given to the printing process from OS
             0 MiB allocation reported by mallinfo(arena+hblkhd)
        479382 MiB available memory on the node where the printing process lives
------------------
     ethr =  9.20E-11,  avg # of iterations = 30.6

     negative rho (up, down):  1.054E-03 0.000E+00

     add environment contribution to local potential

     total cpu time spent up to now is     1559.1 secs

     total energy              =    -240.75615513 Ry
     estimated scf accuracy    <       0.00000012 Ry

     total charge of GC-SCF    =      -3.47560007 e
     the Fermi energy          =      -1.40001283 eV
                        (error :       0.00398717 eV)
     electrostatic embedding   =      -3.41908740 Ry
     cavitation energy         =       0.01235683 Ry
     electrolyte free energy   =      -0.08849708 Ry
     correction to one-el term =      93.97341698 Ry

     iteration # 49     ecut=    80.00 Ry     beta= 0.20
     Davidson diagonalization with overlap

---- Real-time Memory Report at c_bands before calling an iterative solver
           249 MiB given to the printing process from OS
             0 MiB allocation reported by mallinfo(arena+hblkhd)
        479385 MiB available memory on the node where the printing process lives
------------------
     ethr =  9.20E-11,  avg # of iterations = 12.5

     negative rho (up, down):  1.276E-03 0.000E+00

     add environment contribution to local potential

     total cpu time spent up to now is     1579.3 secs

     total energy              =    -240.75618238 Ry
     estimated scf accuracy    <       0.00000014 Ry

     total charge of GC-SCF    =      -3.47240747 e
     the Fermi energy          =      -1.40910455 eV
                        (error :       0.00510455 eV)
     electrostatic embedding   =      -3.41085113 Ry
     cavitation energy         =       0.01235683 Ry
     electrolyte free energy   =      -0.08625333 Ry
     correction to one-el term =      93.86434563 Ry

     iteration # 50     ecut=    80.00 Ry     beta= 0.20
     Davidson diagonalization with overlap

---- Real-time Memory Report at c_bands before calling an iterative solver
           249 MiB given to the printing process from OS
             0 MiB allocation reported by mallinfo(arena+hblkhd)
        479387 MiB available memory on the node where the printing process lives
------------------
     ethr =  9.20E-11,  avg # of iterations = 10.6

     negative rho (up, down):  1.134E-03 0.000E+00

     add environment contribution to local potential

     total cpu time spent up to now is     1597.3 secs

     total energy              =    -240.75618207 Ry
     estimated scf accuracy    <       0.00000022 Ry

     total charge of GC-SCF    =      -3.47337185 e
     the Fermi energy          =      -1.41211958 eV
                        (error :       0.00811958 eV)
     electrostatic embedding   =      -3.40643502 Ry
     cavitation energy         =       0.01235683 Ry
     electrolyte free energy   =      -0.08551895 Ry
     correction to one-el term =      93.80720006 Ry

     iteration # 51     ecut=    80.00 Ry     beta= 0.20
     Davidson diagonalization with overlap

---- Real-time Memory Report at c_bands before calling an iterative solver
           249 MiB given to the printing process from OS
             0 MiB allocation reported by mallinfo(arena+hblkhd)
        479380 MiB available memory on the node where the printing process lives
------------------
     ethr =  9.20E-11,  avg # of iterations = 11.0

     negative rho (up, down):  1.015E-03 0.000E+00

     add environment contribution to local potential

     total cpu time spent up to now is     1614.6 secs

     total energy              =    -240.75617925 Ry
     estimated scf accuracy    <       0.00000015 Ry

     total charge of GC-SCF    =      -3.47547906 e
     the Fermi energy          =      -1.41164616 eV
                        (error :       0.00764616 eV)
     electrostatic embedding   =      -3.40720027 Ry
     cavitation energy         =       0.01235683 Ry
     electrolyte free energy   =      -0.08572298 Ry
     correction to one-el term =      93.81184401 Ry

     iteration # 52     ecut=    80.00 Ry     beta= 0.20
     Davidson diagonalization with overlap

---- Real-time Memory Report at c_bands before calling an iterative solver
           249 MiB given to the printing process from OS
             0 MiB allocation reported by mallinfo(arena+hblkhd)
        479340 MiB available memory on the node where the printing process lives
------------------
     ethr =  9.20E-11,  avg # of iterations =  9.4

     negative rho (up, down):  4.759E-04 0.000E+00

     add environment contribution to local potential

     total cpu time spent up to now is     1631.5 secs

     total energy              =    -240.75617394 Ry
     estimated scf accuracy    <       0.00000011 Ry

     total charge of GC-SCF    =      -3.48240132 e
     the Fermi energy          =      -1.40957577 eV
                        (error :       0.00557577 eV)
     electrostatic embedding   =      -3.41002816 Ry
     cavitation energy         =       0.01235683 Ry
     electrolyte free energy   =      -0.08621620 Ry
     correction to one-el term =      93.84762368 Ry

     iteration # 53     ecut=    80.00 Ry     beta= 0.20
     Davidson diagonalization with overlap

---- Real-time Memory Report at c_bands before calling an iterative solver
           249 MiB given to the printing process from OS
             0 MiB allocation reported by mallinfo(arena+hblkhd)
        479335 MiB available memory on the node where the printing process lives
------------------
     ethr =  9.20E-11,  avg # of iterations = 14.3

     negative rho (up, down):  1.405E-04 0.000E+00

[...]

   -48.1647 -48.1636 -48.1620 -48.1610 -48.1602 -48.1598 -48.1591 -48.1588
   -47.9115 -47.9066 -47.9065 -47.9039 -47.9038 -47.9036 -47.9023 -47.8997
    -3.9839  -3.4977  -3.1153  -2.7668  -2.7482  -2.5977  -2.2802  -1.9946
    -1.8759  -1.7699  -1.4847  -1.4035  -1.1670  -0.9252  -0.6243  -0.6110
    -0.0868   0.1861   0.2445   0.2790

     occupation numbers 
     1.0000   1.0000   1.0000   1.0000   1.0000   1.0000   1.0000   1.0000
     1.0000   1.0000   1.0000   1.0000   1.0000   1.0000   1.0000   1.0000
     1.0000   1.0000   1.0000   1.0000   1.0000   1.0000   1.0000   1.0000
     1.0001   1.0053   0.8298   0.3981   0.0013   0.0000   0.0000   0.0000
     0.0000   0.0000   0.0000   0.0000

          k = 0.4545-0.1286 0.0000 (128342 PWs)   bands (ev):

   -48.1655 -48.1645 -48.1631 -48.1620 -48.1591 -48.1590 -48.1580 -48.1579
   -47.9124 -47.9080 -47.9054 -47.9048 -47.9045 -47.9028 -47.9013 -47.8989
    -4.0938  -3.6130  -3.1032  -2.8750  -2.7930  -2.6183  -2.2677  -2.1313
    -1.8345  -1.4168  -1.3317  -1.3036  -0.9903  -0.9010  -0.5349  -0.2599
    -0.1234   0.0507   0.1306   0.3147

     occupation numbers 
     1.0000   1.0000   1.0000   1.0000   1.0000   1.0000   1.0000   1.0000
     1.0000   1.0000   1.0000   1.0000   1.0000   1.0000   1.0000   1.0000
     1.0000   1.0000   1.0000   1.0000   1.0000   1.0000   1.0000   1.0000
     1.0007   0.4672   0.1260   0.0700   0.0000   0.0000   0.0000   0.0000
     0.0000   0.0000   0.0000   0.0000

          k = 0.4545-0.0321 0.0000 (128335 PWs)   bands (ev):

   -48.1662 -48.1651 -48.1640 -48.1629 -48.1584 -48.1582 -48.1573 -48.1571
   -47.9129 -47.9093 -47.9055 -47.9049 -47.9042 -47.9025 -47.9003 -47.8982
    -4.1444  -3.6672  -3.3772  -2.9354  -2.8943  -2.4137  -2.1957  -2.1220
    -1.8832  -1.3676  -1.3033  -1.0135  -0.7491  -0.4512  -0.4430  -0.4221
    -0.2469  -0.0901  -0.0155   0.2932

     occupation numbers 
     1.0000   1.0000   1.0000   1.0000   1.0000   1.0000   1.0000   1.0000
     1.0000   1.0000   1.0000   1.0000   1.0000   1.0000   1.0000   1.0000
     1.0000   1.0000   1.0000   1.0000   1.0000   1.0000   1.0000   1.0000
     1.0001   0.2384   0.0694   0.0000   0.0000   0.0000   0.0000   0.0000
     0.0000   0.0000   0.0000   0.0000

          k = 0.4545 0.0643 0.0000 (128255 PWs)   bands (ev):

   -48.1664 -48.1654 -48.1647 -48.1636 -48.1581 -48.1576 -48.1570 -48.1565
   -47.9131 -47.9103 -47.9060 -47.9052 -47.9032 -47.9027 -47.8996 -47.8979
    -4.1351  -3.6597  -3.5892  -3.1079  -2.9290  -2.3452  -2.1875  -1.9784
    -1.5470  -1.4479  -1.3586  -1.0213  -0.7043  -0.6159  -0.5746  -0.2001
    -0.1663  -0.0119   0.3065   0.3726

     occupation numbers 
     1.0000   1.0000   1.0000   1.0000   1.0000   1.0000   1.0000   1.0000
     1.0000   1.0000   1.0000   1.0000   1.0000   1.0000   1.0000   1.0000
     1.0000   1.0000   1.0000   1.0000   1.0000   1.0000   1.0000   1.0000
     1.0411   0.6374   0.2056   0.0000   0.0000   0.0000   0.0000   0.0000
     0.0000   0.0000   0.0000   0.0000

     the Fermi energy is    -1.4040 ev

!    total energy              =    -240.75616757 Ry
     total all-electron energy =      -240.756298 Ry
     estimated scf accuracy    <          5.5E-13 Ry

!    total charge of GC-SCF    =      -3.48084873 e
     smearing contrib. (-TS)   =      -0.00068039 Ry
     internal energy E=F+TS    =    -240.75548718 Ry

     The total energy is F=E-TS. E is the sum of the following terms:
     one-electron contribution =   -2642.50904593 Ry
     hartree contribution      =    1297.98971668 Ry
     xc contribution           =     -58.36795857 Ry
     ewald contribution        =    1069.92915157 Ry
     one-center paw contrib.   =       1.41124461 Ry
      -> PAW hartree energy AE =       7.45785105 Ry
      -> PAW hartree energy PS =      -7.23520651 Ry
      -> PAW xc energy AE      =      -3.49082224 Ry
      -> PAW xc energy PS      =       3.35638532 Ry
      -> total E_H with PAW    =    1298.21236122 Ry
      -> total E_XC with PAW   =     -58.50239550 Ry
     pot.stat. contrib. (-muN) =       0.35919608 Ry
     electrostatic embedding   =      -3.41627159 Ry
     cavitation energy         =       0.01235683 Ry
     electrolyte free energy   =      -0.08786858 Ry
     correction to one-el term =      93.92399173 Ry

     WARNING: you are using the parabolic pbc correction;
              the potential shift above must be added to 
              band and Fermi energies.

     convergence has been achieved in   8 iterations
     The dielectric solvent contribution to forces
     atom    1 type  1   force =    -0.00000036   -0.00000175    0.16088906
     atom    2 type  1   force =    -0.00000000    0.00000000    0.05505585
     atom    3 type  1   force =    -0.00000000   -0.00000085   -0.05582359
     atom    4 type  1   force =    -0.00000000    0.00000003   -0.16173520
     atom    5 type  1   force =    -0.00000031    0.00000169    0.16088789
     atom    6 type  1   force =    -0.00000000   -0.00000000    0.05505581
     atom    7 type  1   force =     0.00000003    0.00000085   -0.05581944
     atom    8 type  1   force =    -0.00000001   -0.00000002   -0.16173586
     atom    9 type  1   force =     0.00000030   -0.00000169    0.16088790
     atom   10 type  1   force =    -0.00000000    0.00000000    0.05505431
     atom   11 type  1   force =    -0.00000003   -0.00000085   -0.05581945
     atom   12 type  1   force =    -0.00000001    0.00000003   -0.16173396
     atom   13 type  1   force =     0.00000035    0.00000175    0.16088905
     atom   14 type  1   force =    -0.00000000   -0.00000000    0.05505271
     atom   15 type  1   force =     0.00000000    0.00000085   -0.05582359
     atom   16 type  1   force =    -0.00000002   -0.00000003   -0.16173633


     Forces acting on atoms (cartesian axes, Ry/au):

     atom    1 type  1   force =     0.00000169    0.00000358    0.00005616
     atom    2 type  1   force =     0.00000000    0.00000000   -0.00031137
     atom    3 type  1   force =    -0.00000092    0.00000760    0.00037590
     atom    4 type  1   force =     0.00000000    0.00000000   -0.00012100
     atom    5 type  1   force =     0.00000278   -0.00000354    0.00005758
     atom    6 type  1   force =     0.00000000    0.00000000   -0.00031609
     atom    7 type  1   force =    -0.00000022   -0.00000734    0.00038144
     atom    8 type  1   force =     0.00000000    0.00000000   -0.00012014
     atom    9 type  1   force =    -0.00000278    0.00000354    0.00005758
     atom   10 type  1   force =     0.00000000    0.00000000   -0.00031624
     atom   11 type  1   force =     0.00000022    0.00000734    0.00038144
     atom   12 type  1   force =     0.00000000    0.00000000   -0.00012485
     atom   13 type  1   force =    -0.00000169   -0.00000358    0.00005616
     atom   14 type  1   force =     0.00000000    0.00000000   -0.00031498
     atom   15 type  1   force =     0.00000092   -0.00000760    0.00037590
     atom   16 type  1   force =     0.00000000    0.00000000   -0.00011750
     The non-local contrib.  to forces
     atom    1 type  1   force =     0.00000186    0.00000704   -0.02932615
     atom    2 type  1   force =     0.00000000    0.00000000    0.00145208
     atom    3 type  1   force =     0.00000046    0.00001000   -0.00136635
     atom    4 type  1   force =     0.00000000    0.00000000    0.02923753
     atom    5 type  1   force =     0.00000079   -0.00000395   -0.02932694
     atom    6 type  1   force =     0.00000000    0.00000000    0.00144844
     atom    7 type  1   force =    -0.00000001   -0.00001091   -0.00136390
     atom    8 type  1   force =     0.00000000    0.00000000    0.02924391
     atom    9 type  1   force =    -0.00000079    0.00000395   -0.02932694
     atom   10 type  1   force =     0.00000000    0.00000000    0.00145367
     atom   11 type  1   force =     0.00000001    0.00001091   -0.00136390
     atom   12 type  1   force =     0.00000000    0.00000000    0.02923550
     atom   13 type  1   force =    -0.00000186   -0.00000704   -0.02932615
     atom   14 type  1   force =     0.00000000    0.00000000    0.00145045
     atom   15 type  1   force =    -0.00000046   -0.00001000   -0.00136635
     atom   16 type  1   force =     0.00000000    0.00000000    0.02924269
     The ionic contribution  to forces
     atom    1 type  1   force =     0.00004570    0.00011086   -8.97405869
     atom    2 type  1   force =    -0.00000006   -0.00000006   -3.00439292
     atom    3 type  1   force =    -0.00001234    0.00020444    3.00498645
     atom    4 type  1   force =    -0.00000004   -0.00000011    8.97356404
     atom    5 type  1   force =     0.00005465   -0.00009075   -8.97418460
     atom    6 type  1   force =     0.00000006    0.00000007   -3.00447371
     atom    7 type  1   force =    -0.00000661   -0.00020425    3.00481154
     atom    8 type  1   force =     0.00000004    0.00000011    8.97362674
     atom    9 type  1   force =    -0.00005468    0.00009073   -8.97418442
     atom   10 type  1   force =    -0.00000001   -0.00000005   -3.00434569
     atom   11 type  1   force =     0.00000657    0.00020423    3.00481162
     atom   12 type  1   force =    -0.00000001   -0.00000011    8.97360823
     atom   13 type  1   force =    -0.00004573   -0.00011087   -8.97405884
     atom   14 type  1   force =     0.00000010    0.00000009   -3.00427607
     atom   15 type  1   force =     0.00001229   -0.00020446    3.00498636
     atom   16 type  1   force =     0.00000007    0.00000013    8.97357996
     The local contribution  to forces
     atom    1 type  1   force =     0.00001010   -0.00012310    8.84255114
     atom    2 type  1   force =     0.00005792   -0.00002187    2.94757378
     atom    3 type  1   force =     0.00006682   -0.00021564   -2.94741994
     atom    4 type  1   force =     0.00005735   -0.00002303   -8.84118636
     atom    5 type  1   force =     0.00000326    0.00007893    8.84268295
     atom    6 type  1   force =     0.00010289   -0.00001644    2.94765352
     atom    7 type  1   force =     0.00006224    0.00019726   -2.94724468
     atom    8 type  1   force =     0.00010407   -0.00001409   -8.84125393
     atom    9 type  1   force =     0.00010796   -0.00009999    8.84267933
     atom   10 type  1   force =     0.00005868   -0.00002129    2.94752164
     atom   11 type  1   force =     0.00004954   -0.00021660   -2.94724589
     atom   12 type  1   force =     0.00005811   -0.00002244   -8.84123367
     atom   13 type  1   force =     0.00010112    0.00010204    8.84255295
     atom   14 type  1   force =     0.00010365   -0.00001586    2.94745807
     atom   15 type  1   force =     0.00004496    0.00019630   -2.94741813
     atom   16 type  1   force =     0.00010483   -0.00001292   -8.84120276
     The core correction contribution to forces
     atom    1 type  1   force =     0.00000000    0.00000000    0.00000000
     atom    2 type  1   force =     0.00000000    0.00000000    0.00000000
     atom    3 type  1   force =     0.00000000    0.00000000    0.00000000
     atom    4 type  1   force =     0.00000000    0.00000000    0.00000000
     atom    5 type  1   force =     0.00000000    0.00000000    0.00000000
     atom    6 type  1   force =     0.00000000    0.00000000    0.00000000
     atom    7 type  1   force =     0.00000000    0.00000000    0.00000000
     atom    8 type  1   force =     0.00000000    0.00000000    0.00000000
     atom    9 type  1   force =     0.00000000    0.00000000    0.00000000
     atom   10 type  1   force =     0.00000000    0.00000000    0.00000000
     atom   11 type  1   force =     0.00000000    0.00000000    0.00000000
     atom   12 type  1   force =     0.00000000    0.00000000    0.00000000
     atom   13 type  1   force =     0.00000000    0.00000000    0.00000000
     atom   14 type  1   force =     0.00000000    0.00000000    0.00000000
     atom   15 type  1   force =     0.00000000    0.00000000    0.00000000
     atom   16 type  1   force =     0.00000000    0.00000000    0.00000000
     The Hubbard contrib.    to forces
     atom    1 type  1   force =     0.00000000    0.00000000    0.00000000
     atom    2 type  1   force =     0.00000000    0.00000000    0.00000000
     atom    3 type  1   force =     0.00000000    0.00000000    0.00000000
     atom    4 type  1   force =     0.00000000    0.00000000    0.00000000
     atom    5 type  1   force =     0.00000000    0.00000000    0.00000000
     atom    6 type  1   force =     0.00000000    0.00000000    0.00000000
     atom    7 type  1   force =     0.00000000    0.00000000    0.00000000
     atom    8 type  1   force =     0.00000000    0.00000000    0.00000000
     atom    9 type  1   force =     0.00000000    0.00000000    0.00000000
     atom   10 type  1   force =     0.00000000    0.00000000    0.00000000
     atom   11 type  1   force =     0.00000000    0.00000000    0.00000000
     atom   12 type  1   force =     0.00000000    0.00000000    0.00000000
     atom   13 type  1   force =     0.00000000    0.00000000    0.00000000
     atom   14 type  1   force =     0.00000000    0.00000000    0.00000000
     atom   15 type  1   force =     0.00000000    0.00000000    0.00000000
     atom   16 type  1   force =     0.00000000    0.00000000    0.00000000
     The SCF correction term to forces
     atom    1 type  1   force =    -0.00000002   -0.00000000    0.00000048
     atom    2 type  1   force =     0.00000000    0.00000000    0.00000032
     atom    3 type  1   force =     0.00000001   -0.00000003   -0.00000104
     atom    4 type  1   force =    -0.00000000    0.00000000   -0.00000053
     atom    5 type  1   force =    -0.00000001    0.00000001    0.00000049
     atom    6 type  1   force =    -0.00000000   -0.00000000    0.00000034
     atom    7 type  1   force =    -0.00000000    0.00000004   -0.00000102
     atom    8 type  1   force =    -0.00000000   -0.00000000   -0.00000050
     atom    9 type  1   force =     0.00000001   -0.00000001    0.00000049
     atom   10 type  1   force =     0.00000000    0.00000000    0.00000032
     atom   11 type  1   force =     0.00000000   -0.00000004   -0.00000102
     atom   12 type  1   force =    -0.00000000    0.00000000   -0.00000047
     atom   13 type  1   force =     0.00000002    0.00000000    0.00000048
     atom   14 type  1   force =    -0.00000000   -0.00000000    0.00000036
     atom   15 type  1   force =    -0.00000001    0.00000003   -0.00000104
     atom   16 type  1   force =    -0.00000000    0.00000000   -0.00000056

     Total force =     0.001020     Total SCF correction =     0.000003
     Energy error            =      1.3E-06 Ry
     Gradient error          =      3.8E-04 Ry/Bohr

     bfgs converged in   6 scf cycles and   5 bfgs steps
     (criteria: energy <  1.0E-05 Ry, force <  3.9E-04 Ry/Bohr)

     End of BFGS Geometry Optimization

     Final energy             =    -240.7561675662 Ry

     File ./Li/Lithium.bfgs deleted, as requested
Begin final coordinates

ATOMIC_POSITIONS (angstrom)
Li               0.9915947093        1.4023540870       19.8979439828
Li               1.9832882700        2.8047934300       22.3312264424
Li               0.9916433165        1.4023073310       24.7975724921
Li               1.9832882800        2.8047934500       27.2333019345
Li              -0.0000185649        4.2072467163       19.8978771855
Li               0.9916443500        5.6095863900       22.3312253469
Li               0.0000238262        4.2072730916       24.7974777918
Li               0.9916443300        5.6095863500       27.2332924773
Li               3.9665951849        1.4023397537       19.8978772455
Li               4.9582206700        2.8047934200       22.3312572295
Li               3.9665527838        1.4023133484       24.7974778118
Li               4.9582206800        2.8047934400       27.2333445924
Li               2.9749819107        4.2072323830       19.8979439528
Li               3.9665767500        5.6095863800       22.3312954095
Li               2.9749332935        4.2072791090       24.7975724621
Li               3.9665767300        5.6095863300       27.2332577000
End final coordinates



     Writing all to output data dir ./Li/Lithium.save/ :
     XML data file
     init_run     :     10.47s CPU     17.70s WALL (       1 calls)
     electrons    :   5358.81s CPU   6492.13s WALL (       6 calls)
     update_pot   :      0.25s CPU      0.31s WALL (       5 calls)
     forces       :     11.17s CPU     11.75s WALL (       6 calls)

     Called by init_run:
     wfcinit      :      1.79s CPU      2.40s WALL (       1 calls)
     wfcinit:wfcr :      1.71s CPU      2.31s WALL (      61 calls)
     potinit      :      0.64s CPU      0.70s WALL (       1 calls)
     hinit0       :      1.09s CPU      1.19s WALL (       1 calls)

     Called by electrons:
     c_bands      :   2286.55s CPU   2892.00s WALL (     142 calls)
     sum_band     :    113.29s CPU    159.25s WALL (     142 calls)
     v_of_rho     :      4.89s CPU      5.99s WALL (     143 calls)
     v_h          :      0.47s CPU      0.57s WALL (     143 calls)
     v_xc         :      4.42s CPU      5.41s WALL (     143 calls)
     newd         :      3.31s CPU      3.46s WALL (     143 calls)
     PAW_pot      :      1.02s CPU      1.38s WALL (     148 calls)
     mix_rho      :     15.90s CPU     24.90s WALL (     142 calls)

     Called by c_bands:
     init_us_2    :      5.51s CPU      6.37s WALL (   18056 calls)
     cegterg      :   2272.76s CPU   2875.28s WALL (   11898 calls)

     Called by sum_band:
     sum_band:wei :      0.32s CPU      0.35s WALL (     142 calls)
     sum_band:loo :    108.71s CPU    154.13s WALL (     142 calls)
     sum_band:buf :      0.84s CPU      1.10s WALL (    8662 calls)
     sum_band:ini :      2.28s CPU      2.83s WALL (    8662 calls)
     sum_band:cal :     11.19s CPU     14.69s WALL (    8967 calls)
     sum_band:bec :      0.32s CPU      0.42s WALL (    8967 calls)
     addusdens    :      3.19s CPU      3.24s WALL (     142 calls)
                                        0.00s GPU  (     142 calls)
     addusd:skk   :      0.42s CPU      0.43s WALL (     142 calls)
                                        0.00s GPU  (     142 calls)

     Called by *egterg:
     cdiaghg      :    504.45s CPU    541.53s WALL (  150315 calls)
     cegterg:over :    124.24s CPU    140.74s WALL (  139310 calls)
     cegterg:upda :    105.13s CPU    110.09s WALL (  139310 calls)
     cegterg:last :     37.50s CPU     38.18s WALL (   19244 calls)
     h_psi        :   1398.07s CPU   1929.35s WALL (  151269 calls)
     s_psi        :     67.55s CPU     77.27s WALL (  151269 calls)
     g_psi        :      2.21s CPU      2.35s WALL (  139310 calls)

     Called by h_psi:
     h_psi:calbec :    116.14s CPU    151.54s WALL (  151269 calls)
     vloc_psi     :   1200.63s CPU   1680.15s WALL (  151269 calls)
                                        0.00s GPU  (  151269 calls)
     add_vuspsi   :     74.74s CPU     90.62s WALL (  151269 calls)

     General routines
     calbec       :    128.57s CPU    167.52s WALL (  161700 calls)
     fft          :      4.79s CPU      6.05s WALL (    1869 calls)
     ffts         :     12.90s CPU     20.27s WALL (   16398 calls)
     fftw         :   1241.98s CPU   1745.42s WALL ( 4165282 calls)
     interpolate  :      1.10s CPU      1.23s WALL (     143 calls)

     Parallel routines

     PAW routines
     PAW_pot      :      1.02s CPU      1.38s WALL (     148 calls)
     PAW_symme    :      0.05s CPU      0.07s WALL (     290 calls)

     Environ routines

     PWSCF        :      1h30m CPU      1h49m WALL


   This run was terminated on:   3:59:55   5Jan2025            

=------------------------------------------------------------------------------=
   JOB DONE.
=------------------------------------------------------------------------------=
