
     Program PWSCF v.7.4 starts on 23Jan2025 at  0:35:54 

     This program is part of the open-source Quantum ESPRESSO suite
     for quantum simulation of materials; please cite
         "P. Giannozzi et al., J. Phys.:Condens. Matter 21 395502 (2009);
         "P. Giannozzi et al., J. Phys.:Condens. Matter 29 465901 (2017);
         "P. Giannozzi et al., J. Chem. Phys. 152 154105 (2020);
          URL http://www.quantum-espresso.org", 
     in publications or presentations arising from this work. More details at
     http://www.quantum-espresso.org/quote

     Parallel version (MPI & OpenMP), running on     384 processor cores
     Number of MPI processes:               384
     Threads/MPI process:                     1

     MPI processes distributed on     2 nodes
     667298 MiB available memory on the printing compute node when the environment starts
 
     Reading input from espresso.pwi
Warning: card &CELL ignored
Warning: card    PRESS_CONV_THR   = 0.1 ignored
Warning: card    CELL_DOFREE      = 'ALL' ignored
Warning: card / ignored
Warning: card &FCP ignored
Warning: card / ignored
Warning: card &RISM ignored
Warning: card / ignored

     Current dimensions of program PWSCF are:
     Max number of different atomic species (ntypx) = 10
     Max number of k-points (npk) =  40000
     Max angular momentum in pseudopotentials (lmaxx) =  4

     IMPORTANT: XC functional enforced from input :
     Exchange-correlation= PBE
                           (   1   4   3   4   0   0   0)
     Any further DFT definition will be discarded
     Please, verify this is what you really want

     Found identity + (  0.5000  0.0000  0.0000) symmetry
     This is a supercell, fractional translations are disabled
     Message from routine setup:
     using ibrav=0 with symmetry is DISCOURAGED, use correct ibrav instead
 
     K-points division:     npool     =       2
     R & G space division:  proc/nbgrp/npool/nimage =     192
     Subspace diagonalization in iterative solution of the eigenvalue problem:
     a serial algorithm will be used

 
     Parallelization info
     --------------------
     sticks:   dense  smooth     PW     G-vecs:    dense   smooth      PW
     Min         100      40     10                42438    10732    1450
     Max         101      41     11                42477    10749    1491
     Sum       19367    7745   2063              8152907  2062395  282529
 
     Using Slab Decomposition
 


     bravais-lattice index     =            0
     lattice parameter (alat)  =      12.9830  a.u.
     unit-cell volume          =   21336.8733 (a.u.)^3
     number of atoms/cell      =           52
     number of atomic types    =            1
     number of electrons       =       156.00
     number of Kohn-Sham states=          117
     kinetic-energy cutoff     =      80.0000  Ry
     charge density cutoff     =     800.0000  Ry
     scf convergence threshold =      1.0E-06
     mixing beta               =       0.2000
     number of iterations used =            8  local-TF  mixing
     energy convergence thresh.=      1.0E-05
     force convergence thresh. =      3.9E-04
     Exchange-correlation= PBE
                           (   1   4   3   4   0   0   0)
     nstep                     =           50


     celldm(1)=  12.983009  celldm(2)=   0.000000  celldm(3)=   0.000000
     celldm(4)=   0.000000  celldm(5)=   0.000000  celldm(6)=   0.000000

     crystal axes: (cart. coord. in units of alat)
               a(1) = (   1.000000   0.000000   0.000000 )  
               a(2) = (   0.000000   1.802776   0.000000 )  
               a(3) = (   0.000000   0.000000   5.408327 )  

     reciprocal axes: (cart. coord. in units 2 pi/alat)
               b(1) = (  1.000000  0.000000  0.000000 )  
               b(2) = (  0.000000  0.554700  0.000000 )  
               b(3) = (  0.000000  0.000000  0.184900 )  


     PseudoPot. # 1 for Li read from file:
     /iridisfs/home/ba3g18/Repos/Pseudopotentials/pslibrary.1.0.0/pbe/PSEUDOPOTENTIALS/Li.pbe-sl-kjpaw_psl.1.0.0.UPF
     MD5 check sum: 3f4d2cafebb47c6c3aa8ed472e6f074d
     Pseudo is Projector augmented-wave, Zval =  3.0
     Generated using 'atomic' code by A. Dal Corso  v.7.4
     Shape of augmentation charge: PSQ
     Using radial grid of 1017 points,  4 beta functions with: 
                l(1) =   0
                l(2) =   0
                l(3) =   1
                l(4) =   1
     Q(r) pseudized with 0 coefficients 


     atomic species   valence    mass     pseudopotential
     Li                3.00     6.94000     Li( 1.00)

      2 Sym. Ops. (no inversion) found



   Cartesian axes

     site n.     atom                  positions (alat units)
         1        Li     tau(   1) = (  -0.0000000   1.1519621   3.4362604  )
         2        Li     tau(   2) = (  -0.0000000   1.5162594   3.1712558  )
         3        Li     tau(   3) = (  -0.0000000   0.4209672   3.2656755  )
         4        Li     tau(   4) = (  -0.0000000   0.8251109   3.0170094  )
         5        Li     tau(   5) = (  -0.0000000   1.2454979   2.7422319  )
         6        Li     tau(   6) = (  -0.0000000   1.6653654   2.4835265  )
         7        Li     tau(   7) = (  -0.0000000   0.1332504   2.8770815  )
         8        Li     tau(   8) = (  -0.0000000   0.5619295   2.5809773  )
         9        Li     tau(   9) = (  -0.0000000   0.9800420   2.3159817  )
        10        Li     tau(  10) = (  -0.0000000   1.3754954   2.0440167  )
        11        Li     tau(  11) = (  -0.0000000   0.2819117   2.1864474  )
        12        Li     tau(  12) = (  -0.0000000   0.6171953   1.8910459  )
        13        Li     tau(  13) = (  -0.0000000   0.1135154   3.5709666  )
        14        Li     tau(  14) = (   0.2500000   1.1694214   3.0923448  )
        15        Li     tau(  15) = (   0.2500000   1.5875336   2.8273495  )
        16        Li     tau(  16) = (   0.2500000   0.4840977   2.9248003  )
        17        Li     tau(  17) = (   0.2500000   0.9039651   2.6660944  )
        18        Li     tau(  18) = (   0.2500000   1.3243522   2.3913170  )
        19        Li     tau(  19) = (   0.2500000   1.7284963   2.1426515  )
        20        Li     tau(  20) = (   0.2499999   0.2134366   2.5312454  )
        21        Li     tau(  21) = (   0.2499999   0.6332040   2.2370711  )
        22        Li     tau(  22) = (   0.2500000   0.9975012   1.9720664  )
        23        Li     tau(  23) = (   0.2499999   1.5322681   3.5172813  )
        24        Li     tau(  24) = (   0.2499999   0.2331720   1.8373606  )
        25        Li     tau(  25) = (   0.2500001   0.7739683   3.3643096  )
        26        Li     tau(  26) = (   0.2500000   0.0647757   3.2218797  )
        27        Li     tau(  27) = (   0.5000000   1.1519623   3.4362604  )
        28        Li     tau(  28) = (   0.5000000   1.5162594   3.1712560  )
        29        Li     tau(  29) = (   0.5000000   0.4209672   3.2656754  )
        30        Li     tau(  30) = (   0.5000000   0.8251111   3.0170094  )
        31        Li     tau(  31) = (   0.5000000   1.2454979   2.7422320  )
        32        Li     tau(  32) = (   0.5000000   1.6653654   2.4835263  )
        33        Li     tau(  33) = (   0.5000000   0.1332504   2.8770815  )
        34        Li     tau(  34) = (   0.5000000   0.5619294   2.5809772  )
        35        Li     tau(  35) = (   0.5000000   0.9800418   2.3159817  )
        36        Li     tau(  36) = (   0.5000000   1.3754953   2.0440169  )
        37        Li     tau(  37) = (   0.5000000   0.2819118   2.1864472  )
        38        Li     tau(  38) = (   0.5000000   0.6171953   1.8910459  )
        39        Li     tau(  39) = (   0.5000000   0.1135154   3.5709665  )
        40        Li     tau(  40) = (   0.7500000   1.1694214   3.0923448  )
        41        Li     tau(  41) = (   0.7499999   1.5875336   2.8273495  )
        42        Li     tau(  42) = (   0.7500000   0.4840977   2.9248003  )
        43        Li     tau(  43) = (   0.7500000   0.9039651   2.6660944  )
        44        Li     tau(  44) = (   0.7500000   1.3243522   2.3913170  )
        45        Li     tau(  45) = (   0.7500000   1.7284963   2.1426515  )
        46        Li     tau(  46) = (   0.7500000   0.2134366   2.5312454  )
        47        Li     tau(  47) = (   0.7500000   0.6332040   2.2370711  )
        48        Li     tau(  48) = (   0.7500000   0.9975012   1.9720664  )
        49        Li     tau(  49) = (   0.7500001   1.5322681   3.5172813  )
        50        Li     tau(  50) = (   0.7500001   0.2331720   1.8373606  )
        51        Li     tau(  51) = (   0.7499999   0.7739683   3.3643096  )
        52        Li     tau(  52) = (   0.7500000   0.0647757   3.2218797  )

     number of k points=    24  Marzari-Vanderbilt smearing, width (Ry)=  0.0100
                       cart. coord. in units 2pi/alat
        k(    1) = (   0.0000000   0.0000000   0.0000000), wk =   0.0333333
        k(    2) = (   0.0000000   0.0924500   0.0000000), wk =   0.0666667
        k(    3) = (   0.0000000   0.1849000   0.0000000), wk =   0.0666667
        k(    4) = (   0.0000000  -0.2773500   0.0000000), wk =   0.0333333
        k(    5) = (   0.1000000   0.0000000   0.0000000), wk =   0.0666667
        k(    6) = (   0.1000000   0.0924500   0.0000000), wk =   0.1333333
        k(    7) = (   0.1000000   0.1849000   0.0000000), wk =   0.1333333
        k(    8) = (   0.1000000  -0.2773500   0.0000000), wk =   0.0666667
        k(    9) = (   0.2000000   0.0000000   0.0000000), wk =   0.0666667
        k(   10) = (   0.2000000   0.0924500   0.0000000), wk =   0.1333333
        k(   11) = (   0.2000000   0.1849000   0.0000000), wk =   0.1333333
        k(   12) = (   0.2000000  -0.2773500   0.0000000), wk =   0.0666667
        k(   13) = (   0.3000000   0.0000000   0.0000000), wk =   0.0666667
        k(   14) = (   0.3000000   0.0924500   0.0000000), wk =   0.1333333
        k(   15) = (   0.3000000   0.1849000   0.0000000), wk =   0.1333333
        k(   16) = (   0.3000000  -0.2773500   0.0000000), wk =   0.0666667
        k(   17) = (   0.4000000   0.0000000   0.0000000), wk =   0.0666667
        k(   18) = (   0.4000000   0.0924500   0.0000000), wk =   0.1333333
        k(   19) = (   0.4000000   0.1849000   0.0000000), wk =   0.1333333
        k(   20) = (   0.4000000  -0.2773500   0.0000000), wk =   0.0666667
        k(   21) = (  -0.5000000   0.0000000   0.0000000), wk =   0.0333333
        k(   22) = (  -0.5000000   0.0924500   0.0000000), wk =   0.0666667
        k(   23) = (  -0.5000000   0.1849000   0.0000000), wk =   0.0666667
        k(   24) = (  -0.5000000  -0.2773500   0.0000000), wk =   0.0333333

     Dense  grid:  8152907 G-vectors     FFT dimensions: ( 120, 216, 640)

     Smooth grid:  2062395 G-vectors     FFT dimensions: (  75, 135, 400)

     Estimated max dynamical RAM per process >     129.05 MB

     Estimated total dynamical RAM >      46.45 GB

     Initial potential from superposition of free atoms

     starting charge     155.7603, renormalised to     156.0000

     negative rho (up, down):  3.586E-03 0.000E+00
     Starting wfcs are  260 randomized atomic wfcs
     Checking if some PAW data can be deallocated... 

     total cpu time spent up to now is       13.4 secs

     Self-consistent Calculation

     iteration #  1     ecut=    80.00 Ry     beta= 0.20
     Davidson diagonalization with overlap
     ethr =  1.00E-02,  avg # of iterations =  3.8

     negative rho (up, down):  2.124E-04 0.000E+00

     total cpu time spent up to now is       25.7 secs

     total energy              =    -782.21943447 Ry
     estimated scf accuracy    <       6.65396233 Ry

     iteration #  2     ecut=    80.00 Ry     beta= 0.20
     Davidson diagonalization with overlap
     ethr =  4.27E-03,  avg # of iterations =  1.2

     negative rho (up, down):  4.757E-08 0.000E+00

     total cpu time spent up to now is       33.7 secs

     total energy              =    -781.53067670 Ry
     estimated scf accuracy    <       4.82792323 Ry

     iteration #  3     ecut=    80.00 Ry     beta= 0.20
     Davidson diagonalization with overlap
     ethr =  3.09E-03,  avg # of iterations =  1.1

     total cpu time spent up to now is       42.0 secs

     total energy              =    -781.86355812 Ry
     estimated scf accuracy    <       0.54831493 Ry

     iteration #  4     ecut=    80.00 Ry     beta= 0.20
     Davidson diagonalization with overlap
     ethr =  3.51E-04,  avg # of iterations =  4.0

     total cpu time spent up to now is       52.4 secs

     total energy              =    -781.93259388 Ry
     estimated scf accuracy    <       1.46337860 Ry

     iteration #  5     ecut=    80.00 Ry     beta= 0.20
     Davidson diagonalization with overlap
     ethr =  3.51E-04,  avg # of iterations =  1.0

     total cpu time spent up to now is       60.3 secs

     total energy              =    -781.92679573 Ry
     estimated scf accuracy    <       0.50085325 Ry

     iteration #  6     ecut=    80.00 Ry     beta= 0.20
     Davidson diagonalization with overlap
     ethr =  3.21E-04,  avg # of iterations =  1.1

     total cpu time spent up to now is       68.4 secs

     total energy              =    -781.92734303 Ry
     estimated scf accuracy    <       0.15616333 Ry

     iteration #  7     ecut=    80.00 Ry     beta= 0.20
     Davidson diagonalization with overlap
     ethr =  1.00E-04,  avg # of iterations =  3.6

     total cpu time spent up to now is       78.2 secs

     total energy              =    -781.96520392 Ry
     estimated scf accuracy    <       0.38159219 Ry

     iteration #  8     ecut=    80.00 Ry     beta= 0.20
     Davidson diagonalization with overlap
     ethr =  1.00E-04,  avg # of iterations =  1.0

     negative rho (up, down):  1.332E-02 0.000E+00

     total cpu time spent up to now is       86.1 secs

     total energy              =    -781.92738297 Ry
     estimated scf accuracy    <       0.76945871 Ry

     iteration #  9     ecut=    80.00 Ry     beta= 0.20
     Davidson diagonalization with overlap
     ethr =  1.00E-04,  avg # of iterations =  2.1

     negative rho (up, down):  5.669E-02 0.000E+00

     total cpu time spent up to now is       94.8 secs

     total energy              =    -781.91835374 Ry
     estimated scf accuracy    <       0.36646976 Ry

     iteration # 10     ecut=    80.00 Ry     beta= 0.20
     Davidson diagonalization with overlap
     ethr =  1.00E-04,  avg # of iterations =  3.2

     negative rho (up, down):  1.216E-01 0.000E+00

     total cpu time spent up to now is      104.2 secs

     total energy              =    -781.92751352 Ry
     estimated scf accuracy    <       0.13866178 Ry

     iteration # 11     ecut=    80.00 Ry     beta= 0.20
     Davidson diagonalization with overlap
     ethr =  8.89E-05,  avg # of iterations =  1.0

     negative rho (up, down):  1.257E-01 0.000E+00

     total cpu time spent up to now is      112.1 secs

     total energy              =    -781.91405075 Ry
     estimated scf accuracy    <       0.27526608 Ry

     iteration # 12     ecut=    80.00 Ry     beta= 0.20
     Davidson diagonalization with overlap
     c_bands:  2 eigenvalues not converged
     ethr =  8.89E-05,  avg # of iterations =  5.4

     negative rho (up, down):  1.365E-01 0.000E+00

     total cpu time spent up to now is      122.5 secs

     total energy              =    -781.91585458 Ry
     estimated scf accuracy    <       0.10986324 Ry

     iteration # 13     ecut=    80.00 Ry     beta= 0.20
     Davidson diagonalization with overlap
     ethr =  7.04E-05,  avg # of iterations =  1.5

     negative rho (up, down):  1.236E-01 0.000E+00

     total cpu time spent up to now is      131.1 secs

     total energy              =    -781.90969421 Ry
     estimated scf accuracy    <       0.11624219 Ry

     iteration # 14     ecut=    80.00 Ry     beta= 0.20
     Davidson diagonalization with overlap
     c_bands:  1 eigenvalues not converged
     c_bands:  1 eigenvalues not converged
     ethr =  7.04E-05,  avg # of iterations =  4.6

     negative rho (up, down):  1.012E-01 0.000E+00

     total cpu time spent up to now is      141.3 secs

     total energy              =    -781.90403782 Ry
     estimated scf accuracy    <       0.05200192 Ry

     iteration # 15     ecut=    80.00 Ry     beta= 0.20
     Davidson diagonalization with overlap
     c_bands:  1 eigenvalues not converged
     c_bands:  1 eigenvalues not converged
     c_bands:  1 eigenvalues not converged
     c_bands:  1 eigenvalues not converged
     c_bands:  2 eigenvalues not converged
     c_bands:  1 eigenvalues not converged
     c_bands:  1 eigenvalues not converged
     ethr =  3.33E-05,  avg # of iterations = 17.4

     negative rho (up, down):  5.731E-02 0.000E+00

     total cpu time spent up to now is      159.5 secs

     total energy              =    -781.90625833 Ry
     estimated scf accuracy    <       0.01002214 Ry

     iteration # 16     ecut=    80.00 Ry     beta= 0.20
     Davidson diagonalization with overlap
     c_bands:  1 eigenvalues not converged
     ethr =  6.42E-06,  avg # of iterations = 12.4

     negative rho (up, down):  4.310E-02 0.000E+00

     total cpu time spent up to now is      174.9 secs

     total energy              =    -781.90433571 Ry
     estimated scf accuracy    <       0.01077246 Ry

     iteration # 17     ecut=    80.00 Ry     beta= 0.20
     Davidson diagonalization with overlap
     c_bands:  1 eigenvalues not converged
     ethr =  6.42E-06,  avg # of iterations = 12.5

     negative rho (up, down):  2.189E-02 0.000E+00

     total cpu time spent up to now is      189.9 secs

     total energy              =    -781.90579439 Ry
     estimated scf accuracy    <       0.00249641 Ry

     iteration # 18     ecut=    80.00 Ry     beta= 0.20
     Davidson diagonalization with overlap
     c_bands:  1 eigenvalues not converged
     ethr =  1.60E-06,  avg # of iterations = 13.8

     negative rho (up, down):  1.070E-02 0.000E+00

     total cpu time spent up to now is      206.0 secs

     total energy              =    -781.90578648 Ry
     estimated scf accuracy    <       0.00031857 Ry

     iteration # 19     ecut=    80.00 Ry     beta= 0.20
     Davidson diagonalization with overlap
     c_bands:  1 eigenvalues not converged
     ethr =  2.04E-07,  avg # of iterations = 12.8

     negative rho (up, down):  6.882E-03 0.000E+00

     total cpu time spent up to now is      222.5 secs

     total energy              =    -781.90586724 Ry
     estimated scf accuracy    <       0.00004682 Ry

     iteration # 20     ecut=    80.00 Ry     beta= 0.20
     Davidson diagonalization with overlap
     ethr =  3.00E-08,  avg # of iterations = 10.1

     negative rho (up, down):  3.500E-03 0.000E+00

     total cpu time spent up to now is      235.7 secs

     total energy              =    -781.90588674 Ry
     estimated scf accuracy    <       0.00001797 Ry

     iteration # 21     ecut=    80.00 Ry     beta= 0.20
     Davidson diagonalization with overlap
     ethr =  1.15E-08,  avg # of iterations = 10.1

     negative rho (up, down):  5.121E-04 0.000E+00

     total cpu time spent up to now is      248.6 secs

     total energy              =    -781.90587823 Ry
     estimated scf accuracy    <       0.00000856 Ry

     iteration # 22     ecut=    80.00 Ry     beta= 0.20
     Davidson diagonalization with overlap
     c_bands:  1 eigenvalues not converged
     c_bands:  1 eigenvalues not converged
     ethr =  5.48E-09,  avg # of iterations = 13.2

     negative rho (up, down):  2.565E-04 0.000E+00

     total cpu time spent up to now is      263.7 secs

     total energy              =    -781.90587840 Ry
     estimated scf accuracy    <       0.00000157 Ry

     iteration # 23     ecut=    80.00 Ry     beta= 0.20
     Davidson diagonalization with overlap
     c_bands:  1 eigenvalues not converged
     c_bands:  1 eigenvalues not converged
     ethr =  1.01E-09,  avg # of iterations =  6.3

     negative rho (up, down):  3.356E-04 0.000E+00

     total cpu time spent up to now is      277.4 secs

     total energy              =    -781.90588050 Ry
     estimated scf accuracy    <       0.00000121 Ry

     iteration # 24     ecut=    80.00 Ry     beta= 0.20
     Davidson diagonalization with overlap
     ethr =  7.79E-10,  avg # of iterations =  3.0

     negative rho (up, down):  3.538E-04 0.000E+00

     total cpu time spent up to now is      286.4 secs

     End of self-consistent calculation

          k = 0.0000 0.0000 0.0000 (257949 PWs)   bands (ev):

   -49.0533 -49.0533 -49.0519 -49.0519 -48.6991 -48.6991 -48.6974 -48.6974
   -48.6939 -48.6939 -48.6923 -48.6923 -48.6732 -48.6731 -48.6720 -48.6719
   -48.3585 -48.3585 -48.3569 -48.3569 -48.1692 -48.1661 -48.1624 -48.1624
   -48.1591 -48.1556 -48.1555 -48.1552 -48.1463 -48.1457 -48.1454 -48.1451
   -48.1451 -48.1445 -48.1419 -48.1418 -48.1377 -48.1363 -48.1357 -48.1357
   -48.1297 -48.1297 -48.1292 -48.1284 -48.1199 -48.1161 -48.1161 -48.1133
   -48.0997 -48.0994 -48.0994 -48.0992  -5.0786  -4.6825  -4.3475  -4.3390
    -4.0994  -3.9492  -3.8117  -3.3726  -3.2720  -2.9234  -2.6680  -2.6680
    -2.4597  -2.4000  -2.2946  -2.2946  -2.2159  -2.1945  -2.0196  -2.0196
    -2.0007  -2.0007  -1.9386  -1.8253  -1.8253  -1.8178  -1.7853  -1.6862
    -1.6862  -1.5602  -1.5602  -1.4198  -1.3681  -1.3681  -1.2842  -1.2127
    -1.1329  -1.1328  -1.0298  -0.9786  -0.8293  -0.7161  -0.7161  -0.4890
    -0.4825  -0.4825  -0.1528  -0.0547  -0.0547   0.0518   0.0518   0.2661
     0.3241   0.8621   0.9938   1.0355   1.0355   1.1180   1.2428   1.2710
     1.4828   1.5288   1.5288   1.6003   1.6003

          k = 0.0000 0.0925 0.0000 (257871 PWs)   bands (ev):

   -49.0533 -49.0533 -49.0519 -49.0519 -48.6991 -48.6991 -48.6974 -48.6974
   -48.6939 -48.6939 -48.6923 -48.6923 -48.6732 -48.6731 -48.6720 -48.6719
   -48.3585 -48.3585 -48.3569 -48.3569 -48.1692 -48.1661 -48.1624 -48.1624
   -48.1591 -48.1556 -48.1555 -48.1552 -48.1463 -48.1457 -48.1453 -48.1451
   -48.1451 -48.1444 -48.1419 -48.1418 -48.1377 -48.1363 -48.1357 -48.1357
   -48.1297 -48.1297 -48.1293 -48.1283 -48.1199 -48.1161 -48.1161 -48.1133
   -48.0997 -48.0994 -48.0994 -48.0992  -5.0584  -4.6691  -4.5580  -4.2005
    -4.0779  -3.9696  -3.6414  -3.5013  -3.1768  -2.8280  -2.6778  -2.6498
    -2.6498  -2.5668  -2.2890  -2.2890  -2.2597  -2.2133  -2.1934  -2.1934
    -1.9141  -1.9141  -1.8983  -1.7880  -1.7880  -1.7536  -1.6551  -1.6551
    -1.5673  -1.4958  -1.4958  -1.4511  -1.3894  -1.3661  -1.3661  -1.2607
    -1.1233  -1.1233  -0.9649  -0.9540  -0.7578  -0.7577  -0.6324  -0.5137
    -0.5137  -0.4370  -0.3599  -0.3098  -0.3098   0.2654   0.3005   0.3005
     0.5327   0.6064   0.9794   1.0589   1.0589   1.1913   1.2514   1.4587
     1.5225   1.5226   1.5473   1.7708   1.7933

          k = 0.0000 0.1849 0.0000 (257918 PWs)   bands (ev):

   -49.0533 -49.0533 -49.0519 -49.0519 -48.6991 -48.6991 -48.6974 -48.6974
   -48.6939 -48.6939 -48.6923 -48.6923 -48.6732 -48.6731 -48.6720 -48.6719
   -48.3585 -48.3585 -48.3569 -48.3569 -48.1692 -48.1661 -48.1624 -48.1624
   -48.1591 -48.1556 -48.1555 -48.1552 -48.1463 -48.1457 -48.1452 -48.1451
   -48.1451 -48.1444 -48.1419 -48.1418 -48.1378 -48.1363 -48.1357 -48.1357
   -48.1297 -48.1297 -48.1293 -48.1283 -48.1199 -48.1161 -48.1161 -48.1133
   -48.0997 -48.0994 -48.0994 -48.0992  -4.9979  -4.7595  -4.5900  -4.3594
    -3.9219  -3.7780  -3.6769  -3.3409  -3.1081  -3.0401  -2.7576  -2.6205
    -2.5953  -2.5953  -2.5788  -2.3818  -2.3818  -2.2157  -2.2157  -2.1483
    -2.0344  -2.0344  -1.8610  -1.7229  -1.6520  -1.6520  -1.6397  -1.5493
    -1.5493  -1.4431  -1.4431  -1.3997  -1.2740  -1.2740  -1.2134  -1.1781
    -1.1112  -1.1112  -0.9917  -0.8678  -0.8678  -0.7842  -0.7097  -0.7097
    -0.6791  -0.4219  -0.4219  -0.4150  -0.2377   0.1844   0.3369   0.4898
     0.4898   0.7223   1.0706   1.1260   1.1260   1.2811   1.2915   1.4383
     1.5071   1.5072   1.5626   1.6502   1.6796

          k = 0.0000-0.2774 0.0000 (258022 PWs)   bands (ev):

   -49.0533 -49.0533 -49.0519 -49.0519 -48.6991 -48.6991 -48.6974 -48.6974
   -48.6939 -48.6939 -48.6923 -48.6923 -48.6732 -48.6731 -48.6720 -48.6719
   -48.3585 -48.3585 -48.3569 -48.3569 -48.1692 -48.1661 -48.1624 -48.1624
   -48.1591 -48.1556 -48.1555 -48.1553 -48.1464 -48.1457 -48.1452 -48.1451
   -48.1451 -48.1444 -48.1419 -48.1418 -48.1378 -48.1363 -48.1357 -48.1357
   -48.1297 -48.1297 -48.1293 -48.1283 -48.1199 -48.1161 -48.1161 -48.1133
   -48.0997 -48.0994 -48.0994 -48.0992  -4.8977  -4.8971  -4.5001  -4.4890
    -3.8586  -3.7775  -3.4403  -3.4371  -3.0897  -2.9781  -2.9590  -2.8415
    -2.5085  -2.5085  -2.5013  -2.5013  -2.3405  -2.2001  -2.1578  -2.1578
    -2.1228  -2.1228  -2.0188  -1.8148  -1.6339  -1.6339  -1.5049  -1.5049
    -1.4061  -1.3690  -1.3455  -1.3455  -1.2024  -1.1965  -1.1965  -1.1426
    -1.1154  -1.1154  -0.9714  -0.9423  -0.9423  -0.8998  -0.8667  -0.8667
    -0.4720  -0.4322  -0.4322  -0.3969  -0.2050   0.0159   0.3627   0.5480
     0.5480   0.7403   1.1409   1.1675   1.1676   1.2594   1.3731   1.4077
     1.4697   1.5201   1.5202   1.5470   1.6981

          k = 0.1000 0.0000 0.0000 (257851 PWs)   bands (ev):

   -49.0533 -49.0533 -49.0519 -49.0519 -48.6990 -48.6990 -48.6974 -48.6974
   -48.6939 -48.6939 -48.6923 -48.6923 -48.6731 -48.6731 -48.6720 -48.6720
   -48.3584 -48.3584 -48.3569 -48.3569 -48.1690 -48.1660 -48.1626 -48.1625
   -48.1590 -48.1562 -48.1551 -48.1549 -48.1462 -48.1456 -48.1453 -48.1451
   -48.1450 -48.1445 -48.1420 -48.1419 -48.1377 -48.1363 -48.1358 -48.1357
   -48.1297 -48.1296 -48.1292 -48.1284 -48.1199 -48.1166 -48.1155 -48.1133
   -48.0997 -48.0994 -48.0994 -48.0992  -5.0549  -4.6587  -4.3238  -4.3154
    -4.0756  -3.9256  -3.7878  -3.3487  -3.2485  -3.1312  -2.8990  -2.7474
    -2.4448  -2.4383  -2.4351  -2.3760  -2.2116  -2.1903  -2.1690  -2.1561
    -2.1086  -1.9493  -1.9137  -1.7953  -1.7914  -1.7603  -1.6323  -1.6253
    -1.5083  -1.5078  -1.3930  -1.3875  -1.3211  -1.2590  -1.2574  -1.1830
    -1.0701  -1.0060  -0.9658  -0.9522  -0.9151  -0.8025  -0.6385  -0.4923
    -0.4787  -0.4626  -0.2369  -0.2272  -0.1281   0.0296   0.1663   0.2905
     0.3439   0.8887   0.9750   0.9993   1.0191   1.1475   1.2700   1.2955
     1.4786   1.4998   1.5086   1.5409   1.5780

          k = 0.1000 0.0925 0.0000 (257899 PWs)   bands (ev):

   -49.0533 -49.0533 -49.0519 -49.0519 -48.6990 -48.6990 -48.6974 -48.6974
   -48.6939 -48.6939 -48.6923 -48.6923 -48.6731 -48.6731 -48.6720 -48.6720
   -48.3584 -48.3584 -48.3569 -48.3569 -48.1690 -48.1660 -48.1626 -48.1625
   -48.1590 -48.1562 -48.1551 -48.1549 -48.1462 -48.1456 -48.1453 -48.1451
   -48.1450 -48.1444 -48.1420 -48.1419 -48.1377 -48.1363 -48.1358 -48.1357
   -48.1297 -48.1296 -48.1293 -48.1284 -48.1199 -48.1166 -48.1155 -48.1133
   -48.0997 -48.0994 -48.0994 -48.0992  -5.0347  -4.6454  -4.5343  -4.1769
    -4.0542  -3.9456  -3.6177  -3.4775  -3.1528  -3.1123  -2.8040  -2.7389
    -2.6531  -2.6387  -2.5424  -2.3208  -2.2353  -2.1970  -2.1889  -2.1377
    -2.0798  -1.8726  -1.8383  -1.7963  -1.7282  -1.7271  -1.7007  -1.5410
    -1.5020  -1.4274  -1.4253  -1.3649  -1.3475  -1.2729  -1.2515  -1.2320
    -1.0651  -1.0000  -0.9384  -0.9247  -0.9090  -0.7587  -0.6229  -0.6076
    -0.5431  -0.4101  -0.3370  -0.3218  -0.1418   0.1443   0.2911   0.2978
     0.5560   0.6302   0.9322   1.0017   1.0622   1.2215   1.2796   1.4377
     1.4767   1.4867   1.5319   1.5735   1.5824

          k = 0.1000 0.1849 0.0000 (257897 PWs)   bands (ev):

   -49.0533 -49.0533 -49.0519 -49.0519 -48.6990 -48.6990 -48.6974 -48.6974
   -48.6939 -48.6939 -48.6923 -48.6923 -48.6731 -48.6731 -48.6720 -48.6720
   -48.3584 -48.3584 -48.3569 -48.3569 -48.1690 -48.1660 -48.1626 -48.1625
   -48.1590 -48.1562 -48.1552 -48.1549 -48.1463 -48.1457 -48.1452 -48.1451
   -48.1450 -48.1444 -48.1420 -48.1419 -48.1378 -48.1363 -48.1358 -48.1357
   -48.1297 -48.1296 -48.1293 -48.1283 -48.1199 -48.1166 -48.1155 -48.1133
   -48.0997 -48.0994 -48.0994 -48.0992  -4.9742  -4.7358  -4.5662  -4.3357
    -3.8979  -3.7542  -3.6530  -3.3172  -3.0839  -3.0556  -3.0158  -2.8329
    -2.7329  -2.6627  -2.5966  -2.5551  -2.4619  -2.1235  -2.0866  -2.0398
    -1.9271  -1.8842  -1.8368  -1.8362  -1.7286  -1.6983  -1.6413  -1.6137
    -1.5192  -1.3849  -1.3706  -1.3398  -1.2451  -1.1959  -1.1836  -1.1511
    -1.1347  -1.0249  -0.9636  -0.8997  -0.8813  -0.7841  -0.7600  -0.6513
    -0.6159  -0.4326  -0.3888  -0.2113  -0.1798   0.2090   0.3246   0.3611
     0.5472   0.7491   0.9759   1.0886   1.1180   1.3096   1.3205   1.3728
     1.4499   1.4616   1.5858   1.6695   1.7050

          k = 0.1000-0.2774 0.0000 (257884 PWs)   bands (ev):

   -49.0533 -49.0533 -49.0519 -49.0519 -48.6990 -48.6990 -48.6974 -48.6974
   -48.6939 -48.6939 -48.6923 -48.6923 -48.6731 -48.6731 -48.6720 -48.6720
   -48.3584 -48.3584 -48.3569 -48.3569 -48.1690 -48.1660 -48.1626 -48.1625
   -48.1590 -48.1562 -48.1552 -48.1549 -48.1463 -48.1457 -48.1451 -48.1451
   -48.1450 -48.1444 -48.1420 -48.1419 -48.1378 -48.1363 -48.1358 -48.1357
   -48.1297 -48.1296 -48.1293 -48.1283 -48.1199 -48.1166 -48.1155 -48.1133
   -48.0997 -48.0994 -48.0994 -48.0992  -4.8740  -4.8734  -4.4764  -4.4652
    -3.8347  -3.7534  -3.4164  -3.4132  -3.0658  -2.9635  -2.9597  -2.9542
    -2.9354  -2.8166  -2.5893  -2.5704  -2.3168  -2.1762  -2.0166  -2.0048
    -1.9945  -1.9893  -1.8931  -1.7887  -1.6969  -1.6532  -1.6290  -1.6096
    -1.3796  -1.3662  -1.3417  -1.3065  -1.3049  -1.2290  -1.1933  -1.1734
    -1.1142  -1.0204  -0.9453  -0.9063  -0.8846  -0.8709  -0.6834  -0.6688
    -0.6229  -0.4441  -0.3668  -0.1828  -0.1594   0.0398   0.3700   0.3887
     0.6446   0.7664   1.1245   1.1540   1.2226   1.2665   1.2847   1.3461
     1.4030   1.4316   1.4638   1.4980   1.5733

          k = 0.2000 0.0000 0.0000 (257853 PWs)   bands (ev):

   -49.0532 -49.0532 -49.0520 -49.0520 -48.6989 -48.6989 -48.6976 -48.6975
   -48.6938 -48.6937 -48.6924 -48.6924 -48.6730 -48.6730 -48.6721 -48.6721
   -48.3583 -48.3583 -48.3570 -48.3570 -48.1686 -48.1658 -48.1631 -48.1627
   -48.1589 -48.1568 -48.1549 -48.1544 -48.1461 -48.1454 -48.1452 -48.1452
   -48.1451 -48.1444 -48.1423 -48.1422 -48.1375 -48.1363 -48.1359 -48.1358
   -48.1297 -48.1295 -48.1292 -48.1285 -48.1197 -48.1172 -48.1150 -48.1134
   -48.0996 -48.0994 -48.0994 -48.0993  -4.9837  -4.5873  -4.2528  -4.2444
    -4.0042  -3.8548  -3.7162  -3.5439  -3.2770  -3.1783  -3.1540  -2.8391
    -2.8323  -2.8259  -2.5960  -2.4755  -2.3616  -2.3188  -2.3041  -2.1137
    -2.0929  -1.9226  -1.8869  -1.8398  -1.7123  -1.6861  -1.5937  -1.5070
    -1.3131  -1.2559  -1.1842  -1.1768  -1.1602  -1.0945  -1.0679  -1.0634
    -0.9417  -0.9358  -0.9151  -0.8744  -0.7701  -0.7216  -0.7103  -0.5883
    -0.5176  -0.4095  -0.3845  -0.3307  -0.0806  -0.0560   0.0900   0.3614
     0.3994   0.7312   0.8553   0.9646   1.0932   1.2030   1.2345   1.2841
     1.3505   1.3637   1.5171   1.5508   1.5825

          k = 0.2000 0.0925 0.0000 (257859 PWs)   bands (ev):

   -49.0532 -49.0532 -49.0520 -49.0520 -48.6989 -48.6989 -48.6976 -48.6975
   -48.6938 -48.6937 -48.6924 -48.6924 -48.6730 -48.6730 -48.6721 -48.6721
   -48.3583 -48.3583 -48.3570 -48.3570 -48.1686 -48.1658 -48.1631 -48.1627
   -48.1589 -48.1568 -48.1550 -48.1544 -48.1461 -48.1454 -48.1452 -48.1451
   -48.1451 -48.1444 -48.1423 -48.1422 -48.1376 -48.1363 -48.1359 -48.1358
   -48.1297 -48.1295 -48.1293 -48.1285 -48.1197 -48.1172 -48.1150 -48.1134
   -48.0996 -48.0994 -48.0994 -48.0993  -4.9635  -4.5741  -4.4632  -4.1059
    -3.9832  -3.8738  -3.5467  -3.5246  -3.4064  -3.1440  -3.0811  -3.0401
    -2.7322  -2.7043  -2.5813  -2.5792  -2.4693  -2.4625  -2.1789  -2.1624
    -2.1161  -2.0557  -1.7960  -1.7575  -1.6477  -1.5768  -1.4783  -1.4623
    -1.3493  -1.2916  -1.2616  -1.2527  -1.2320  -1.1855  -1.1464  -1.0922
    -0.9843  -0.9050  -0.8600  -0.8423  -0.8366  -0.6940  -0.6543  -0.5376
    -0.5345  -0.3308  -0.2974  -0.2697  -0.1387  -0.0405   0.1729   0.3661
     0.6224   0.6977   0.7173   0.8729   1.0648   1.1460   1.3116   1.3400
     1.3637   1.4996   1.5096   1.5690   1.5981

          k = 0.2000 0.1849 0.0000 (257836 PWs)   bands (ev):

   -49.0532 -49.0532 -49.0520 -49.0520 -48.6989 -48.6989 -48.6976 -48.6975
   -48.6938 -48.6937 -48.6924 -48.6924 -48.6730 -48.6730 -48.6721 -48.6721
   -48.3583 -48.3583 -48.3570 -48.3570 -48.1686 -48.1658 -48.1631 -48.1627
   -48.1589 -48.1568 -48.1550 -48.1544 -48.1461 -48.1455 -48.1452 -48.1451
   -48.1450 -48.1444 -48.1423 -48.1422 -48.1376 -48.1363 -48.1359 -48.1358
   -48.1297 -48.1295 -48.1293 -48.1284 -48.1197 -48.1172 -48.1150 -48.1134
   -48.0996 -48.0994 -48.0994 -48.0993  -4.9031  -4.6648  -4.4948  -4.2646
    -3.8261  -3.6830  -3.5814  -3.4665  -3.2463  -3.2379  -3.0660  -3.0117
    -2.9434  -2.8533  -2.6592  -2.5251  -2.4846  -2.4187  -2.2935  -2.1955
    -2.0495  -1.9160  -1.7647  -1.6678  -1.6251  -1.6025  -1.5361  -1.5297
    -1.4096  -1.3164  -1.3108  -1.2835  -1.2726  -1.1680  -1.0947  -1.0899
    -1.0705  -0.9134  -0.8801  -0.8690  -0.7784  -0.6888  -0.5951  -0.5685
    -0.4686  -0.3121  -0.2154  -0.1500  -0.1327   0.1984   0.2799   0.4314
     0.4724   0.6684   0.8275   0.9503   1.0675   1.1340   1.3085   1.3939
     1.4057   1.4520   1.5127   1.5199   1.6465

          k = 0.2000-0.2774 0.0000 (257842 PWs)   bands (ev):

   -49.0532 -49.0532 -49.0520 -49.0520 -48.6989 -48.6989 -48.6976 -48.6975
   -48.6938 -48.6937 -48.6924 -48.6924 -48.6730 -48.6730 -48.6721 -48.6721
   -48.3583 -48.3583 -48.3570 -48.3570 -48.1686 -48.1658 -48.1631 -48.1627
   -48.1589 -48.1568 -48.1550 -48.1544 -48.1462 -48.1455 -48.1452 -48.1451
   -48.1449 -48.1444 -48.1423 -48.1422 -48.1376 -48.1363 -48.1359 -48.1358
   -48.1297 -48.1295 -48.1293 -48.1284 -48.1197 -48.1172 -48.1150 -48.1134
   -48.0996 -48.0994 -48.0994 -48.0993  -4.8030  -4.8023  -4.4052  -4.3939
    -3.7634  -3.6813  -3.3717  -3.3686  -3.3447  -3.3416  -2.9941  -2.9862
    -2.9703  -2.8828  -2.8646  -2.7422  -2.3753  -2.2704  -2.2465  -2.1050
    -1.9676  -1.9672  -1.9222  -1.7110  -1.6739  -1.5934  -1.5836  -1.4647
    -1.4540  -1.3538  -1.3015  -1.2610  -1.2126  -1.1715  -1.0866  -1.0862
    -1.0313  -1.0293  -0.8680  -0.8429  -0.8036  -0.7844  -0.5429  -0.3846
    -0.3613  -0.2977  -0.2773  -0.1504  -0.1180   0.1088   0.3683   0.4646
     0.5665   0.7606   0.8427   0.9605   1.0773   1.1810   1.1841   1.3546
     1.3745   1.4915   1.4981   1.5803   1.6481

          k = 0.3000 0.0000 0.0000 (257899 PWs)   bands (ev):

   -49.0530 -49.0530 -49.0522 -49.0522 -48.6987 -48.6987 -48.6977 -48.6977
   -48.6936 -48.6936 -48.6926 -48.6926 -48.6729 -48.6729 -48.6722 -48.6722
   -48.3582 -48.3581 -48.3572 -48.3572 -48.1679 -48.1654 -48.1639 -48.1632
   -48.1587 -48.1574 -48.1547 -48.1542 -48.1459 -48.1452 -48.1452 -48.1451
   -48.1450 -48.1442 -48.1427 -48.1426 -48.1374 -48.1362 -48.1362 -48.1358
   -48.1295 -48.1294 -48.1292 -48.1286 -48.1194 -48.1177 -48.1146 -48.1135
   -48.0996 -48.0994 -48.0994 -48.0993  -4.8649  -4.4682  -4.1344  -4.1262
    -3.9065  -3.8853  -3.7371  -3.5971  -3.5129  -3.1904  -3.1832  -3.1581
    -3.0619  -2.9429  -2.8111  -2.7049  -2.6593  -2.2403  -2.2399  -2.1860
    -2.1791  -1.9873  -1.9673  -1.7954  -1.7189  -1.5819  -1.5645  -1.3641
    -1.3585  -1.1821  -1.0789  -1.0694  -1.0632  -0.9782  -0.9492  -0.9390
    -0.8220  -0.7954  -0.7923  -0.7515  -0.6320  -0.5856  -0.5608  -0.4571
    -0.4487  -0.4313  -0.2653  -0.2591  -0.1140  -0.0962   0.0557   0.3767
     0.4680   0.4739   0.5605   1.0527   1.0662   1.1090   1.2122   1.3622
     1.4474   1.4789   1.5411   1.6083   1.6903

          k = 0.3000 0.0925 0.0000 (257793 PWs)   bands (ev):

   -49.0530 -49.0530 -49.0522 -49.0522 -48.6987 -48.6987 -48.6977 -48.6977
   -48.6936 -48.6936 -48.6926 -48.6926 -48.6729 -48.6729 -48.6722 -48.6722
   -48.3582 -48.3581 -48.3572 -48.3572 -48.1679 -48.1654 -48.1639 -48.1632
   -48.1587 -48.1574 -48.1547 -48.1542 -48.1459 -48.1452 -48.1452 -48.1451
   -48.1448 -48.1442 -48.1427 -48.1426 -48.1374 -48.1362 -48.1362 -48.1358
   -48.1295 -48.1294 -48.1293 -48.1286 -48.1194 -48.1177 -48.1146 -48.1135
   -48.0996 -48.0994 -48.0994 -48.0993  -4.8447  -4.4552  -4.3447  -3.9877
    -3.8869  -3.8649  -3.7542  -3.5019  -3.4286  -3.3955  -3.2883  -3.0498
    -2.9622  -2.9270  -2.8089  -2.6136  -2.5073  -2.4568  -2.3744  -2.3486
    -2.0572  -2.0423  -1.9965  -1.7369  -1.6705  -1.5357  -1.5170  -1.4683
    -1.3332  -1.2283  -1.2069  -1.1695  -1.1668  -1.0056  -0.9662  -0.9077
    -0.7326  -0.7227  -0.6910  -0.6844  -0.6376  -0.6307  -0.4971  -0.4178
    -0.4157  -0.3086  -0.2388  -0.2083  -0.1605  -0.0992   0.0690   0.3947
     0.4804   0.5904   0.7162   0.7904   1.0330   1.1332   1.1521   1.4566
     1.4693   1.4980   1.5747   1.6617   1.6839

          k = 0.3000 0.1849 0.0000 (257765 PWs)   bands (ev):

   -49.0530 -49.0530 -49.0522 -49.0522 -48.6987 -48.6987 -48.6977 -48.6977
   -48.6936 -48.6936 -48.6926 -48.6926 -48.6729 -48.6729 -48.6722 -48.6722
   -48.3582 -48.3581 -48.3572 -48.3572 -48.1679 -48.1654 -48.1639 -48.1632
   -48.1587 -48.1574 -48.1547 -48.1542 -48.1459 -48.1453 -48.1452 -48.1451
   -48.1447 -48.1443 -48.1427 -48.1426 -48.1374 -48.1362 -48.1361 -48.1359
   -48.1295 -48.1294 -48.1293 -48.1286 -48.1194 -48.1177 -48.1146 -48.1135
   -48.0996 -48.0994 -48.0994 -48.0993  -4.7844  -4.5464  -4.3758  -4.1462
    -3.8279  -3.7066  -3.5955  -3.5646  -3.4624  -3.4229  -3.2032  -3.1288
    -2.8919  -2.8233  -2.7631  -2.6323  -2.5372  -2.5304  -2.4070  -2.3684
    -2.2255  -1.9759  -1.9277  -1.9067  -1.6476  -1.6291  -1.5437  -1.5290
    -1.5057  -1.4089  -1.1395  -1.0907  -0.9900  -0.9497  -0.9366  -0.9007
    -0.8483  -0.7621  -0.7431  -0.7070  -0.5875  -0.5759  -0.4343  -0.4004
    -0.2896  -0.1913  -0.1790  -0.1290  -0.0041   0.0593   0.2308   0.3847
     0.4939   0.5382   0.6811   0.9492   0.9654   1.1647   1.1916   1.2663
     1.4556   1.4986   1.5279   1.5708   1.5715

          k = 0.3000-0.2774 0.0000 (257766 PWs)   bands (ev):

   -49.0530 -49.0530 -49.0522 -49.0522 -48.6987 -48.6987 -48.6977 -48.6977
   -48.6936 -48.6936 -48.6926 -48.6926 -48.6729 -48.6729 -48.6722 -48.6722
   -48.3582 -48.3581 -48.3572 -48.3572 -48.1679 -48.1654 -48.1639 -48.1632
   -48.1587 -48.1574 -48.1548 -48.1542 -48.1460 -48.1453 -48.1452 -48.1451
   -48.1446 -48.1443 -48.1427 -48.1426 -48.1374 -48.1362 -48.1361 -48.1359
   -48.1295 -48.1294 -48.1293 -48.1286 -48.1194 -48.1177 -48.1146 -48.1135
   -48.0996 -48.0994 -48.0994 -48.0993  -4.6845  -4.6836  -4.2866  -4.2751
    -3.7312  -3.7287  -3.6447  -3.5613  -3.3394  -3.3252  -3.2257  -3.2227
    -2.8754  -2.7647  -2.7475  -2.7125  -2.6188  -2.6152  -2.2973  -2.2959
    -2.1309  -1.9881  -1.9726  -1.8761  -1.8680  -1.8036  -1.6784  -1.5832
    -1.3384  -1.2214  -1.1759  -1.1307  -1.0077  -0.9399  -0.8879  -0.8753
    -0.8469  -0.8142  -0.7440  -0.7421  -0.6423  -0.5887  -0.3545  -0.3170
    -0.2271  -0.1474  -0.1337  -0.0151   0.0086   0.2120   0.2338   0.2537
     0.5408   0.5806   0.7391   0.9598   1.0321   1.0660   1.1653   1.2295
     1.4075   1.4298   1.5962   1.6345   1.6926

          k = 0.4000 0.0000 0.0000 (257761 PWs)   bands (ev):

   -49.0528 -49.0528 -49.0524 -49.0524 -48.6985 -48.6985 -48.6980 -48.6980
   -48.6934 -48.6933 -48.6929 -48.6928 -48.6728 -48.6727 -48.6724 -48.6723
   -48.3579 -48.3579 -48.3574 -48.3574 -48.1670 -48.1649 -48.1649 -48.1637
   -48.1585 -48.1578 -48.1544 -48.1541 -48.1457 -48.1453 -48.1452 -48.1451
   -48.1444 -48.1440 -48.1432 -48.1431 -48.1371 -48.1365 -48.1361 -48.1359
   -48.1293 -48.1293 -48.1292 -48.1288 -48.1191 -48.1182 -48.1142 -48.1137
   -48.0996 -48.0995 -48.0994 -48.0993  -4.6981  -4.3014  -4.2194  -3.9688
    -3.9607  -3.8239  -3.7191  -3.5729  -3.4964  -3.4888  -3.4308  -3.2470
    -3.1082  -2.9928  -2.9604  -2.9006  -2.5375  -2.5301  -2.4538  -2.0757
    -2.0733  -2.0242  -1.8132  -1.7942  -1.6218  -1.5954  -1.5552  -1.4028
    -1.3993  -1.3415  -1.3268  -1.1375  -1.0047  -0.9776  -0.9399  -0.9030
    -0.7554  -0.6681  -0.5966  -0.5925  -0.5491  -0.4272  -0.3930  -0.3231
    -0.2765  -0.2370  -0.0992  -0.0830   0.0231   0.0321   0.1813   0.2553
     0.2579   0.5213   0.5721   0.9742   1.0109   1.0230   1.2665   1.3158
     1.4302   1.5923   1.6505   1.6778   1.8134

          k = 0.4000 0.0925 0.0000 (257782 PWs)   bands (ev):

   -49.0528 -49.0528 -49.0524 -49.0524 -48.6985 -48.6985 -48.6980 -48.6980
   -48.6934 -48.6933 -48.6929 -48.6928 -48.6728 -48.6727 -48.6724 -48.6723
   -48.3579 -48.3579 -48.3574 -48.3574 -48.1670 -48.1649 -48.1649 -48.1637
   -48.1585 -48.1578 -48.1544 -48.1541 -48.1457 -48.1453 -48.1452 -48.1451
   -48.1444 -48.1440 -48.1432 -48.1431 -48.1371 -48.1365 -48.1361 -48.1359
   -48.1293 -48.1293 -48.1293 -48.1288 -48.1191 -48.1182 -48.1142 -48.1137
   -48.0996 -48.0995 -48.0994 -48.0993  -4.6780  -4.2887  -4.1996  -4.1787
    -3.8224  -3.8120  -3.7040  -3.6996  -3.5873  -3.3526  -3.2642  -3.2298
    -3.1241  -3.1135  -2.8011  -2.7973  -2.6638  -2.4499  -2.3396  -2.2874
    -2.1824  -2.0026  -1.8777  -1.8330  -1.8197  -1.7314  -1.5006  -1.4404
    -1.4016  -1.3377  -1.1574  -1.0774  -1.0736  -0.9986  -0.8647  -0.8150
    -0.7510  -0.7068  -0.5633  -0.5595  -0.4923  -0.4086  -0.3025  -0.2681
    -0.2406  -0.1418  -0.0992  -0.0767  -0.0234  -0.0068   0.1193   0.1747
     0.4369   0.5852   0.7888   0.8317   0.9576   1.0241   1.1070   1.3673
     1.4951   1.5226   1.5984   1.6583   1.7057

          k = 0.4000 0.1849 0.0000 (257646 PWs)   bands (ev):

   -49.0528 -49.0528 -49.0524 -49.0524 -48.6985 -48.6985 -48.6980 -48.6980
   -48.6934 -48.6933 -48.6929 -48.6928 -48.6728 -48.6727 -48.6724 -48.6723
   -48.3579 -48.3579 -48.3574 -48.3574 -48.1670 -48.1649 -48.1649 -48.1637
   -48.1585 -48.1578 -48.1545 -48.1541 -48.1457 -48.1453 -48.1452 -48.1452
   -48.1443 -48.1440 -48.1432 -48.1431 -48.1371 -48.1365 -48.1361 -48.1359
   -48.1293 -48.1293 -48.1293 -48.1288 -48.1191 -48.1182 -48.1142 -48.1137
   -48.0996 -48.0995 -48.0994 -48.0993  -4.6178  -4.3804  -4.2092  -4.1400
    -3.9806  -3.9051  -3.7327  -3.5397  -3.5086  -3.3994  -3.2965  -3.0666
    -2.9656  -2.9317  -2.8285  -2.7257  -2.6567  -2.5099  -2.3684  -2.2630
    -2.2443  -2.2090  -2.1935  -1.9046  -1.8012  -1.7811  -1.7612  -1.4910
    -1.3453  -1.3223  -1.2355  -1.1143  -0.9687  -0.9407  -0.7870  -0.7688
    -0.7375  -0.5587  -0.4378  -0.4324  -0.4040  -0.2916  -0.2720  -0.2619
    -0.2382  -0.1302  -0.0946  -0.0450  -0.0408   0.0916   0.1669   0.4118
     0.4769   0.6304   0.6414   0.8121   1.0113   1.0664   1.1340   1.2560
     1.2793   1.4746   1.5450   1.6540   1.7236

          k = 0.4000-0.2774 0.0000 (257696 PWs)   bands (ev):

   -49.0528 -49.0528 -49.0524 -49.0524 -48.6985 -48.6985 -48.6980 -48.6980
   -48.6934 -48.6933 -48.6929 -48.6928 -48.6728 -48.6727 -48.6724 -48.6723
   -48.3579 -48.3579 -48.3574 -48.3574 -48.1670 -48.1649 -48.1649 -48.1637
   -48.1585 -48.1578 -48.1545 -48.1541 -48.1457 -48.1453 -48.1452 -48.1452
   -48.1442 -48.1440 -48.1432 -48.1431 -48.1371 -48.1365 -48.1361 -48.1360
   -48.1293 -48.1293 -48.1293 -48.1288 -48.1191 -48.1182 -48.1142 -48.1137
   -48.0996 -48.0995 -48.0994 -48.0993  -4.5184  -4.5172  -4.1206  -4.1088
    -4.0420  -4.0400  -3.6467  -3.6336  -3.4792  -3.3938  -3.0599  -3.0571
    -3.0113  -2.9194  -2.7108  -2.6012  -2.5932  -2.5911  -2.5856  -2.4476
    -2.2543  -2.1505  -2.1396  -1.9733  -1.9715  -1.8294  -1.6423  -1.5600
    -1.4209  -1.4093  -1.2240  -1.0113  -0.9755  -0.9607  -0.7333  -0.6902
    -0.6430  -0.6376  -0.5745  -0.4493  -0.2440  -0.2432  -0.2089  -0.1637
    -0.1400  -0.0528  -0.0478  -0.0164   0.0257   0.0803   0.1388   0.3149
     0.4611   0.6832   0.7033   0.7806   0.9397   1.0848   1.1662   1.2840
     1.3413   1.3848   1.4458   1.4918   1.6222

          k =-0.5000 0.0000 0.0000 (257788 PWs)   bands (ev):

   -49.0526 -49.0526 -49.0526 -49.0526 -48.6983 -48.6982 -48.6982 -48.6982
   -48.6931 -48.6931 -48.6931 -48.6931 -48.6726 -48.6726 -48.6726 -48.6725
   -48.3577 -48.3577 -48.3577 -48.3576 -48.1660 -48.1660 -48.1643 -48.1643
   -48.1582 -48.1582 -48.1542 -48.1542 -48.1455 -48.1455 -48.1451 -48.1451
   -48.1438 -48.1438 -48.1435 -48.1435 -48.1368 -48.1368 -48.1360 -48.1360
   -48.1293 -48.1293 -48.1290 -48.1290 -48.1187 -48.1187 -48.1139 -48.1139
   -48.0995 -48.0995 -48.0994 -48.0993  -4.4831  -4.4831  -4.0866  -4.0866
    -3.7560  -3.7560  -3.7482  -3.7482  -3.5062  -3.5062  -3.3628  -3.3628
    -3.2182  -3.2182  -2.7826  -2.7826  -2.6967  -2.6967  -2.3262  -2.3262
    -1.8646  -1.8646  -1.8241  -1.8241  -1.5951  -1.5951  -1.5778  -1.5778
    -1.3562  -1.3562  -1.1981  -1.1981  -1.1820  -1.1820  -0.7930  -0.7930
    -0.7196  -0.7196  -0.5547  -0.5547  -0.4611  -0.4611  -0.4353  -0.4353
    -0.1477  -0.1477   0.0525   0.0525   0.2292   0.2292   0.3852   0.3852
     0.4505   0.4505   0.4850   0.4850   0.9662   0.9662   1.1640   1.1641
     1.5994   1.5998   1.6572   1.6587   1.8084

          k =-0.5000 0.0925 0.0000 (257696 PWs)   bands (ev):

   -49.0526 -49.0526 -49.0526 -49.0526 -48.6983 -48.6982 -48.6982 -48.6982
   -48.6931 -48.6931 -48.6931 -48.6931 -48.6726 -48.6726 -48.6726 -48.6725
   -48.3577 -48.3577 -48.3577 -48.3576 -48.1660 -48.1660 -48.1643 -48.1643
   -48.1582 -48.1582 -48.1542 -48.1542 -48.1455 -48.1455 -48.1451 -48.1451
   -48.1438 -48.1438 -48.1436 -48.1435 -48.1368 -48.1368 -48.1360 -48.1360
   -48.1293 -48.1293 -48.1290 -48.1290 -48.1187 -48.1187 -48.1139 -48.1139
   -48.0995 -48.0995 -48.0994 -48.0993  -4.4631  -4.4631  -4.0743  -4.0743
    -3.9651  -3.9651  -3.6106  -3.6105  -3.4877  -3.4877  -3.3734  -3.3734
    -3.0544  -3.0544  -2.9151  -2.9151  -2.5886  -2.5886  -2.2443  -2.2443
    -2.0735  -2.0735  -1.9744  -1.9744  -1.6737  -1.6737  -1.6312  -1.6312
    -1.2954  -1.2954  -1.1155  -1.1155  -0.9434  -0.9434  -0.9022  -0.9021
    -0.7846  -0.7846  -0.5910  -0.5910  -0.3745  -0.3745  -0.2559  -0.2559
    -0.1080  -0.1080   0.0038   0.0038   0.1468   0.1468   0.3825   0.3825
     0.4804   0.4804   0.6334   0.6334   0.9202   0.9202   1.1485   1.1486
     1.4468   1.4472   1.6723   1.6732   1.7452

          k =-0.5000 0.1849 0.0000 (257632 PWs)   bands (ev):

   -49.0526 -49.0526 -49.0526 -49.0526 -48.6983 -48.6982 -48.6982 -48.6982
   -48.6931 -48.6931 -48.6931 -48.6931 -48.6726 -48.6726 -48.6726 -48.6725
   -48.3577 -48.3577 -48.3577 -48.3576 -48.1660 -48.1660 -48.1643 -48.1643
   -48.1582 -48.1582 -48.1542 -48.1542 -48.1455 -48.1455 -48.1452 -48.1452
   -48.1437 -48.1437 -48.1436 -48.1436 -48.1368 -48.1368 -48.1361 -48.1360
   -48.1293 -48.1293 -48.1290 -48.1290 -48.1187 -48.1187 -48.1139 -48.1139
   -48.0995 -48.0995 -48.0994 -48.0993  -4.4032  -4.4032  -4.1667  -4.1667
    -3.9948  -3.9948  -3.7679  -3.7679  -3.3261  -3.3261  -3.1881  -3.1881
    -3.0847  -3.0847  -2.7583  -2.7583  -2.5150  -2.5150  -2.4457  -2.4457
    -2.1557  -2.1557  -2.0403  -2.0403  -2.0108  -2.0108  -1.5556  -1.5556
    -1.3058  -1.3058  -1.1564  -1.1564  -1.0224  -1.0224  -0.6931  -0.6931
    -0.5670  -0.5670  -0.4838  -0.4838  -0.3523  -0.3523  -0.2736  -0.2736
    -0.1123  -0.1123   0.1119   0.1119   0.2966   0.2966   0.3657   0.3657
     0.4626   0.4626   0.6019   0.6019   1.0000   1.0000   1.0676   1.0677
     1.4139   1.4139   1.4561   1.4565   1.7333

          k =-0.5000-0.2774 0.0000 (257568 PWs)   bands (ev):

   -49.0526 -49.0526 -49.0526 -49.0526 -48.6983 -48.6982 -48.6982 -48.6982
   -48.6931 -48.6931 -48.6931 -48.6931 -48.6726 -48.6726 -48.6726 -48.6725
   -48.3577 -48.3577 -48.3577 -48.3576 -48.1660 -48.1660 -48.1643 -48.1643
   -48.1582 -48.1582 -48.1542 -48.1542 -48.1455 -48.1455 -48.1452 -48.1452
   -48.1437 -48.1437 -48.1436 -48.1436 -48.1368 -48.1368 -48.1361 -48.1360
   -48.1293 -48.1293 -48.1290 -48.1290 -48.1187 -48.1187 -48.1139 -48.1139
   -48.0995 -48.0995 -48.0994 -48.0993  -4.3043  -4.3043  -4.3027  -4.3027
    -3.9072  -3.9072  -3.8949  -3.8949  -3.2676  -3.2676  -3.1795  -3.1795
    -2.8485  -2.8485  -2.8459  -2.8459  -2.5026  -2.5026  -2.3950  -2.3950
    -2.3814  -2.3814  -2.2306  -2.2306  -1.7794  -1.7794  -1.6356  -1.6356
    -1.4448  -1.4448  -1.1980  -1.1980  -0.8233  -0.8233  -0.7741  -0.7741
    -0.4656  -0.4656  -0.4377  -0.4377  -0.3815  -0.3815  -0.2247  -0.2247
     0.0908   0.0908   0.0926   0.0926   0.3140   0.3140   0.3889   0.3889
     0.4271   0.4271   0.4713   0.4713   1.0310   1.0310   1.1312   1.1312
     1.4695   1.4703   1.4930   1.4930   1.5372

     the Fermi energy is    -1.6281 ev

!    total energy              =    -781.90588058 Ry
     total all-electron energy =      -781.906303 Ry
     estimated scf accuracy    <       0.00000056 Ry
     smearing contrib. (-TS)   =      -0.00105988 Ry
     internal energy E=F+TS    =    -781.90482070 Ry

     The total energy is F=E-TS. E is the sum of the following terms:
     one-electron contribution =   -5767.65317341 Ry
     hartree contribution      =    2805.46181673 Ry
     xc contribution           =    -186.33709405 Ry
     ewald contribution        =    2362.03866861 Ry
     one-center paw contrib.   =       4.58496142 Ry

     convergence has been achieved in  24 iterations

     Forces acting on atoms (cartesian axes, Ry/au):

     atom    1 type  1   force =     0.00000000   -0.00006831   -0.00006522
     atom    2 type  1   force =     0.00000000    0.00012630    0.00012813
     atom    3 type  1   force =     0.00000000    0.00003927    0.00013170
     atom    4 type  1   force =     0.00000000    0.00008849    0.00032472
     atom    5 type  1   force =     0.00000000    0.00004699    0.00006683
     atom    6 type  1   force =     0.00000000   -0.00003191   -0.00010128
     atom    7 type  1   force =     0.00000000    0.00000113    0.00009155
     atom    8 type  1   force =     0.00000000    0.00003515   -0.00020493
     atom    9 type  1   force =     0.00000000   -0.00008118   -0.00023630
     atom   10 type  1   force =     0.00000000   -0.00011824    0.00006755
     atom   11 type  1   force =     0.00000000    0.00004614   -0.00016124
     atom   12 type  1   force =     0.00000000   -0.00008569    0.00028368
     atom   13 type  1   force =     0.00000000   -0.00012400   -0.00032037
     atom   14 type  1   force =     0.00000008    0.00008043    0.00023483
     atom   15 type  1   force =    -0.00000118   -0.00003396    0.00020592
     atom   16 type  1   force =    -0.00000134    0.00003169    0.00010170
     atom   17 type  1   force =     0.00000065   -0.00004946   -0.00006611
     atom   18 type  1   force =     0.00000005   -0.00008914   -0.00032129
     atom   19 type  1   force =    -0.00000001   -0.00003774   -0.00013012
     atom   20 type  1   force =     0.00000109   -0.00000146   -0.00009312
     atom   21 type  1   force =    -0.00000088   -0.00012534   -0.00012766
     atom   22 type  1   force =     0.00000029    0.00006775    0.00006414
     atom   23 type  1   force =     0.00000096    0.00008821   -0.00028359
     atom   24 type  1   force =     0.00000054    0.00012281    0.00032048
     atom   25 type  1   force =    -0.00000074    0.00012158   -0.00006957
     atom   26 type  1   force =     0.00000190   -0.00004699    0.00016270
     atom   27 type  1   force =     0.00000000   -0.00006788   -0.00006349
     atom   28 type  1   force =     0.00000000    0.00012661    0.00012772
     atom   29 type  1   force =     0.00000000    0.00003860    0.00012970
     atom   30 type  1   force =     0.00000000    0.00008844    0.00032202
     atom   31 type  1   force =     0.00000000    0.00004582    0.00006751
     atom   32 type  1   force =     0.00000000   -0.00003138   -0.00010373
     atom   33 type  1   force =     0.00000000    0.00000020    0.00009152
     atom   34 type  1   force =     0.00000000    0.00003324   -0.00020703
     atom   35 type  1   force =     0.00000000   -0.00007725   -0.00023606
     atom   36 type  1   force =     0.00000000   -0.00012170    0.00006795
     atom   37 type  1   force =     0.00000000    0.00004274   -0.00016122
     atom   38 type  1   force =     0.00000000   -0.00008687    0.00028541
     atom   39 type  1   force =     0.00000000   -0.00012148   -0.00032171
     atom   40 type  1   force =    -0.00000008    0.00008043    0.00023483
     atom   41 type  1   force =     0.00000118   -0.00003396    0.00020592
     atom   42 type  1   force =     0.00000134    0.00003169    0.00010170
     atom   43 type  1   force =    -0.00000065   -0.00004946   -0.00006611
     atom   44 type  1   force =    -0.00000005   -0.00008914   -0.00032129
     atom   45 type  1   force =     0.00000001   -0.00003774   -0.00013012
     atom   46 type  1   force =    -0.00000109   -0.00000146   -0.00009312
     atom   47 type  1   force =     0.00000088   -0.00012534   -0.00012766
     atom   48 type  1   force =    -0.00000029    0.00006775    0.00006414
     atom   49 type  1   force =    -0.00000096    0.00008821   -0.00028359
     atom   50 type  1   force =    -0.00000054    0.00012281    0.00032048
     atom   51 type  1   force =     0.00000074    0.00012158   -0.00006957
     atom   52 type  1   force =    -0.00000190   -0.00004699    0.00016270

     Total force =     0.001493     Total SCF correction =     0.000298
     SCF correction compared to forces is large: reduce conv_thr to get better values

     BFGS Geometry Optimization
     Energy error            =      2.2E-06 Ry
     Gradient error          =      3.2E-04 Ry/Bohr

     bfgs converged in   1 scf cycles and   0 bfgs steps
     (criteria: energy <  1.0E-05 Ry, force <  3.9E-04 Ry/Bohr)

     End of BFGS Geometry Optimization

     Final energy             =    -781.9058805801 Ry
Begin final coordinates

ATOMIC_POSITIONS (angstrom)
Li              -0.0000000600        7.9143398300       23.6081823600
Li              -0.0000000600       10.4171759700       21.7875182700
Li              -0.0000000600        2.8921765400       22.4362112300
Li              -0.0000000600        5.6687699700       20.7277973900
Li              -0.0000000600        8.5569597900       18.8399901800
Li              -0.0000000600       11.4415803600       17.0626029200
Li              -0.0000000600        0.9154717500       19.7664489900
Li              -0.0000000600        3.8606310100       17.7321203000
Li              -0.0000000600        6.7331948200       15.9115182500
Li              -0.0000000600        9.4500832100       14.0430336200
Li              -0.0000000600        1.9368217500       15.0215764800
Li              -0.0000000600        4.2403246600       12.9920764800
Li              -0.0000000600        0.7798865200       24.5336560200
Li               1.7175779400        8.0342901900       21.2453750500
Li               1.7175783500       10.9068520100       19.4247747300
Li               1.7175781600        3.3259025300       20.0942921000
Li               1.7175779300        6.2105228600       18.3169017500
Li               1.7175782700        9.0987132600       16.4290949500
Li               1.7175779600       11.8753093900       14.7206850400
Li               1.7175777100        1.4663762900       17.3904466000
Li               1.7175777200        4.3503094100       15.3693774500
Li               1.7175781400        6.8531452600       13.5487121500
Li               1.7175774200       10.5271604600       24.1648215700
Li               1.7175773800        1.6019642800       12.6232415700
Li               1.7175789100        5.3174042300       23.1138582300
Li               1.7175778200        0.4450293100       22.1353203900
Li               3.4351561700        7.9143408900       23.6081824200
Li               3.4351561700       10.4171756100       21.7875198600
Li               3.4351561700        2.8921765300       22.4362104100
Li               3.4351561700        5.6687711000       20.7277970200
Li               3.4351561700        8.5569594000       18.8399904000
Li               3.4351561700       11.4415808300       17.0626020100
Li               3.4351561700        0.9154720900       19.7664486800
Li               3.4351561700        3.8606305300       17.7321199900
Li               3.4351561600        6.7331936200       15.9115181600
Li               3.4351561700        9.4500824600       14.0430346000
Li               3.4351561700        1.9368220600       15.0215756300
Li               3.4351561700        4.2403245300       12.9920764900
Li               3.4351561700        0.7798859300       24.5336555900
Li               5.1527344000        8.0342901900       21.2453750600
Li               5.1527339900       10.9068520100       19.4247747300
Li               5.1527341800        3.3259025300       20.0942921100
Li               5.1527344000        6.2105228600       18.3169017500
Li               5.1527340600        9.0987132600       16.4290949500
Li               5.1527343800       11.8753093800       14.7206850400
Li               5.1527346300        1.4663762800       17.3904466000
Li               5.1527346200        4.3503094100       15.3693774500
Li               5.1527341900        6.8531452600       13.5487121600
Li               5.1527349100       10.5271604500       24.1648215700
Li               5.1527349600        1.6019642900       12.6232415700
Li               5.1527334200        5.3174042300       23.1138582300
Li               5.1527345200        0.4450293100       22.1353203900
End final coordinates


     Message from routine punch:
     Nothing written, as per user request (disk_io='none')
 
     init_run     :     12.08s CPU     12.47s WALL (       1 calls)
     electrons    :    269.56s CPU    273.01s WALL (       1 calls)
     forces       :      1.55s CPU      1.60s WALL (       1 calls)

     Called by init_run:
     wfcinit      :      6.45s CPU      6.60s WALL (       1 calls)
     potinit      :      0.22s CPU      0.26s WALL (       1 calls)
     hinit0       :      0.02s CPU      0.05s WALL (       1 calls)

     Called by electrons:
     c_bands      :    229.08s CPU    231.13s WALL (      24 calls)
     sum_band     :     32.48s CPU     33.30s WALL (      24 calls)
     v_of_rho     :      1.62s CPU      1.68s WALL (      25 calls)
     newd         :      1.00s CPU      1.32s WALL (      25 calls)
     PAW_pot      :      0.32s CPU      0.34s WALL (      25 calls)
     mix_rho      :      4.40s CPU      4.49s WALL (      24 calls)

     Called by c_bands:
     init_us_2    :      4.84s CPU      4.88s WALL (     600 calls)
     cegterg      :    203.62s CPU    205.48s WALL (     288 calls)

     Called by *egterg:
     cdiaghg      :     27.97s CPU     28.11s WALL (    2030 calls)
     h_psi        :    124.90s CPU    126.35s WALL (    2042 calls)
     s_psi        :     14.44s CPU     14.53s WALL (    2042 calls)
     g_psi        :      0.07s CPU      0.07s WALL (    1742 calls)

     Called by h_psi:
     h_psi:calbec :     21.89s CPU     22.39s WALL (    2042 calls)
     vloc_psi     :     84.71s CPU     85.51s WALL (    2042 calls)
                                        0.00s GPU  (    2042 calls)
     add_vuspsi   :     17.56s CPU     17.70s WALL (    2042 calls)

     General routines
     calbec       :     29.77s CPU     30.40s WALL (    2378 calls)
     fft          :      1.28s CPU      1.32s WALL (     325 calls)
     ffts         :      3.83s CPU      3.86s WALL (    2728 calls)
     fftw         :     98.26s CPU     99.19s WALL (  193126 calls)
     interpolate  :      0.13s CPU      0.14s WALL (      25 calls)
 
     Parallel routines
 
     PWSCF        :   4m46.80s CPU   4m51.38s WALL

 
   This run was terminated on:   0:40:46  23Jan2025            

=------------------------------------------------------------------------------=
   JOB DONE.
=------------------------------------------------------------------------------=
