
     Program PWSCF v.7.4 starts on 29Dec2024 at 20: 6:50 

     This program is part of the open-source Quantum ESPRESSO suite
     for quantum simulation of materials; please cite
         "P. Giannozzi et al., J. Phys.:Condens. Matter 21 395502 (2009);
         "P. Giannozzi et al., J. Phys.:Condens. Matter 29 465901 (2017);
         "P. Giannozzi et al., J. Chem. Phys. 152 154105 (2020);
          URL http://www.quantum-espresso.org", 
     in publications or presentations arising from this work. More details at
     http://www.quantum-espresso.org/quote

     Parallel version (MPI & OpenMP), running on     384 processor cores
     Number of MPI processes:               384
     Threads/MPI process:                     1

     MPI processes distributed on     2 nodes
     663902 MiB available memory on the printing compute node when the environment starts
 
     Reading input from espresso.pwi
Warning: card &FCP ignored
Warning: card / ignored
Warning: card &RISM ignored
Warning: card / ignored

     Current dimensions of program PWSCF are:
     Max number of different atomic species (ntypx) = 10
     Max number of k-points (npk) =  40000
     Max angular momentum in pseudopotentials (lmaxx) =  4

     IMPORTANT: XC functional enforced from input :
     Exchange-correlation= PBE
                           (   1   4   3   4   0   0   0)
     Any further DFT definition will be discarded
     Please, verify this is what you really want

     Found identity + (  0.1667  0.1667  0.1667) symmetry
     This is a supercell, fractional translations are disabled
     Message from routine setup:
     using ibrav=0 with symmetry is DISCOURAGED, use correct ibrav instead
 
     K-points division:     npool     =       8
     R & G space division:  proc/nbgrp/npool/nimage =      48
     Subspace diagonalization in iterative solution of the eigenvalue problem:
     a serial algorithm will be used

 
     Parallelization info
     --------------------
     sticks:   dense  smooth     PW     G-vecs:    dense   smooth      PW
     Min         502     201     53                58746    14861    2033
     Max         503     202     54                58749    14866    2040
     Sum       24105    9649   2561              2819855   713423   97713
 
     Using Slab Decomposition
 


     bravais-lattice index     =            0
     lattice parameter (alat)  =      19.4718  a.u.
     unit-cell volume          =    7382.7045 (a.u.)^3
     number of atoms/cell      =           54
     number of atomic types    =            1
     number of electrons       =       162.00
     number of Kohn-Sham states=           97
     kinetic-energy cutoff     =      80.0000  Ry
     charge density cutoff     =     800.0000  Ry
     scf convergence threshold =      1.0E-14
     mixing beta               =       0.8000
     number of iterations used =            8  plain     mixing
     energy convergence thresh.=      1.0E-06
     force convergence thresh. =      1.0E-06
     press convergence thresh. =      1.0E-01
     Exchange-correlation= PBE
                           (   1   4   3   4   0   0   0)
     nstep                     =          999


     celldm(1)=  19.471758  celldm(2)=   0.000000  celldm(3)=   0.000000
     celldm(4)=   0.000000  celldm(5)=   0.000000  celldm(6)=   0.000000

     crystal axes: (cart. coord. in units of alat)
               a(1) = (   1.000000   0.000000   0.000000 )  
               a(2) = (   0.000000   1.000000   0.000000 )  
               a(3) = (   0.000000   0.000000   1.000000 )  

     reciprocal axes: (cart. coord. in units 2 pi/alat)
               b(1) = (  1.000000  0.000000  0.000000 )  
               b(2) = (  0.000000  1.000000  0.000000 )  
               b(3) = (  0.000000  0.000000  1.000000 )  


     PseudoPot. # 1 for Li read from file:
     /home/ba3g18/Repos/Pseudopotentials/pslibrary.1.0.0/pbe/PSEUDOPOTENTIALS/Li.pbe-sl-kjpaw_psl.1.0.0.UPF
     MD5 check sum: 3f4d2cafebb47c6c3aa8ed472e6f074d
     Pseudo is Projector augmented-wave, Zval =  3.0
     Generated using 'atomic' code by A. Dal Corso  v.7.4
     Shape of augmentation charge: PSQ
     Using radial grid of 1017 points,  4 beta functions with: 
                l(1) =   0
                l(2) =   0
                l(3) =   1
                l(4) =   1
     Q(r) pseudized with 0 coefficients 


     atomic species   valence    mass     pseudopotential
     Li                3.00     6.94000     Li( 1.00)

     48 Sym. Ops., with inversion, found


                                    s                        frac. trans.

      isym =  1     identity                                     

 cryst.   s( 1) = (     1          0          0      )
                  (     0          1          0      )
                  (     0          0          1      )

 cart.    s( 1) = (  1.0000000  0.0000000  0.0000000 )
                  (  0.0000000  1.0000000  0.0000000 )
                  (  0.0000000  0.0000000  1.0000000 )


      isym =  2     180 deg rotation - cart. axis [0,0,1]        

 cryst.   s( 2) = (    -1          0          0      )
                  (     0         -1          0      )
                  (     0          0          1      )

 cart.    s( 2) = ( -1.0000000  0.0000000  0.0000000 )
                  (  0.0000000 -1.0000000  0.0000000 )
                  (  0.0000000  0.0000000  1.0000000 )


      isym =  3     180 deg rotation - cart. axis [0,1,0]        

 cryst.   s( 3) = (    -1          0          0      )
                  (     0          1          0      )
                  (     0          0         -1      )

 cart.    s( 3) = ( -1.0000000  0.0000000  0.0000000 )
                  (  0.0000000  1.0000000  0.0000000 )
                  (  0.0000000  0.0000000 -1.0000000 )


      isym =  4     180 deg rotation - cart. axis [1,0,0]        

 cryst.   s( 4) = (     1          0          0      )
                  (     0         -1          0      )
                  (     0          0         -1      )

 cart.    s( 4) = (  1.0000000  0.0000000  0.0000000 )
                  (  0.0000000 -1.0000000  0.0000000 )
                  (  0.0000000  0.0000000 -1.0000000 )


      isym =  5     180 deg rotation - cart. axis [1,1,0]        

 cryst.   s( 5) = (     0          1          0      )
                  (     1          0          0      )
                  (     0          0         -1      )

 cart.    s( 5) = (  0.0000000  1.0000000  0.0000000 )
                  (  1.0000000  0.0000000  0.0000000 )
                  (  0.0000000  0.0000000 -1.0000000 )


      isym =  6     180 deg rotation - cart. axis [1,-1,0]       

 cryst.   s( 6) = (     0         -1          0      )
                  (    -1          0          0      )
                  (     0          0         -1      )

 cart.    s( 6) = (  0.0000000 -1.0000000  0.0000000 )
                  ( -1.0000000  0.0000000  0.0000000 )
                  (  0.0000000  0.0000000 -1.0000000 )


      isym =  7      90 deg rotation - cart. axis [0,0,-1]       

 cryst.   s( 7) = (     0         -1          0      )
                  (     1          0          0      )
                  (     0          0          1      )

 cart.    s( 7) = (  0.0000000  1.0000000  0.0000000 )
                  ( -1.0000000  0.0000000  0.0000000 )
                  (  0.0000000  0.0000000  1.0000000 )


      isym =  8      90 deg rotation - cart. axis [0,0,1]        

 cryst.   s( 8) = (     0          1          0      )
                  (    -1          0          0      )
                  (     0          0          1      )

 cart.    s( 8) = (  0.0000000 -1.0000000  0.0000000 )
                  (  1.0000000  0.0000000  0.0000000 )
                  (  0.0000000  0.0000000  1.0000000 )


      isym =  9     180 deg rotation - cart. axis [1,0,1]        

 cryst.   s( 9) = (     0          0          1      )
                  (     0         -1          0      )
                  (     1          0          0      )

 cart.    s( 9) = (  0.0000000  0.0000000  1.0000000 )
                  (  0.0000000 -1.0000000  0.0000000 )
                  (  1.0000000  0.0000000  0.0000000 )


      isym = 10     180 deg rotation - cart. axis [-1,0,1]       

 cryst.   s(10) = (     0          0         -1      )
                  (     0         -1          0      )
                  (    -1          0          0      )

 cart.    s(10) = (  0.0000000  0.0000000 -1.0000000 )
                  (  0.0000000 -1.0000000  0.0000000 )
                  ( -1.0000000  0.0000000  0.0000000 )


      isym = 11      90 deg rotation - cart. axis [0,1,0]        

 cryst.   s(11) = (     0          0         -1      )
                  (     0          1          0      )
                  (     1          0          0      )

 cart.    s(11) = (  0.0000000  0.0000000  1.0000000 )
                  (  0.0000000  1.0000000  0.0000000 )
                  ( -1.0000000  0.0000000  0.0000000 )


      isym = 12      90 deg rotation - cart. axis [0,-1,0]       

 cryst.   s(12) = (     0          0          1      )
                  (     0          1          0      )
                  (    -1          0          0      )

 cart.    s(12) = (  0.0000000  0.0000000 -1.0000000 )
                  (  0.0000000  1.0000000  0.0000000 )
                  (  1.0000000  0.0000000  0.0000000 )


      isym = 13     180 deg rotation - cart. axis [0,1,1]        

 cryst.   s(13) = (    -1          0          0      )
                  (     0          0          1      )
                  (     0          1          0      )

 cart.    s(13) = ( -1.0000000  0.0000000  0.0000000 )
                  (  0.0000000  0.0000000  1.0000000 )
                  (  0.0000000  1.0000000  0.0000000 )


      isym = 14     180 deg rotation - cart. axis [0,1,-1]       

 cryst.   s(14) = (    -1          0          0      )
                  (     0          0         -1      )
                  (     0         -1          0      )

 cart.    s(14) = ( -1.0000000  0.0000000  0.0000000 )
                  (  0.0000000  0.0000000 -1.0000000 )
                  (  0.0000000 -1.0000000  0.0000000 )


      isym = 15      90 deg rotation - cart. axis [-1,0,0]       

 cryst.   s(15) = (     1          0          0      )
                  (     0          0         -1      )
                  (     0          1          0      )

 cart.    s(15) = (  1.0000000  0.0000000  0.0000000 )
                  (  0.0000000  0.0000000  1.0000000 )
                  (  0.0000000 -1.0000000  0.0000000 )


      isym = 16      90 deg rotation - cart. axis [1,0,0]        

 cryst.   s(16) = (     1          0          0      )
                  (     0          0          1      )
                  (     0         -1          0      )

 cart.    s(16) = (  1.0000000  0.0000000  0.0000000 )
                  (  0.0000000  0.0000000 -1.0000000 )
                  (  0.0000000  1.0000000  0.0000000 )


      isym = 17     120 deg rotation - cart. axis [-1,-1,-1]     

 cryst.   s(17) = (     0          0          1      )
                  (     1          0          0      )
                  (     0          1          0      )

 cart.    s(17) = (  0.0000000  1.0000000  0.0000000 )
                  (  0.0000000  0.0000000  1.0000000 )
                  (  1.0000000  0.0000000  0.0000000 )


      isym = 18     120 deg rotation - cart. axis [-1,1,1]       

 cryst.   s(18) = (     0          0         -1      )
                  (    -1          0          0      )
                  (     0          1          0      )

 cart.    s(18) = (  0.0000000 -1.0000000  0.0000000 )
                  (  0.0000000  0.0000000  1.0000000 )
                  ( -1.0000000  0.0000000  0.0000000 )


      isym = 19     120 deg rotation - cart. axis [1,1,-1]       

 cryst.   s(19) = (     0          0         -1      )
                  (     1          0          0      )
                  (     0         -1          0      )

 cart.    s(19) = (  0.0000000  1.0000000  0.0000000 )
                  (  0.0000000  0.0000000 -1.0000000 )
                  ( -1.0000000  0.0000000  0.0000000 )


      isym = 20     120 deg rotation - cart. axis [1,-1,1]       

 cryst.   s(20) = (     0          0          1      )
                  (    -1          0          0      )
                  (     0         -1          0      )

 cart.    s(20) = (  0.0000000 -1.0000000  0.0000000 )
                  (  0.0000000  0.0000000 -1.0000000 )
                  (  1.0000000  0.0000000  0.0000000 )


      isym = 21     120 deg rotation - cart. axis [1,1,1]        

 cryst.   s(21) = (     0          1          0      )
                  (     0          0          1      )
                  (     1          0          0      )

 cart.    s(21) = (  0.0000000  0.0000000  1.0000000 )
                  (  1.0000000  0.0000000  0.0000000 )
                  (  0.0000000  1.0000000  0.0000000 )


      isym = 22     120 deg rotation - cart. axis [-1,1,-1]      

 cryst.   s(22) = (     0         -1          0      )
                  (     0          0         -1      )
                  (     1          0          0      )

 cart.    s(22) = (  0.0000000  0.0000000  1.0000000 )
                  ( -1.0000000  0.0000000  0.0000000 )
                  (  0.0000000 -1.0000000  0.0000000 )


      isym = 23     120 deg rotation - cart. axis [1,-1,-1]      

 cryst.   s(23) = (     0         -1          0      )
                  (     0          0          1      )
                  (    -1          0          0      )

 cart.    s(23) = (  0.0000000  0.0000000 -1.0000000 )
                  ( -1.0000000  0.0000000  0.0000000 )
                  (  0.0000000  1.0000000  0.0000000 )


      isym = 24     120 deg rotation - cart. axis [-1,-1,1]      

 cryst.   s(24) = (     0          1          0      )
                  (     0          0         -1      )
                  (    -1          0          0      )

 cart.    s(24) = (  0.0000000  0.0000000 -1.0000000 )
                  (  1.0000000  0.0000000  0.0000000 )
                  (  0.0000000 -1.0000000  0.0000000 )


      isym = 25     inversion                                    

 cryst.   s(25) = (    -1          0          0      )
                  (     0         -1          0      )
                  (     0          0         -1      )

 cart.    s(25) = ( -1.0000000  0.0000000  0.0000000 )
                  (  0.0000000 -1.0000000  0.0000000 )
                  (  0.0000000  0.0000000 -1.0000000 )


      isym = 26     inv. 180 deg rotation - cart. axis [0,0,1]   

 cryst.   s(26) = (     1          0          0      )
                  (     0          1          0      )
                  (     0          0         -1      )

 cart.    s(26) = (  1.0000000  0.0000000  0.0000000 )
                  (  0.0000000  1.0000000  0.0000000 )
                  (  0.0000000  0.0000000 -1.0000000 )


      isym = 27     inv. 180 deg rotation - cart. axis [0,1,0]   

 cryst.   s(27) = (     1          0          0      )
                  (     0         -1          0      )
                  (     0          0          1      )

 cart.    s(27) = (  1.0000000  0.0000000  0.0000000 )
                  (  0.0000000 -1.0000000  0.0000000 )
                  (  0.0000000  0.0000000  1.0000000 )


      isym = 28     inv. 180 deg rotation - cart. axis [1,0,0]   

 cryst.   s(28) = (    -1          0          0      )
                  (     0          1          0      )
                  (     0          0          1      )

 cart.    s(28) = ( -1.0000000  0.0000000  0.0000000 )
                  (  0.0000000  1.0000000  0.0000000 )
                  (  0.0000000  0.0000000  1.0000000 )


      isym = 29     inv. 180 deg rotation - cart. axis [1,1,0]   

 cryst.   s(29) = (     0         -1          0      )
                  (    -1          0          0      )
                  (     0          0          1      )

 cart.    s(29) = (  0.0000000 -1.0000000  0.0000000 )
                  ( -1.0000000  0.0000000  0.0000000 )
                  (  0.0000000  0.0000000  1.0000000 )


      isym = 30     inv. 180 deg rotation - cart. axis [1,-1,0]  

 cryst.   s(30) = (     0          1          0      )
                  (     1          0          0      )
                  (     0          0          1      )

 cart.    s(30) = (  0.0000000  1.0000000  0.0000000 )
                  (  1.0000000  0.0000000  0.0000000 )
                  (  0.0000000  0.0000000  1.0000000 )


      isym = 31     inv.  90 deg rotation - cart. axis [0,0,-1]  

 cryst.   s(31) = (     0          1          0      )
                  (    -1          0          0      )
                  (     0          0         -1      )

 cart.    s(31) = (  0.0000000 -1.0000000  0.0000000 )
                  (  1.0000000  0.0000000  0.0000000 )
                  (  0.0000000  0.0000000 -1.0000000 )


      isym = 32     inv.  90 deg rotation - cart. axis [0,0,1]   

 cryst.   s(32) = (     0         -1          0      )
                  (     1          0          0      )
                  (     0          0         -1      )

 cart.    s(32) = (  0.0000000  1.0000000  0.0000000 )
                  ( -1.0000000  0.0000000  0.0000000 )
                  (  0.0000000  0.0000000 -1.0000000 )


      isym = 33     inv. 180 deg rotation - cart. axis [1,0,1]   

 cryst.   s(33) = (     0          0         -1      )
                  (     0          1          0      )
                  (    -1          0          0      )

 cart.    s(33) = (  0.0000000  0.0000000 -1.0000000 )
                  (  0.0000000  1.0000000  0.0000000 )
                  ( -1.0000000  0.0000000  0.0000000 )


      isym = 34     inv. 180 deg rotation - cart. axis [-1,0,1]  

 cryst.   s(34) = (     0          0          1      )
                  (     0          1          0      )
                  (     1          0          0      )

 cart.    s(34) = (  0.0000000  0.0000000  1.0000000 )
                  (  0.0000000  1.0000000  0.0000000 )
                  (  1.0000000  0.0000000  0.0000000 )


      isym = 35     inv.  90 deg rotation - cart. axis [0,1,0]   

 cryst.   s(35) = (     0          0          1      )
                  (     0         -1          0      )
                  (    -1          0          0      )

 cart.    s(35) = (  0.0000000  0.0000000 -1.0000000 )
                  (  0.0000000 -1.0000000  0.0000000 )
                  (  1.0000000  0.0000000  0.0000000 )


      isym = 36     inv.  90 deg rotation - cart. axis [0,-1,0]  

 cryst.   s(36) = (     0          0         -1      )
                  (     0         -1          0      )
                  (     1          0          0      )

 cart.    s(36) = (  0.0000000  0.0000000  1.0000000 )
                  (  0.0000000 -1.0000000  0.0000000 )
                  ( -1.0000000  0.0000000  0.0000000 )


      isym = 37     inv. 180 deg rotation - cart. axis [0,1,1]   

 cryst.   s(37) = (     1          0          0      )
                  (     0          0         -1      )
                  (     0         -1          0      )

 cart.    s(37) = (  1.0000000  0.0000000  0.0000000 )
                  (  0.0000000  0.0000000 -1.0000000 )
                  (  0.0000000 -1.0000000  0.0000000 )


      isym = 38     inv. 180 deg rotation - cart. axis [0,1,-1]  

 cryst.   s(38) = (     1          0          0      )
                  (     0          0          1      )
                  (     0          1          0      )

 cart.    s(38) = (  1.0000000  0.0000000  0.0000000 )
                  (  0.0000000  0.0000000  1.0000000 )
                  (  0.0000000  1.0000000  0.0000000 )


      isym = 39     inv.  90 deg rotation - cart. axis [-1,0,0]  

 cryst.   s(39) = (    -1          0          0      )
                  (     0          0          1      )
                  (     0         -1          0      )

 cart.    s(39) = ( -1.0000000  0.0000000  0.0000000 )
                  (  0.0000000  0.0000000 -1.0000000 )
                  (  0.0000000  1.0000000  0.0000000 )


      isym = 40     inv.  90 deg rotation - cart. axis [1,0,0]   

 cryst.   s(40) = (    -1          0          0      )
                  (     0          0         -1      )
                  (     0          1          0      )

 cart.    s(40) = ( -1.0000000  0.0000000  0.0000000 )
                  (  0.0000000  0.0000000  1.0000000 )
                  (  0.0000000 -1.0000000  0.0000000 )


      isym = 41     inv. 120 deg rotation - cart. axis [-1,-1,-1]

 cryst.   s(41) = (     0          0         -1      )
                  (    -1          0          0      )
                  (     0         -1          0      )

 cart.    s(41) = (  0.0000000 -1.0000000  0.0000000 )
                  (  0.0000000  0.0000000 -1.0000000 )
                  ( -1.0000000  0.0000000  0.0000000 )


      isym = 42     inv. 120 deg rotation - cart. axis [-1,1,1]  

 cryst.   s(42) = (     0          0          1      )
                  (     1          0          0      )
                  (     0         -1          0      )

 cart.    s(42) = (  0.0000000  1.0000000  0.0000000 )
                  (  0.0000000  0.0000000 -1.0000000 )
                  (  1.0000000  0.0000000  0.0000000 )


      isym = 43     inv. 120 deg rotation - cart. axis [1,1,-1]  

 cryst.   s(43) = (     0          0          1      )
                  (    -1          0          0      )
                  (     0          1          0      )

 cart.    s(43) = (  0.0000000 -1.0000000  0.0000000 )
                  (  0.0000000  0.0000000  1.0000000 )
                  (  1.0000000  0.0000000  0.0000000 )


      isym = 44     inv. 120 deg rotation - cart. axis [1,-1,1]  

 cryst.   s(44) = (     0          0         -1      )
                  (     1          0          0      )
                  (     0          1          0      )

 cart.    s(44) = (  0.0000000  1.0000000  0.0000000 )
                  (  0.0000000  0.0000000  1.0000000 )
                  ( -1.0000000  0.0000000  0.0000000 )


      isym = 45     inv. 120 deg rotation - cart. axis [1,1,1]   

 cryst.   s(45) = (     0         -1          0      )
                  (     0          0         -1      )
                  (    -1          0          0      )

 cart.    s(45) = (  0.0000000  0.0000000 -1.0000000 )
                  ( -1.0000000  0.0000000  0.0000000 )
                  (  0.0000000 -1.0000000  0.0000000 )


      isym = 46     inv. 120 deg rotation - cart. axis [-1,1,-1] 

 cryst.   s(46) = (     0          1          0      )
                  (     0          0          1      )
                  (    -1          0          0      )

 cart.    s(46) = (  0.0000000  0.0000000 -1.0000000 )
                  (  1.0000000  0.0000000  0.0000000 )
                  (  0.0000000  1.0000000  0.0000000 )


      isym = 47     inv. 120 deg rotation - cart. axis [1,-1,-1] 

 cryst.   s(47) = (     0          1          0      )
                  (     0          0         -1      )
                  (     1          0          0      )

 cart.    s(47) = (  0.0000000  0.0000000  1.0000000 )
                  (  1.0000000  0.0000000  0.0000000 )
                  (  0.0000000 -1.0000000  0.0000000 )


      isym = 48     inv. 120 deg rotation - cart. axis [-1,-1,1] 

 cryst.   s(48) = (     0         -1          0      )
                  (     0          0          1      )
                  (     1          0          0      )

 cart.    s(48) = (  0.0000000  0.0000000  1.0000000 )
                  ( -1.0000000  0.0000000  0.0000000 )
                  (  0.0000000  1.0000000  0.0000000 )


   Cartesian axes

     site n.     atom                  positions (alat units)
         1        Li     tau(   1) = (   0.0000000   0.0000000   0.0000000  )
         2        Li     tau(   2) = (   0.1666667   0.1666667   0.1666667  )
         3        Li     tau(   3) = (   0.0000000   0.0000000   0.3333333  )
         4        Li     tau(   4) = (   0.1666667   0.1666667   0.5000000  )
         5        Li     tau(   5) = (   0.0000000   0.0000000   0.6666667  )
         6        Li     tau(   6) = (   0.1666667   0.1666667   0.8333333  )
         7        Li     tau(   7) = (   0.0000000   0.3333333   0.0000000  )
         8        Li     tau(   8) = (   0.1666667   0.5000000   0.1666667  )
         9        Li     tau(   9) = (   0.0000000   0.3333333   0.3333333  )
        10        Li     tau(  10) = (   0.1666667   0.5000000   0.5000000  )
        11        Li     tau(  11) = (   0.0000000   0.3333333   0.6666667  )
        12        Li     tau(  12) = (   0.1666667   0.5000000   0.8333333  )
        13        Li     tau(  13) = (   0.0000000   0.6666667   0.0000000  )
        14        Li     tau(  14) = (   0.1666667   0.8333333   0.1666667  )
        15        Li     tau(  15) = (   0.0000000   0.6666667   0.3333333  )
        16        Li     tau(  16) = (   0.1666667   0.8333333   0.5000000  )
        17        Li     tau(  17) = (   0.0000000   0.6666667   0.6666667  )
        18        Li     tau(  18) = (   0.1666667   0.8333333   0.8333333  )
        19        Li     tau(  19) = (   0.3333333   0.0000000   0.0000000  )
        20        Li     tau(  20) = (   0.5000000   0.1666667   0.1666667  )
        21        Li     tau(  21) = (   0.3333333   0.0000000   0.3333333  )
        22        Li     tau(  22) = (   0.5000000   0.1666667   0.5000000  )
        23        Li     tau(  23) = (   0.3333333   0.0000000   0.6666667  )
        24        Li     tau(  24) = (   0.5000000   0.1666667   0.8333333  )
        25        Li     tau(  25) = (   0.3333333   0.3333333   0.0000000  )
        26        Li     tau(  26) = (   0.5000000   0.5000000   0.1666667  )
        27        Li     tau(  27) = (   0.3333333   0.3333333   0.3333333  )
        28        Li     tau(  28) = (   0.5000000   0.5000000   0.5000000  )
        29        Li     tau(  29) = (   0.3333333   0.3333333   0.6666667  )
        30        Li     tau(  30) = (   0.5000000   0.5000000   0.8333333  )
        31        Li     tau(  31) = (   0.3333333   0.6666667   0.0000000  )
        32        Li     tau(  32) = (   0.5000000   0.8333333   0.1666667  )
        33        Li     tau(  33) = (   0.3333333   0.6666667   0.3333333  )
        34        Li     tau(  34) = (   0.5000000   0.8333333   0.5000000  )
        35        Li     tau(  35) = (   0.3333333   0.6666667   0.6666667  )
        36        Li     tau(  36) = (   0.5000000   0.8333333   0.8333333  )
        37        Li     tau(  37) = (   0.6666667   0.0000000   0.0000000  )
        38        Li     tau(  38) = (   0.8333333   0.1666667   0.1666667  )
        39        Li     tau(  39) = (   0.6666667   0.0000000   0.3333333  )
        40        Li     tau(  40) = (   0.8333333   0.1666667   0.5000000  )
        41        Li     tau(  41) = (   0.6666667   0.0000000   0.6666667  )
        42        Li     tau(  42) = (   0.8333333   0.1666667   0.8333333  )
        43        Li     tau(  43) = (   0.6666667   0.3333333   0.0000000  )
        44        Li     tau(  44) = (   0.8333333   0.5000000   0.1666667  )
        45        Li     tau(  45) = (   0.6666667   0.3333333   0.3333333  )
        46        Li     tau(  46) = (   0.8333333   0.5000000   0.5000000  )
        47        Li     tau(  47) = (   0.6666667   0.3333333   0.6666667  )
        48        Li     tau(  48) = (   0.8333333   0.5000000   0.8333333  )
        49        Li     tau(  49) = (   0.6666667   0.6666667   0.0000000  )
        50        Li     tau(  50) = (   0.8333333   0.8333333   0.1666667  )
        51        Li     tau(  51) = (   0.6666667   0.6666667   0.3333333  )
        52        Li     tau(  52) = (   0.8333333   0.8333333   0.5000000  )
        53        Li     tau(  53) = (   0.6666667   0.6666667   0.6666667  )
        54        Li     tau(  54) = (   0.8333333   0.8333333   0.8333333  )

   Crystallographic axes

     site n.     atom                  positions (cryst. coord.)
         1        Li     tau(   1) = (  0.0000000  0.0000000  0.0000000  )
         2        Li     tau(   2) = (  0.1666667  0.1666667  0.1666667  )
         3        Li     tau(   3) = (  0.0000000  0.0000000  0.3333333  )
         4        Li     tau(   4) = (  0.1666667  0.1666667  0.5000000  )
         5        Li     tau(   5) = (  0.0000000  0.0000000  0.6666667  )
         6        Li     tau(   6) = (  0.1666667  0.1666667  0.8333333  )
         7        Li     tau(   7) = (  0.0000000  0.3333333  0.0000000  )
         8        Li     tau(   8) = (  0.1666667  0.5000000  0.1666667  )
         9        Li     tau(   9) = (  0.0000000  0.3333333  0.3333333  )
        10        Li     tau(  10) = (  0.1666667  0.5000000  0.5000000  )
        11        Li     tau(  11) = (  0.0000000  0.3333333  0.6666667  )
        12        Li     tau(  12) = (  0.1666667  0.5000000  0.8333333  )
        13        Li     tau(  13) = (  0.0000000  0.6666667  0.0000000  )
        14        Li     tau(  14) = (  0.1666667  0.8333333  0.1666667  )
        15        Li     tau(  15) = (  0.0000000  0.6666667  0.3333333  )
        16        Li     tau(  16) = (  0.1666667  0.8333333  0.5000000  )
        17        Li     tau(  17) = (  0.0000000  0.6666667  0.6666667  )
        18        Li     tau(  18) = (  0.1666667  0.8333333  0.8333333  )
        19        Li     tau(  19) = (  0.3333333  0.0000000  0.0000000  )
        20        Li     tau(  20) = (  0.5000000  0.1666667  0.1666667  )
        21        Li     tau(  21) = (  0.3333333  0.0000000  0.3333333  )
        22        Li     tau(  22) = (  0.5000000  0.1666667  0.5000000  )
        23        Li     tau(  23) = (  0.3333333  0.0000000  0.6666667  )
        24        Li     tau(  24) = (  0.5000000  0.1666667  0.8333333  )
        25        Li     tau(  25) = (  0.3333333  0.3333333  0.0000000  )
        26        Li     tau(  26) = (  0.5000000  0.5000000  0.1666667  )
        27        Li     tau(  27) = (  0.3333333  0.3333333  0.3333333  )
        28        Li     tau(  28) = (  0.5000000  0.5000000  0.5000000  )
        29        Li     tau(  29) = (  0.3333333  0.3333333  0.6666667  )
        30        Li     tau(  30) = (  0.5000000  0.5000000  0.8333333  )
        31        Li     tau(  31) = (  0.3333333  0.6666667  0.0000000  )
        32        Li     tau(  32) = (  0.5000000  0.8333333  0.1666667  )
        33        Li     tau(  33) = (  0.3333333  0.6666667  0.3333333  )
        34        Li     tau(  34) = (  0.5000000  0.8333333  0.5000000  )
        35        Li     tau(  35) = (  0.3333333  0.6666667  0.6666667  )
        36        Li     tau(  36) = (  0.5000000  0.8333333  0.8333333  )
        37        Li     tau(  37) = (  0.6666667  0.0000000  0.0000000  )
        38        Li     tau(  38) = (  0.8333333  0.1666667  0.1666667  )
        39        Li     tau(  39) = (  0.6666667  0.0000000  0.3333333  )
        40        Li     tau(  40) = (  0.8333333  0.1666667  0.5000000  )
        41        Li     tau(  41) = (  0.6666667  0.0000000  0.6666667  )
        42        Li     tau(  42) = (  0.8333333  0.1666667  0.8333333  )
        43        Li     tau(  43) = (  0.6666667  0.3333333  0.0000000  )
        44        Li     tau(  44) = (  0.8333333  0.5000000  0.1666667  )
        45        Li     tau(  45) = (  0.6666667  0.3333333  0.3333333  )
        46        Li     tau(  46) = (  0.8333333  0.5000000  0.5000000  )
        47        Li     tau(  47) = (  0.6666667  0.3333333  0.6666667  )
        48        Li     tau(  48) = (  0.8333333  0.5000000  0.8333333  )
        49        Li     tau(  49) = (  0.6666667  0.6666667  0.0000000  )
        50        Li     tau(  50) = (  0.8333333  0.8333333  0.1666667  )
        51        Li     tau(  51) = (  0.6666667  0.6666667  0.3333333  )
        52        Li     tau(  52) = (  0.8333333  0.8333333  0.5000000  )
        53        Li     tau(  53) = (  0.6666667  0.6666667  0.6666667  )
        54        Li     tau(  54) = (  0.8333333  0.8333333  0.8333333  )

     number of k points=    56  Marzari-Vanderbilt smearing, width (Ry)=  0.0100
                       cart. coord. in units 2pi/alat
        k(    1) = (   0.0000000   0.0000000   0.0000000), wk =   0.0020000
        k(    2) = (   0.0000000   0.0000000   0.1000000), wk =   0.0120000
        k(    3) = (   0.0000000   0.0000000   0.2000000), wk =   0.0120000
        k(    4) = (   0.0000000   0.0000000   0.3000000), wk =   0.0120000
        k(    5) = (   0.0000000   0.0000000   0.4000000), wk =   0.0120000
        k(    6) = (   0.0000000   0.0000000  -0.5000000), wk =   0.0060000
        k(    7) = (   0.0000000   0.1000000   0.1000000), wk =   0.0240000
        k(    8) = (   0.0000000   0.1000000   0.2000000), wk =   0.0480000
        k(    9) = (   0.0000000   0.1000000   0.3000000), wk =   0.0480000
        k(   10) = (   0.0000000   0.1000000   0.4000000), wk =   0.0480000
        k(   11) = (   0.0000000   0.1000000  -0.5000000), wk =   0.0240000
        k(   12) = (   0.0000000   0.2000000   0.2000000), wk =   0.0240000
        k(   13) = (   0.0000000   0.2000000   0.3000000), wk =   0.0480000
        k(   14) = (   0.0000000   0.2000000   0.4000000), wk =   0.0480000
        k(   15) = (   0.0000000   0.2000000  -0.5000000), wk =   0.0240000
        k(   16) = (   0.0000000   0.3000000   0.3000000), wk =   0.0240000
        k(   17) = (   0.0000000   0.3000000   0.4000000), wk =   0.0480000
        k(   18) = (   0.0000000   0.3000000  -0.5000000), wk =   0.0240000
        k(   19) = (   0.0000000   0.4000000   0.4000000), wk =   0.0240000
        k(   20) = (   0.0000000   0.4000000  -0.5000000), wk =   0.0240000
        k(   21) = (   0.0000000  -0.5000000  -0.5000000), wk =   0.0060000
        k(   22) = (   0.1000000   0.1000000   0.1000000), wk =   0.0160000
        k(   23) = (   0.1000000   0.1000000   0.2000000), wk =   0.0480000
        k(   24) = (   0.1000000   0.1000000   0.3000000), wk =   0.0480000
        k(   25) = (   0.1000000   0.1000000   0.4000000), wk =   0.0480000
        k(   26) = (   0.1000000   0.1000000  -0.5000000), wk =   0.0240000
        k(   27) = (   0.1000000   0.2000000   0.2000000), wk =   0.0480000
        k(   28) = (   0.1000000   0.2000000   0.3000000), wk =   0.0960000
        k(   29) = (   0.1000000   0.2000000   0.4000000), wk =   0.0960000
        k(   30) = (   0.1000000   0.2000000  -0.5000000), wk =   0.0480000
        k(   31) = (   0.1000000   0.3000000   0.3000000), wk =   0.0480000
        k(   32) = (   0.1000000   0.3000000   0.4000000), wk =   0.0960000
        k(   33) = (   0.1000000   0.3000000  -0.5000000), wk =   0.0480000
        k(   34) = (   0.1000000   0.4000000   0.4000000), wk =   0.0480000
        k(   35) = (   0.1000000   0.4000000  -0.5000000), wk =   0.0480000
        k(   36) = (   0.1000000  -0.5000000  -0.5000000), wk =   0.0120000
        k(   37) = (   0.2000000   0.2000000   0.2000000), wk =   0.0160000
        k(   38) = (   0.2000000   0.2000000   0.3000000), wk =   0.0480000
        k(   39) = (   0.2000000   0.2000000   0.4000000), wk =   0.0480000
        k(   40) = (   0.2000000   0.2000000  -0.5000000), wk =   0.0240000
        k(   41) = (   0.2000000   0.3000000   0.3000000), wk =   0.0480000
        k(   42) = (   0.2000000   0.3000000   0.4000000), wk =   0.0960000
        k(   43) = (   0.2000000   0.3000000  -0.5000000), wk =   0.0480000
        k(   44) = (   0.2000000   0.4000000   0.4000000), wk =   0.0480000
        k(   45) = (   0.2000000   0.4000000  -0.5000000), wk =   0.0480000
        k(   46) = (   0.2000000  -0.5000000  -0.5000000), wk =   0.0120000
        k(   47) = (   0.3000000   0.3000000   0.3000000), wk =   0.0160000
        k(   48) = (   0.3000000   0.3000000   0.4000000), wk =   0.0480000
        k(   49) = (   0.3000000   0.3000000  -0.5000000), wk =   0.0240000
        k(   50) = (   0.3000000   0.4000000   0.4000000), wk =   0.0480000
        k(   51) = (   0.3000000   0.4000000  -0.5000000), wk =   0.0480000
        k(   52) = (   0.3000000  -0.5000000  -0.5000000), wk =   0.0120000
        k(   53) = (   0.4000000   0.4000000   0.4000000), wk =   0.0160000
        k(   54) = (   0.4000000   0.4000000  -0.5000000), wk =   0.0240000
        k(   55) = (   0.4000000  -0.5000000  -0.5000000), wk =   0.0120000
        k(   56) = (  -0.5000000  -0.5000000  -0.5000000), wk =   0.0020000

                       cryst. coord.
        k(    1) = (   0.0000000   0.0000000   0.0000000), wk =   0.0020000
        k(    2) = (   0.0000000   0.0000000   0.1000000), wk =   0.0120000
        k(    3) = (   0.0000000   0.0000000   0.2000000), wk =   0.0120000
        k(    4) = (   0.0000000   0.0000000   0.3000000), wk =   0.0120000
        k(    5) = (   0.0000000   0.0000000   0.4000000), wk =   0.0120000
        k(    6) = (   0.0000000   0.0000000  -0.5000000), wk =   0.0060000
        k(    7) = (   0.0000000   0.1000000   0.1000000), wk =   0.0240000
        k(    8) = (   0.0000000   0.1000000   0.2000000), wk =   0.0480000
        k(    9) = (   0.0000000   0.1000000   0.3000000), wk =   0.0480000
        k(   10) = (   0.0000000   0.1000000   0.4000000), wk =   0.0480000
        k(   11) = (   0.0000000   0.1000000  -0.5000000), wk =   0.0240000
        k(   12) = (   0.0000000   0.2000000   0.2000000), wk =   0.0240000
        k(   13) = (   0.0000000   0.2000000   0.3000000), wk =   0.0480000
        k(   14) = (   0.0000000   0.2000000   0.4000000), wk =   0.0480000
        k(   15) = (   0.0000000   0.2000000  -0.5000000), wk =   0.0240000
        k(   16) = (   0.0000000   0.3000000   0.3000000), wk =   0.0240000
        k(   17) = (   0.0000000   0.3000000   0.4000000), wk =   0.0480000
        k(   18) = (   0.0000000   0.3000000  -0.5000000), wk =   0.0240000
        k(   19) = (   0.0000000   0.4000000   0.4000000), wk =   0.0240000
        k(   20) = (   0.0000000   0.4000000  -0.5000000), wk =   0.0240000
        k(   21) = (   0.0000000  -0.5000000  -0.5000000), wk =   0.0060000
        k(   22) = (   0.1000000   0.1000000   0.1000000), wk =   0.0160000
        k(   23) = (   0.1000000   0.1000000   0.2000000), wk =   0.0480000
        k(   24) = (   0.1000000   0.1000000   0.3000000), wk =   0.0480000
        k(   25) = (   0.1000000   0.1000000   0.4000000), wk =   0.0480000
        k(   26) = (   0.1000000   0.1000000  -0.5000000), wk =   0.0240000
        k(   27) = (   0.1000000   0.2000000   0.2000000), wk =   0.0480000
        k(   28) = (   0.1000000   0.2000000   0.3000000), wk =   0.0960000
        k(   29) = (   0.1000000   0.2000000   0.4000000), wk =   0.0960000
        k(   30) = (   0.1000000   0.2000000  -0.5000000), wk =   0.0480000
        k(   31) = (   0.1000000   0.3000000   0.3000000), wk =   0.0480000
        k(   32) = (   0.1000000   0.3000000   0.4000000), wk =   0.0960000
        k(   33) = (   0.1000000   0.3000000  -0.5000000), wk =   0.0480000
        k(   34) = (   0.1000000   0.4000000   0.4000000), wk =   0.0480000
        k(   35) = (   0.1000000   0.4000000  -0.5000000), wk =   0.0480000
        k(   36) = (   0.1000000  -0.5000000  -0.5000000), wk =   0.0120000
        k(   37) = (   0.2000000   0.2000000   0.2000000), wk =   0.0160000
        k(   38) = (   0.2000000   0.2000000   0.3000000), wk =   0.0480000
        k(   39) = (   0.2000000   0.2000000   0.4000000), wk =   0.0480000
        k(   40) = (   0.2000000   0.2000000  -0.5000000), wk =   0.0240000
        k(   41) = (   0.2000000   0.3000000   0.3000000), wk =   0.0480000
        k(   42) = (   0.2000000   0.3000000   0.4000000), wk =   0.0960000
        k(   43) = (   0.2000000   0.3000000  -0.5000000), wk =   0.0480000
        k(   44) = (   0.2000000   0.4000000   0.4000000), wk =   0.0480000
        k(   45) = (   0.2000000   0.4000000  -0.5000000), wk =   0.0480000
        k(   46) = (   0.2000000  -0.5000000  -0.5000000), wk =   0.0120000
        k(   47) = (   0.3000000   0.3000000   0.3000000), wk =   0.0160000
        k(   48) = (   0.3000000   0.3000000   0.4000000), wk =   0.0480000
        k(   49) = (   0.3000000   0.3000000  -0.5000000), wk =   0.0240000
        k(   50) = (   0.3000000   0.4000000   0.4000000), wk =   0.0480000
        k(   51) = (   0.3000000   0.4000000  -0.5000000), wk =   0.0480000
        k(   52) = (   0.3000000  -0.5000000  -0.5000000), wk =   0.0120000
        k(   53) = (   0.4000000   0.4000000   0.4000000), wk =   0.0160000
        k(   54) = (   0.4000000   0.4000000  -0.5000000), wk =   0.0240000
        k(   55) = (   0.4000000  -0.5000000  -0.5000000), wk =   0.0120000
        k(   56) = (  -0.5000000  -0.5000000  -0.5000000), wk =   0.0020000

     Dense  grid:  2819855 G-vectors     FFT dimensions: ( 180, 180, 180)

     Smooth grid:   713423 G-vectors     FFT dimensions: ( 120, 120, 120)

     Dynamical RAM for                 wfc:       2.75 MB

     Dynamical RAM for     wfc (w. buffer):      22.00 MB

     Dynamical RAM for           str. fact:       0.90 MB

     Dynamical RAM for           local pot:       0.00 MB

     Dynamical RAM for          nlocal pot:      12.25 MB

     Dynamical RAM for                qrad:       1.30 MB

     Dynamical RAM for          rho,v,vnew:       5.66 MB

     Dynamical RAM for               rhoin:       1.89 MB

     Dynamical RAM for            rho*nmix:      14.34 MB

     Dynamical RAM for           G-vectors:       3.48 MB

     Dynamical RAM for          h,s,v(r/c):       1.72 MB

     Dynamical RAM for          <psi|beta>:       0.64 MB

     Dynamical RAM for                 psi:       5.50 MB

     Dynamical RAM for                hpsi:       5.50 MB

     Dynamical RAM for                spsi:       5.50 MB

     Dynamical RAM for      wfcinit/wfcrot:       5.72 MB

     Dynamical RAM for           addusdens:      11.65 MB

     Dynamical RAM for          addusforce:      23.24 MB

     Dynamical RAM for         addusstress:       5.99 MB

     Estimated static dynamical RAM per process >      54.19 MB

     Estimated max dynamical RAM per process >      91.77 MB

     Estimated total dynamical RAM >      29.71 GB

     Initial potential from superposition of free atoms

     starting charge     161.7511, renormalised to     162.0000
     Starting wfcs are random
     Checking if some PAW data can be deallocated... 

     total cpu time spent up to now is        5.2 secs

     Self-consistent Calculation

     iteration #  1     ecut=    80.00 Ry     beta= 0.80
     Davidson diagonalization with overlap

---- Real-time Memory Report at c_bands before calling an iterative solver
           260 MiB given to the printing process from OS
             0 MiB allocation reported by mallinfo(arena+hblkhd)
        644097 MiB available memory on the node where the printing process lives
------------------
     ethr =  1.00E-02,  avg # of iterations =  9.6

     Threshold (ethr) on eigenvalues was too large:
     Diagonalizing with lowered threshold

     Davidson diagonalization with overlap

---- Real-time Memory Report at c_bands before calling an iterative solver
           378 MiB given to the printing process from OS
             0 MiB allocation reported by mallinfo(arena+hblkhd)
        641409 MiB available memory on the node where the printing process lives
------------------
     ethr =  4.22E-04,  avg # of iterations = 14.0

     total cpu time spent up to now is       40.3 secs

     total energy              =    -812.33910857 Ry
     estimated scf accuracy    <       0.02859782 Ry

     iteration #  2     ecut=    80.00 Ry     beta= 0.80
     Davidson diagonalization with overlap

---- Real-time Memory Report at c_bands before calling an iterative solver
           502 MiB given to the printing process from OS
             0 MiB allocation reported by mallinfo(arena+hblkhd)
        638626 MiB available memory on the node where the printing process lives
------------------
     c_bands:  3 eigenvalues not converged
     c_bands:  1 eigenvalues not converged
     ethr =  1.77E-05,  avg # of iterations = 15.6

     total cpu time spent up to now is       57.6 secs

     total energy              =    -812.38157392 Ry
     estimated scf accuracy    <       0.00187059 Ry

     iteration #  3     ecut=    80.00 Ry     beta= 0.80
     Davidson diagonalization with overlap

---- Real-time Memory Report at c_bands before calling an iterative solver
           606 MiB given to the printing process from OS
             0 MiB allocation reported by mallinfo(arena+hblkhd)
        634017 MiB available memory on the node where the printing process lives
------------------
     c_bands:  1 eigenvalues not converged
     ethr =  1.15E-06,  avg # of iterations =  9.6

     total cpu time spent up to now is       68.5 secs

     total energy              =    -812.38206020 Ry
     estimated scf accuracy    <       0.00090063 Ry

     iteration #  4     ecut=    80.00 Ry     beta= 0.80
     Davidson diagonalization with overlap

---- Real-time Memory Report at c_bands before calling an iterative solver
           649 MiB given to the printing process from OS
             0 MiB allocation reported by mallinfo(arena+hblkhd)
        633914 MiB available memory on the node where the printing process lives
------------------
     ethr =  5.56E-07,  avg # of iterations =  7.1

     total cpu time spent up to now is       76.9 secs

     total energy              =    -812.38144067 Ry
     estimated scf accuracy    <       0.01104122 Ry

     iteration #  5     ecut=    80.00 Ry     beta= 0.80
     Davidson diagonalization with overlap

---- Real-time Memory Report at c_bands before calling an iterative solver
           681 MiB given to the printing process from OS
             0 MiB allocation reported by mallinfo(arena+hblkhd)
        633901 MiB available memory on the node where the printing process lives
------------------
     ethr =  5.56E-07,  avg # of iterations =  5.1

     total cpu time spent up to now is       83.1 secs

     total energy              =    -812.38232305 Ry
     estimated scf accuracy    <       0.00077140 Ry

     iteration #  6     ecut=    80.00 Ry     beta= 0.80
     Davidson diagonalization with overlap

---- Real-time Memory Report at c_bands before calling an iterative solver
           706 MiB given to the printing process from OS
             0 MiB allocation reported by mallinfo(arena+hblkhd)
        633906 MiB available memory on the node where the printing process lives
------------------
     ethr =  4.76E-07,  avg # of iterations =  2.0

     total cpu time spent up to now is       87.9 secs

     total energy              =    -812.38243058 Ry
     estimated scf accuracy    <       0.00000726 Ry

     iteration #  7     ecut=    80.00 Ry     beta= 0.80
     Davidson diagonalization with overlap

---- Real-time Memory Report at c_bands before calling an iterative solver
           728 MiB given to the printing process from OS
             0 MiB allocation reported by mallinfo(arena+hblkhd)
        633898 MiB available memory on the node where the printing process lives
------------------
     ethr =  4.48E-09,  avg # of iterations = 10.4

     total cpu time spent up to now is      104.6 secs

     total energy              =    -812.38245387 Ry
     estimated scf accuracy    <       0.00000545 Ry

     iteration #  8     ecut=    80.00 Ry     beta= 0.80
     Davidson diagonalization with overlap

---- Real-time Memory Report at c_bands before calling an iterative solver
           794 MiB given to the printing process from OS
             0 MiB allocation reported by mallinfo(arena+hblkhd)
        633617 MiB available memory on the node where the printing process lives
------------------
     ethr =  3.36E-09,  avg # of iterations =  2.0

     total cpu time spent up to now is      109.3 secs

     total energy              =    -812.38245423 Ry
     estimated scf accuracy    <       0.00000048 Ry

     iteration #  9     ecut=    80.00 Ry     beta= 0.80
     Davidson diagonalization with overlap

---- Real-time Memory Report at c_bands before calling an iterative solver
           817 MiB given to the printing process from OS
             0 MiB allocation reported by mallinfo(arena+hblkhd)
        633676 MiB available memory on the node where the printing process lives
------------------
     ethr =  2.98E-10,  avg # of iterations =  5.9

     total cpu time spent up to now is      118.9 secs

     total energy              =    -812.38245457 Ry
     estimated scf accuracy    <       0.00000012 Ry

     iteration # 10     ecut=    80.00 Ry     beta= 0.80
     Davidson diagonalization with overlap

---- Real-time Memory Report at c_bands before calling an iterative solver
           850 MiB given to the printing process from OS
             0 MiB allocation reported by mallinfo(arena+hblkhd)
        633566 MiB available memory on the node where the printing process lives
------------------
     ethr =  7.42E-11,  avg # of iterations =  4.3

     total cpu time spent up to now is      126.1 secs

     total energy              =    -812.38245460 Ry
     estimated scf accuracy    <          7.9E-09 Ry

     iteration # 11     ecut=    80.00 Ry     beta= 0.80
     Davidson diagonalization with overlap

---- Real-time Memory Report at c_bands before calling an iterative solver
           874 MiB given to the printing process from OS
             0 MiB allocation reported by mallinfo(arena+hblkhd)
        633542 MiB available memory on the node where the printing process lives
------------------
     ethr =  4.90E-12,  avg # of iterations =  7.4

     total cpu time spent up to now is      139.4 secs

     total energy              =    -812.38245462 Ry
     estimated scf accuracy    <          2.7E-09 Ry

     iteration # 12     ecut=    80.00 Ry     beta= 0.80
     Davidson diagonalization with overlap

---- Real-time Memory Report at c_bands before calling an iterative solver
           915 MiB given to the printing process from OS
             0 MiB allocation reported by mallinfo(arena+hblkhd)
        633216 MiB available memory on the node where the printing process lives
------------------
     ethr =  1.67E-12,  avg # of iterations =  3.1

     total cpu time spent up to now is      145.4 secs

     total energy              =    -812.38245462 Ry
     estimated scf accuracy    <          4.1E-11 Ry

     iteration # 13     ecut=    80.00 Ry     beta= 0.80
     Davidson diagonalization with overlap

---- Real-time Memory Report at c_bands before calling an iterative solver
           935 MiB given to the printing process from OS
             0 MiB allocation reported by mallinfo(arena+hblkhd)
        633201 MiB available memory on the node where the printing process lives
------------------
     ethr =  1.00E-13,  avg # of iterations =  6.7

     total cpu time spent up to now is      157.2 secs

     total energy              =    -812.38245462 Ry
     estimated scf accuracy    <          9.6E-12 Ry

     iteration # 14     ecut=    80.00 Ry     beta= 0.80
     Davidson diagonalization with overlap

---- Real-time Memory Report at c_bands before calling an iterative solver
           973 MiB given to the printing process from OS
             0 MiB allocation reported by mallinfo(arena+hblkhd)
        633042 MiB available memory on the node where the printing process lives
------------------
     ethr =  1.00E-13,  avg # of iterations =  1.0

     total cpu time spent up to now is      161.2 secs

     total energy              =    -812.38245462 Ry
     estimated scf accuracy    <          3.7E-13 Ry

     iteration # 15     ecut=    80.00 Ry     beta= 0.80
     Davidson diagonalization with overlap

---- Real-time Memory Report at c_bands before calling an iterative solver
           987 MiB given to the printing process from OS
             0 MiB allocation reported by mallinfo(arena+hblkhd)
        633053 MiB available memory on the node where the printing process lives
------------------
     ethr =  1.00E-13,  avg # of iterations =  1.0

     total cpu time spent up to now is      165.3 secs

     total energy              =    -812.38245462 Ry
     estimated scf accuracy    <          1.7E-13 Ry

     iteration # 16     ecut=    80.00 Ry     beta= 0.80
     Davidson diagonalization with overlap

---- Real-time Memory Report at c_bands before calling an iterative solver
          1005 MiB given to the printing process from OS
             0 MiB allocation reported by mallinfo(arena+hblkhd)
        633045 MiB available memory on the node where the printing process lives
------------------
     ethr =  1.00E-13,  avg # of iterations =  1.0

     total cpu time spent up to now is      169.2 secs

     End of self-consistent calculation

          k = 0.0000 0.0000 0.0000 ( 88959 PWs)   bands (ev):

   -45.5997 -45.5904 -45.5904 -45.5904 -45.5904 -45.5904 -45.5904 -45.5852
   -45.5852 -45.5852 -45.5852 -45.5852 -45.5852 -45.5852 -45.5852 -45.5852
   -45.5852 -45.5852 -45.5852 -45.5820 -45.5820 -45.5820 -45.5820 -45.5820
   -45.5820 -45.5820 -45.5820 -45.5780 -45.5780 -45.5780 -45.5780 -45.5780
   -45.5780 -45.5780 -45.5780 -45.5771 -45.5771 -45.5771 -45.5771 -45.5771
   -45.5771 -45.5771 -45.5771 -45.5771 -45.5771 -45.5771 -45.5771 -45.5741
   -45.5741 -45.5741 -45.5741 -45.5741 -45.5741 -45.5671  -2.6567  -1.5930
    -1.5930  -1.5930  -1.5930  -1.5930  -1.5930  -0.5665  -0.5665  -0.5665
    -0.5665  -0.5665  -0.5665  -0.5665  -0.5665  -0.5665  -0.5665  -0.5665
    -0.5665   0.5087   0.5087   0.5087   0.5087   0.5087   0.5087   0.5087
     0.5087   1.6958   1.6958   1.6958   1.6958   1.6958   1.6958   1.8546
     1.8546   1.8546   1.8546   1.8546   1.8546   1.8546   1.8546   1.8546
     1.8546

     occupation numbers 
     1.0000   1.0000   1.0000   1.0000   1.0000   1.0000   1.0000   1.0000
     1.0000   1.0000   1.0000   1.0000   1.0000   1.0000   1.0000   1.0000
     1.0000   1.0000   1.0000   1.0000   1.0000   1.0000   1.0000   1.0000
     1.0000   1.0000   1.0000   1.0000   1.0000   1.0000   1.0000   1.0000
     1.0000   1.0000   1.0000   1.0000   1.0000   1.0000   1.0000   1.0000
     1.0000   1.0000   1.0000   1.0000   1.0000   1.0000   1.0000   1.0000
     1.0000   1.0000   1.0000   1.0000   1.0000   1.0000   1.0000   1.0000
     1.0000   1.0000   1.0000   1.0000   1.0000   1.0000   1.0000   1.0000
     1.0000   1.0000   1.0000   1.0000   1.0000   1.0000   1.0000   1.0000
     1.0000   1.0009   1.0009   1.0009   1.0009   1.0009   1.0009   1.0009
     1.0009   0.0000   0.0000   0.0000   0.0000   0.0000   0.0000   0.0000
     0.0000   0.0000   0.0000   0.0000   0.0000   0.0000   0.0000   0.0000
     0.0000

          k = 0.0000 0.0000 0.1000 ( 89119 PWs)   bands (ev):

   -45.5996 -45.5920 -45.5904 -45.5904 -45.5904 -45.5904 -45.5888 -45.5861
   -45.5861 -45.5861 -45.5861 -45.5852 -45.5852 -45.5852 -45.5852 -45.5843
   -45.5843 -45.5843 -45.5843 -45.5825 -45.5825 -45.5825 -45.5825 -45.5815
   -45.5815 -45.5815 -45.5815 -45.5782 -45.5782 -45.5782 -45.5782 -45.5778
   -45.5778 -45.5778 -45.5778 -45.5777 -45.5777 -45.5777 -45.5777 -45.5771
   -45.5771 -45.5771 -45.5771 -45.5765 -45.5765 -45.5765 -45.5765 -45.5755
   -45.5742 -45.5742 -45.5742 -45.5742 -45.5728 -45.5672  -2.6462  -1.7967
    -1.5827  -1.5827  -1.5827  -1.5827  -1.3672  -0.7594  -0.7594  -0.7594
    -0.7594  -0.5555  -0.5555  -0.5555  -0.5555  -0.3549  -0.3549  -0.3549
    -0.3549   0.3080   0.3080   0.3080   0.3080   0.7284   0.7284   0.7284
     0.7284   1.2624   1.6833   1.6833   1.6833   1.6833   1.7039   1.7039
     1.7039   1.7039   1.8686   1.8686   1.8686   1.8686   1.9566   1.9566
     1.9566

     occupation numbers 
     1.0000   1.0000   1.0000   1.0000   1.0000   1.0000   1.0000   1.0000
     1.0000   1.0000   1.0000   1.0000   1.0000   1.0000   1.0000   1.0000
     1.0000   1.0000   1.0000   1.0000   1.0000   1.0000   1.0000   1.0000
     1.0000   1.0000   1.0000   1.0000   1.0000   1.0000   1.0000   1.0000
     1.0000   1.0000   1.0000   1.0000   1.0000   1.0000   1.0000   1.0000
     1.0000   1.0000   1.0000   1.0000   1.0000   1.0000   1.0000   1.0000
     1.0000   1.0000   1.0000   1.0000   1.0000   1.0000   1.0000   1.0000
     1.0000   1.0000   1.0000   1.0000   1.0000   1.0000   1.0000   1.0000
     1.0000   1.0000   1.0000   1.0000   1.0000   1.0000   1.0000   1.0000
     1.0000   1.0000   1.0000   1.0000   1.0000   1.0819   1.0819   1.0819
     1.0819   0.0000   0.0000   0.0000   0.0000   0.0000   0.0000   0.0000
     0.0000   0.0000   0.0000   0.0000   0.0000   0.0000   0.0000   0.0000
     0.0000

          k = 0.0000 0.0000 0.2000 ( 89219 PWs)   bands (ev):

   -45.5993 -45.5935 -45.5902 -45.5902 -45.5902 -45.5902 -45.5871 -45.5869
   -45.5869 -45.5869 -45.5869 -45.5851 -45.5851 -45.5851 -45.5851 -45.5834
   -45.5834 -45.5834 -45.5834 -45.5830 -45.5830 -45.5830 -45.5830 -45.5810
   -45.5810 -45.5810 -45.5810 -45.5785 -45.5785 -45.5785 -45.5785 -45.5784
   -45.5784 -45.5784 -45.5784 -45.5776 -45.5776 -45.5776 -45.5776 -45.5771
   -45.5771 -45.5771 -45.5771 -45.5770 -45.5760 -45.5760 -45.5760 -45.5760
   -45.5742 -45.5742 -45.5742 -45.5742 -45.5717 -45.5674  -2.6146  -1.9783
    -1.5516  -1.5516  -1.5516  -1.5516  -1.1190  -0.9331  -0.9331  -0.9331
    -0.9331  -0.5227  -0.5227  -0.5227  -0.5227  -0.1257  -0.1257  -0.1257
    -0.1257   0.1268   0.1268   0.1268   0.1268   0.8522   0.9660   0.9660
     0.9660   0.9660   1.4578   1.4578   1.4578   1.4578   1.7278   1.7278
     1.7278   1.7278   1.9105   1.9105   1.9105   1.9105   1.9910   1.9910
     1.9910

     occupation numbers 
     1.0000   1.0000   1.0000   1.0000   1.0000   1.0000   1.0000   1.0000
     1.0000   1.0000   1.0000   1.0000   1.0000   1.0000   1.0000   1.0000
     1.0000   1.0000   1.0000   1.0000   1.0000   1.0000   1.0000   1.0000
     1.0000   1.0000   1.0000   1.0000   1.0000   1.0000   1.0000   1.0000
     1.0000   1.0000   1.0000   1.0000   1.0000   1.0000   1.0000   1.0000
     1.0000   1.0000   1.0000   1.0000   1.0000   1.0000   1.0000   1.0000
     1.0000   1.0000   1.0000   1.0000   1.0000   1.0000   1.0000   1.0000
     1.0000   1.0000   1.0000   1.0000   1.0000   1.0000   1.0000   1.0000
     1.0000   1.0000   1.0000   1.0000   1.0000   1.0000   1.0000   1.0000
     1.0000   1.0000   1.0000   1.0000   1.0000   0.8242   0.2469   0.2469
     0.2469   0.2469   0.0000   0.0000   0.0000   0.0000   0.0000   0.0000
     0.0000   0.0000   0.0000   0.0000   0.0000   0.0000   0.0000   0.0000
     0.0000

          k = 0.0000 0.0000 0.3000 ( 89300 PWs)   bands (ev):

   -45.5988 -45.5949 -45.5899 -45.5899 -45.5899 -45.5899 -45.5876 -45.5876
   -45.5876 -45.5876 -45.5853 -45.5849 -45.5849 -45.5849 -45.5849 -45.5835
   -45.5835 -45.5835 -45.5835 -45.5825 -45.5825 -45.5825 -45.5825 -45.5805
   -45.5805 -45.5805 -45.5805 -45.5791 -45.5791 -45.5791 -45.5791 -45.5788
   -45.5788 -45.5788 -45.5788 -45.5786 -45.5774 -45.5774 -45.5774 -45.5774
   -45.5771 -45.5771 -45.5771 -45.5771 -45.5755 -45.5755 -45.5755 -45.5755
   -45.5744 -45.5744 -45.5744 -45.5744 -45.5706 -45.5678  -2.5618  -2.1380
    -1.4998  -1.4998  -1.4998  -1.4998  -1.0870  -1.0870  -1.0870  -1.0870
    -0.8481  -0.4680  -0.4680  -0.4680  -0.4680  -0.0341  -0.0341  -0.0341
    -0.0341   0.1198   0.1198   0.1198   0.1198   0.4656   1.1992   1.1992
     1.1992   1.1992   1.2203   1.2203   1.2203   1.2203   1.7660   1.7660
     1.7660   1.7660   1.9751   1.9751   1.9751   1.9770   1.9803   1.9803
     1.9803

     occupation numbers 
     1.0000   1.0000   1.0000   1.0000   1.0000   1.0000   1.0000   1.0000
     1.0000   1.0000   1.0000   1.0000   1.0000   1.0000   1.0000   1.0000
     1.0000   1.0000   1.0000   1.0000   1.0000   1.0000   1.0000   1.0000
     1.0000   1.0000   1.0000   1.0000   1.0000   1.0000   1.0000   1.0000
     1.0000   1.0000   1.0000   1.0000   1.0000   1.0000   1.0000   1.0000
     1.0000   1.0000   1.0000   1.0000   1.0000   1.0000   1.0000   1.0000
     1.0000   1.0000   1.0000   1.0000   1.0000   1.0000   1.0000   1.0000
     1.0000   1.0000   1.0000   1.0000   1.0000   1.0000   1.0000   1.0000
     1.0000   1.0000   1.0000   1.0000   1.0000   1.0000   1.0000   1.0000
     1.0000   1.0000   1.0000   1.0000   1.0000   1.0002   0.0004   0.0004
     0.0004   0.0004   0.0002   0.0002   0.0002   0.0002   0.0000   0.0000
     0.0000   0.0000   0.0000   0.0000   0.0000   0.0000   0.0000   0.0000
     0.0000

          k = 0.0000 0.0000 0.4000 ( 89180 PWs)   bands (ev):

   -45.5981 -45.5961 -45.5895 -45.5895 -45.5895 -45.5895 -45.5883 -45.5883
   -45.5883 -45.5883 -45.5846 -45.5846 -45.5846 -45.5846 -45.5839 -45.5839
   -45.5839 -45.5839 -45.5836 -45.5816 -45.5816 -45.5816 -45.5816 -45.5802
   -45.5801 -45.5801 -45.5801 -45.5801 -45.5799 -45.5799 -45.5799 -45.5799
   -45.5792 -45.5792 -45.5792 -45.5792 -45.5773 -45.5773 -45.5773 -45.5773
   -45.5772 -45.5772 -45.5772 -45.5772 -45.5752 -45.5752 -45.5752 -45.5752
   -45.5746 -45.5746 -45.5746 -45.5746 -45.5697 -45.5683  -2.4879  -2.2761
    -1.4273  -1.4273  -1.4273  -1.4273  -1.2208  -1.2208  -1.2208  -1.2208
    -0.5543  -0.3916  -0.3916  -0.3916  -0.3916  -0.1744  -0.1744  -0.1744
    -0.1744   0.1023   0.3794   0.3794   0.3794   0.3794   0.9257   0.9257
     0.9257   0.9257   1.4898   1.4898   1.4898   1.4898   1.8160   1.8160
     1.8160   1.8160   1.9300   1.9300   1.9300   1.9301   2.0655   2.0666
     2.0680

     occupation numbers 
     1.0000   1.0000   1.0000   1.0000   1.0000   1.0000   1.0000   1.0000
     1.0000   1.0000   1.0000   1.0000   1.0000   1.0000   1.0000   1.0000
     1.0000   1.0000   1.0000   1.0000   1.0000   1.0000   1.0000   1.0000
     1.0000   1.0000   1.0000   1.0000   1.0000   1.0000   1.0000   1.0000
     1.0000   1.0000   1.0000   1.0000   1.0000   1.0000   1.0000   1.0000
     1.0000   1.0000   1.0000   1.0000   1.0000   1.0000   1.0000   1.0000
     1.0000   1.0000   1.0000   1.0000   1.0000   1.0000   1.0000   1.0000
     1.0000   1.0000   1.0000   1.0000   1.0000   1.0000   1.0000   1.0000
     1.0000   1.0000   1.0000   1.0000   1.0000   1.0000   1.0000   1.0000
     1.0000   1.0000   1.0000   1.0000   1.0000   1.0000   0.4317   0.4317
     0.4317   0.4317   0.0000   0.0000   0.0000   0.0000   0.0000   0.0000
     0.0000   0.0000   0.0000   0.0000   0.0000   0.0000   0.0000   0.0000
     0.0000

          k = 0.0000 0.0000-0.5000 ( 89360 PWs)   bands (ev):

   -45.5972 -45.5972 -45.5890 -45.5890 -45.5890 -45.5890 -45.5890 -45.5890
   -45.5890 -45.5890 -45.5843 -45.5843 -45.5843 -45.5843 -45.5843 -45.5843
   -45.5843 -45.5843 -45.5819 -45.5819 -45.5807 -45.5807 -45.5807 -45.5807
   -45.5807 -45.5807 -45.5807 -45.5807 -45.5796 -45.5796 -45.5796 -45.5796
   -45.5796 -45.5796 -45.5796 -45.5796 -45.5772 -45.5772 -45.5772 -45.5772
   -45.5772 -45.5772 -45.5772 -45.5772 -45.5748 -45.5748 -45.5748 -45.5748
   -45.5748 -45.5748 -45.5748 -45.5748 -45.5689 -45.5689  -2.3927  -2.3927
    -1.3343  -1.3343  -1.3343  -1.3343  -1.3343  -1.3343  -1.3343  -1.3343
    -0.2937  -0.2937  -0.2937  -0.2937  -0.2937  -0.2937  -0.2937  -0.2937
    -0.2376  -0.2376   0.6497   0.6497   0.6497   0.6497   0.6497   0.6497
     0.6497   0.6497   1.7724   1.7724   1.7724   1.7724   1.7724   1.7724
     1.7724   1.7724   1.8731   1.8731   1.8731   1.8731   1.8731   1.8732
     1.8732

     occupation numbers 
     1.0000   1.0000   1.0000   1.0000   1.0000   1.0000   1.0000   1.0000
     1.0000   1.0000   1.0000   1.0000   1.0000   1.0000   1.0000   1.0000
     1.0000   1.0000   1.0000   1.0000   1.0000   1.0000   1.0000   1.0000
     1.0000   1.0000   1.0000   1.0000   1.0000   1.0000   1.0000   1.0000
     1.0000   1.0000   1.0000   1.0000   1.0000   1.0000   1.0000   1.0000
     1.0000   1.0000   1.0000   1.0000   1.0000   1.0000   1.0000   1.0000
     1.0000   1.0000   1.0000   1.0000   1.0000   1.0000   1.0000   1.0000
     1.0000   1.0000   1.0000   1.0000   1.0000   1.0000   1.0000   1.0000
     1.0000   1.0000   1.0000   1.0000   1.0000   1.0000   1.0000   1.0000
     1.0000   1.0000   1.0350   1.0350   1.0350   1.0350   1.0350   1.0350
     1.0350   1.0350   0.0000   0.0000   0.0000   0.0000   0.0000   0.0000
     0.0000   0.0000   0.0000   0.0000   0.0000   0.0000   0.0000   0.0000
     0.0000

          k = 0.0000 0.1000 0.1000 ( 89169 PWs)   bands (ev):

   -45.5995 -45.5919 -45.5919 -45.5903 -45.5903 -45.5887 -45.5887 -45.5871
   -45.5860 -45.5860 -45.5860 -45.5860 -45.5850 -45.5850 -45.5843 -45.5843
   -45.5843 -45.5843 -45.5836 -45.5831 -45.5831 -45.5820 -45.5820 -45.5820
   -45.5820 -45.5811 -45.5811 -45.5784 -45.5784 -45.5782 -45.5781 -45.5781
   -45.5781 -45.5781 -45.5777 -45.5777 -45.5777 -45.5777 -45.5775 -45.5775
   -45.5772 -45.5772 -45.5765 -45.5765 -45.5765 -45.5765 -45.5758 -45.5755
   -45.5755 -45.5742 -45.5742 -45.5729 -45.5729 -45.5673  -2.6356  -1.7863
    -1.7863  -1.5723  -1.5723  -1.3569  -1.3569  -0.9555  -0.7486  -0.7486
    -0.7486  -0.7486  -0.5437  -0.5437  -0.3438  -0.3438  -0.3438  -0.3438
    -0.1491   0.1081   0.1081   0.5270   0.5270   0.5270   0.5270   0.9482
     0.9482   1.2710   1.2710   1.6059   1.6970   1.6970   1.6970   1.6970
     1.6983   1.6983   1.7121   1.7121   1.9703   1.9703   1.9703   1.9703
     2.1582

     occupation numbers 
     1.0000   1.0000   1.0000   1.0000   1.0000   1.0000   1.0000   1.0000
     1.0000   1.0000   1.0000   1.0000   1.0000   1.0000   1.0000   1.0000
     1.0000   1.0000   1.0000   1.0000   1.0000   1.0000   1.0000   1.0000
     1.0000   1.0000   1.0000   1.0000   1.0000   1.0000   1.0000   1.0000
     1.0000   1.0000   1.0000   1.0000   1.0000   1.0000   1.0000   1.0000
     1.0000   1.0000   1.0000   1.0000   1.0000   1.0000   1.0000   1.0000
     1.0000   1.0000   1.0000   1.0000   1.0000   1.0000   1.0000   1.0000
     1.0000   1.0000   1.0000   1.0000   1.0000   1.0000   1.0000   1.0000
     1.0000   1.0000   1.0000   1.0000   1.0000   1.0000   1.0000   1.0000
     1.0000   1.0000   1.0000   1.0017   1.0017   1.0017   1.0017   0.3221
     0.3221   0.0000   0.0000   0.0000   0.0000   0.0000   0.0000   0.0000
     0.0000   0.0000   0.0000   0.0000   0.0000   0.0000   0.0000   0.0000
     0.0000

          k = 0.0000 0.1000 0.2000 ( 89201 PWs)   bands (ev):

   -45.5992 -45.5934 -45.5917 -45.5901 -45.5901 -45.5886 -45.5880 -45.5870
   -45.5868 -45.5868 -45.5859 -45.5859 -45.5857 -45.5842 -45.5842 -45.5840
   -45.5837 -45.5837 -45.5834 -45.5834 -45.5828 -45.5824 -45.5824 -45.5814
   -45.5814 -45.5807 -45.5807 -45.5787 -45.5786 -45.5786 -45.5784 -45.5784
   -45.5784 -45.5784 -45.5781 -45.5780 -45.5780 -45.5777 -45.5777 -45.5772
   -45.5772 -45.5770 -45.5769 -45.5765 -45.5765 -45.5760 -45.5760 -45.5756
   -45.5752 -45.5743 -45.5743 -45.5730 -45.5717 -45.5675  -2.6040  -1.9678
    -1.7550  -1.5412  -1.5412  -1.3260  -1.1314  -1.1087  -0.9223  -0.9223
    -0.7161  -0.7161  -0.7143  -0.3106  -0.3106  -0.3087  -0.1144  -0.1144
    -0.0720  -0.0720   0.0722   0.3448   0.3448   0.7643   0.7643   0.8613
     1.1850   1.1850   1.2965   1.4074   1.4641   1.4710   1.4710   1.6663
     1.7362   1.7362   1.7382   1.7382   2.0039   2.0039   2.0113   2.0113
     2.1816

     occupation numbers 
     1.0000   1.0000   1.0000   1.0000   1.0000   1.0000   1.0000   1.0000
     1.0000   1.0000   1.0000   1.0000   1.0000   1.0000   1.0000   1.0000
     1.0000   1.0000   1.0000   1.0000   1.0000   1.0000   1.0000   1.0000
     1.0000   1.0000   1.0000   1.0000   1.0000   1.0000   1.0000   1.0000
     1.0000   1.0000   1.0000   1.0000   1.0000   1.0000   1.0000   1.0000
     1.0000   1.0000   1.0000   1.0000   1.0000   1.0000   1.0000   1.0000
     1.0000   1.0000   1.0000   1.0000   1.0000   1.0000   1.0000   1.0000
     1.0000   1.0000   1.0000   1.0000   1.0000   1.0000   1.0000   1.0000
     1.0000   1.0000   1.0000   1.0000   1.0000   1.0000   1.0000   1.0000
     1.0000   1.0000   1.0000   1.0000   1.0000   1.0738   1.0738   0.7797
     0.0007   0.0007   0.0000   0.0000   0.0000   0.0000   0.0000   0.0000
     0.0000   0.0000   0.0000   0.0000   0.0000   0.0000   0.0000   0.0000
     0.0000

          k = 0.0000 0.1000 0.3000 ( 89238 PWs)   bands (ev):

   -45.5987 -45.5948 -45.5914 -45.5898 -45.5898 -45.5889 -45.5883 -45.5876
   -45.5876 -45.5864 -45.5857 -45.5857 -45.5853 -45.5842 -45.5842 -45.5840
   -45.5840 -45.5830 -45.5828 -45.5828 -45.5825 -45.5825 -45.5821 -45.5808
   -45.5808 -45.5803 -45.5803 -45.5793 -45.5791 -45.5791 -45.5790 -45.5789
   -45.5789 -45.5788 -45.5788 -45.5786 -45.5779 -45.5779 -45.5777 -45.5777
   -45.5770 -45.5770 -45.5766 -45.5766 -45.5765 -45.5757 -45.5755 -45.5755
   -45.5746 -45.5744 -45.5744 -45.5732 -45.5707 -45.5678  -2.5513  -2.1276
    -1.7029  -1.4894  -1.4894  -1.2870  -1.2746  -1.0763  -1.0763  -0.8659
    -0.8379  -0.6620  -0.6620  -0.2553  -0.2553  -0.2318  -0.2318  -0.0554
     0.1312   0.1312   0.1827   0.1827   0.3065   0.4749   1.0188   1.0188
     1.1030   1.2120   1.2120   1.2701   1.3380   1.4374   1.4374   1.6061
     1.7748   1.7748   1.8068   1.8068   1.9869   1.9869   2.0795   2.0795
     2.1717

     occupation numbers 
     1.0000   1.0000   1.0000   1.0000   1.0000   1.0000   1.0000   1.0000
     1.0000   1.0000   1.0000   1.0000   1.0000   1.0000   1.0000   1.0000
     1.0000   1.0000   1.0000   1.0000   1.0000   1.0000   1.0000   1.0000
     1.0000   1.0000   1.0000   1.0000   1.0000   1.0000   1.0000   1.0000
     1.0000   1.0000   1.0000   1.0000   1.0000   1.0000   1.0000   1.0000
     1.0000   1.0000   1.0000   1.0000   1.0000   1.0000   1.0000   1.0000
     1.0000   1.0000   1.0000   1.0000   1.0000   1.0000   1.0000   1.0000
     1.0000   1.0000   1.0000   1.0000   1.0000   1.0000   1.0000   1.0000
     1.0000   1.0000   1.0000   1.0000   1.0000   1.0000   1.0000   1.0000
     1.0000   1.0000   1.0000   1.0000   1.0000   1.0003   0.0934   0.0934
     0.0111   0.0002   0.0002   0.0000   0.0000   0.0000   0.0000   0.0000
     0.0000   0.0000   0.0000   0.0000   0.0000   0.0000   0.0000   0.0000
     0.0000

          k = 0.0000 0.1000 0.4000 ( 89256 PWs)   bands (ev):

   -45.5980 -45.5960 -45.5909 -45.5896 -45.5894 -45.5894 -45.5883 -45.5883
   -45.5880 -45.5870 -45.5854 -45.5854 -45.5846 -45.5846 -45.5838 -45.5838
   -45.5836 -45.5832 -45.5832 -45.5819 -45.5816 -45.5816 -45.5813 -45.5803
   -45.5803 -45.5802 -45.5799 -45.5799 -45.5799 -45.5799 -45.5799 -45.5799
   -45.5793 -45.5793 -45.5792 -45.5792 -45.5778 -45.5778 -45.5777 -45.5777
   -45.5769 -45.5769 -45.5766 -45.5766 -45.5763 -45.5758 -45.5752 -45.5752
   -45.5746 -45.5746 -45.5741 -45.5734 -45.5698 -45.5683  -2.4774  -2.2656
    -1.6301  -1.4220  -1.4169  -1.4169  -1.2102  -1.2102  -1.2027  -0.9981
    -0.5863  -0.5863  -0.5444  -0.3710  -0.3710  -0.1781  -0.1781   0.0413
     0.0413   0.1119   0.2150   0.3910   0.3910   0.5505   0.7981   0.9380
     0.9380   1.0426   1.2893   1.2893   1.3937   1.5338   1.7031   1.7031
     1.8253   1.8253   1.8691   1.8691   1.9027   1.9027   1.9409   1.9409
     2.1749

     occupation numbers 
     1.0000   1.0000   1.0000   1.0000   1.0000   1.0000   1.0000   1.0000
     1.0000   1.0000   1.0000   1.0000   1.0000   1.0000   1.0000   1.0000
     1.0000   1.0000   1.0000   1.0000   1.0000   1.0000   1.0000   1.0000
     1.0000   1.0000   1.0000   1.0000   1.0000   1.0000   1.0000   1.0000
     1.0000   1.0000   1.0000   1.0000   1.0000   1.0000   1.0000   1.0000
     1.0000   1.0000   1.0000   1.0000   1.0000   1.0000   1.0000   1.0000
     1.0000   1.0000   1.0000   1.0000   1.0000   1.0000   1.0000   1.0000
     1.0000   1.0000   1.0000   1.0000   1.0000   1.0000   1.0000   1.0000
     1.0000   1.0000   1.0000   1.0000   1.0000   1.0000   1.0000   1.0000
     1.0000   1.0000   1.0000   1.0000   1.0000   1.0034   1.0213   0.3700
     0.3700   0.0551   0.0000   0.0000   0.0000   0.0000   0.0000   0.0000
     0.0000   0.0000   0.0000   0.0000   0.0000   0.0000   0.0000   0.0000
     0.0000

          k = 0.0000 0.1000-0.5000 ( 89232 PWs)   bands (ev):

   -45.5971 -45.5971 -45.5903 -45.5903 -45.5889 -45.5889 -45.5889 -45.5889
   -45.5875 -45.5875 -45.5850 -45.5850 -45.5850 -45.5850 -45.5835 -45.5835
   -45.5835 -45.5835 -45.5819 -45.5819 -45.5809 -45.5809 -45.5807 -45.5807
   -45.5807 -45.5807 -45.5806 -45.5806 -45.5798 -45.5798 -45.5798 -45.5798
   -45.5795 -45.5795 -45.5795 -45.5795 -45.5778 -45.5778 -45.5778 -45.5778
   -45.5767 -45.5767 -45.5767 -45.5767 -45.5760 -45.5760 -45.5749 -45.5749
   -45.5749 -45.5749 -45.5737 -45.5737 -45.5690 -45.5690  -2.3822  -2.3822
    -1.5364  -1.5364  -1.3238  -1.3238  -1.3238  -1.3238  -1.1104  -1.1104
    -0.4893  -0.4893  -0.4893  -0.4893  -0.2278  -0.2278  -0.0791  -0.0791
    -0.0791  -0.0791   0.5005   0.5005   0.6616   0.6616   0.6616   0.6616
     0.7986   0.7986   1.4605   1.4605   1.5736   1.5736   1.5736   1.5736
     1.8831   1.8831   1.8831   1.8832   1.9791   1.9791   1.9792   1.9794
     2.0255

     occupation numbers 
     1.0000   1.0000   1.0000   1.0000   1.0000   1.0000   1.0000   1.0000
     1.0000   1.0000   1.0000   1.0000   1.0000   1.0000   1.0000   1.0000
     1.0000   1.0000   1.0000   1.0000   1.0000   1.0000   1.0000   1.0000
     1.0000   1.0000   1.0000   1.0000   1.0000   1.0000   1.0000   1.0000
     1.0000   1.0000   1.0000   1.0000   1.0000   1.0000   1.0000   1.0000
     1.0000   1.0000   1.0000   1.0000   1.0000   1.0000   1.0000   1.0000
     1.0000   1.0000   1.0000   1.0000   1.0000   1.0000   1.0000   1.0000
     1.0000   1.0000   1.0000   1.0000   1.0000   1.0000   1.0000   1.0000
     1.0000   1.0000   1.0000   1.0000   1.0000   1.0000   1.0000   1.0000
     1.0000   1.0000   1.0007   1.0007   1.0425   1.0425   1.0425   1.0425
     1.0201   1.0201   0.0000   0.0000   0.0000   0.0000   0.0000   0.0000
     0.0000   0.0000   0.0000   0.0000   0.0000   0.0000   0.0000   0.0000
     0.0000

          k = 0.0000 0.2000 0.2000 ( 89255 PWs)   bands (ev):

   -45.5989 -45.5932 -45.5932 -45.5899 -45.5899 -45.5890 -45.5869 -45.5869
   -45.5867 -45.5867 -45.5867 -45.5867 -45.5846 -45.5846 -45.5842 -45.5842
   -45.5833 -45.5833 -45.5833 -45.5833 -45.5822 -45.5818 -45.5818 -45.5818
   -45.5818 -45.5803 -45.5803 -45.5791 -45.5788 -45.5788 -45.5784 -45.5784
   -45.5784 -45.5784 -45.5784 -45.5784 -45.5784 -45.5784 -45.5778 -45.5778
   -45.5770 -45.5770 -45.5769 -45.5769 -45.5760 -45.5760 -45.5760 -45.5760
   -45.5744 -45.5743 -45.5743 -45.5718 -45.5718 -45.5677  -2.5724  -1.9365
    -1.9365  -1.5100  -1.5100  -1.3091  -1.0781  -1.0781  -0.8901  -0.8901
    -0.8901  -0.8901  -0.4752  -0.4752  -0.2510  -0.2510  -0.0808  -0.0808
    -0.0808  -0.0808   0.2823   0.5813   0.5813   0.5813   0.5813   0.8881
     0.8881   1.3301   1.3301   1.4122   1.4196   1.4196   1.5107   1.5107
     1.5107   1.5107   1.7609   1.7609   2.0425   2.0425   2.0425   2.0425
     2.2774

     occupation numbers 
     1.0000   1.0000   1.0000   1.0000   1.0000   1.0000   1.0000   1.0000
     1.0000   1.0000   1.0000   1.0000   1.0000   1.0000   1.0000   1.0000
     1.0000   1.0000   1.0000   1.0000   1.0000   1.0000   1.0000   1.0000
     1.0000   1.0000   1.0000   1.0000   1.0000   1.0000   1.0000   1.0000
     1.0000   1.0000   1.0000   1.0000   1.0000   1.0000   1.0000   1.0000
     1.0000   1.0000   1.0000   1.0000   1.0000   1.0000   1.0000   1.0000
     1.0000   1.0000   1.0000   1.0000   1.0000   1.0000   1.0000   1.0000
     1.0000   1.0000   1.0000   1.0000   1.0000   1.0000   1.0000   1.0000
     1.0000   1.0000   1.0000   1.0000   1.0000   1.0000   1.0000   1.0000
     1.0000   1.0000   1.0000   1.0080   1.0080   1.0080   1.0080   0.6361
     0.6361   0.0000   0.0000   0.0000   0.0000   0.0000   0.0000   0.0000
     0.0000   0.0000   0.0000   0.0000   0.0000   0.0000   0.0000   0.0000
     0.0000

          k = 0.0000 0.2000 0.3000 ( 89203 PWs)   bands (ev):

   -45.5984 -45.5945 -45.5928 -45.5900 -45.5896 -45.5896 -45.5875 -45.5875
   -45.5867 -45.5865 -45.5865 -45.5852 -45.5851 -45.5848 -45.5848 -45.5834
   -45.5831 -45.5831 -45.5824 -45.5824 -45.5821 -45.5821 -45.5816 -45.5811
   -45.5811 -45.5800 -45.5800 -45.5795 -45.5791 -45.5791 -45.5789 -45.5789
   -45.5789 -45.5789 -45.5788 -45.5786 -45.5784 -45.5784 -45.5784 -45.5784
   -45.5776 -45.5771 -45.5767 -45.5767 -45.5761 -45.5761 -45.5756 -45.5756
   -45.5745 -45.5745 -45.5738 -45.5721 -45.5708 -45.5680  -2.5197  -2.0961
    -1.8842  -1.4659  -1.4581  -1.4581  -1.0444  -1.0444  -1.0271  -0.8365
    -0.8365  -0.8076  -0.6239  -0.4098  -0.4098  -0.2163  -0.0247  -0.0247
     0.1654   0.1654   0.4180   0.4180   0.5009   0.5028   0.8351   0.8351
     0.9321   0.9954   1.2409   1.2501   1.2501   1.2994   1.5767   1.5767
     1.6671   1.6671   1.8006   1.8006   1.9821   1.9822   2.0223   2.0223
     2.0930

     occupation numbers 
     1.0000   1.0000   1.0000   1.0000   1.0000   1.0000   1.0000   1.0000
     1.0000   1.0000   1.0000   1.0000   1.0000   1.0000   1.0000   1.0000
     1.0000   1.0000   1.0000   1.0000   1.0000   1.0000   1.0000   1.0000
     1.0000   1.0000   1.0000   1.0000   1.0000   1.0000   1.0000   1.0000
     1.0000   1.0000   1.0000   1.0000   1.0000   1.0000   1.0000   1.0000
     1.0000   1.0000   1.0000   1.0000   1.0000   1.0000   1.0000   1.0000
     1.0000   1.0000   1.0000   1.0000   1.0000   1.0000   1.0000   1.0000
     1.0000   1.0000   1.0000   1.0000   1.0000   1.0000   1.0000   1.0000
     1.0000   1.0000   1.0000   1.0000   1.0000   1.0000   1.0000   1.0000
     1.0000   1.0000   1.0000   1.0000   1.0007   1.0007   0.9008   0.9008
     0.3989   0.1487   0.0001   0.0000   0.0000   0.0000   0.0000   0.0000
     0.0000   0.0000   0.0000   0.0000   0.0000   0.0000   0.0000   0.0000
     0.0000

          k = 0.0000 0.2000 0.4000 ( 89234 PWs)   bands (ev):

   -45.5977 -45.5957 -45.5923 -45.5909 -45.5892 -45.5892 -45.5881 -45.5881
   -45.5864 -45.5862 -45.5862 -45.5856 -45.5853 -45.5853 -45.5835 -45.5829
   -45.5829 -45.5824 -45.5824 -45.5822 -45.5815 -45.5815 -45.5811 -45.5805
   -45.5805 -45.5802 -45.5800 -45.5799 -45.5799 -45.5799 -45.5797 -45.5797
   -45.5794 -45.5794 -45.5792 -45.5792 -45.5783 -45.5783 -45.5783 -45.5783
   -45.5774 -45.5772 -45.5765 -45.5765 -45.5762 -45.5762 -45.5752 -45.5752
   -45.5747 -45.5747 -45.5732 -45.5724 -45.5699 -45.5685  -2.4458  -2.2341
    -1.8110  -1.6018  -1.3855  -1.3855  -1.1785  -1.1785  -0.9559  -0.7615
    -0.7615  -0.7539  -0.5479  -0.5479  -0.5145   0.0535   0.0535   0.0616
     0.1406   0.2752   0.2752   0.4259   0.4259   0.6697   0.7223   0.9747
     0.9747   0.9920   1.1049   1.1049   1.1357   1.1504   1.6687   1.6687
     1.6826   1.6826   1.8527   1.8527   1.9239   1.9239   1.9280   1.9281
     1.9731

     occupation numbers 
     1.0000   1.0000   1.0000   1.0000   1.0000   1.0000   1.0000   1.0000
     1.0000   1.0000   1.0000   1.0000   1.0000   1.0000   1.0000   1.0000
     1.0000   1.0000   1.0000   1.0000   1.0000   1.0000   1.0000   1.0000
     1.0000   1.0000   1.0000   1.0000   1.0000   1.0000   1.0000   1.0000
     1.0000   1.0000   1.0000   1.0000   1.0000   1.0000   1.0000   1.0000
     1.0000   1.0000   1.0000   1.0000   1.0000   1.0000   1.0000   1.0000
     1.0000   1.0000   1.0000   1.0000   1.0000   1.0000   1.0000   1.0000
     1.0000   1.0000   1.0000   1.0000   1.0000   1.0000   1.0000   1.0000
     1.0000   1.0000   1.0000   1.0000   1.0000   1.0000   1.0000   1.0000
     1.0000   1.0000   1.0000   1.0000   1.0000   1.0479   1.0799   0.2141
     0.2141   0.1583   0.0105   0.0105   0.0040   0.0024   0.0000   0.0000
     0.0000   0.0000   0.0000   0.0000   0.0000   0.0000   0.0000   0.0000
     0.0000

          k = 0.0000 0.2000-0.5000 ( 89216 PWs)   bands (ev):

   -45.5968 -45.5968 -45.5916 -45.5916 -45.5887 -45.5887 -45.5887 -45.5887
[...]
     atom   44 type  1   force =     0.00000013   -0.00000001   -0.00000014
     atom   45 type  1   force =     0.00000009   -0.00000009   -0.00000009
     atom   46 type  1   force =     0.00000007   -0.00000001   -0.00000001
     atom   47 type  1   force =     0.00000009   -0.00000009    0.00000009
     atom   48 type  1   force =     0.00000013   -0.00000001    0.00000013
     atom   49 type  1   force =     0.00000012    0.00000012   -0.00000000
     atom   50 type  1   force =     0.00000010    0.00000010   -0.00000011
     atom   51 type  1   force =     0.00000009    0.00000009   -0.00000009
     atom   52 type  1   force =     0.00000013    0.00000013   -0.00000001
     atom   53 type  1   force =     0.00000009    0.00000009    0.00000009
     atom   54 type  1   force =     0.00000010    0.00000010    0.00000010
     The core correction contribution to forces
     atom    1 type  1   force =     0.00000000    0.00000000    0.00000000
     atom    2 type  1   force =     0.00000000    0.00000000    0.00000000
     atom    3 type  1   force =     0.00000000    0.00000000    0.00000000
     atom    4 type  1   force =     0.00000000    0.00000000    0.00000000
     atom    5 type  1   force =     0.00000000    0.00000000    0.00000000
     atom    6 type  1   force =     0.00000000    0.00000000    0.00000000
     atom    7 type  1   force =     0.00000000    0.00000000    0.00000000
     atom    8 type  1   force =     0.00000000    0.00000000    0.00000000
     atom    9 type  1   force =     0.00000000    0.00000000    0.00000000
     atom   10 type  1   force =     0.00000000    0.00000000    0.00000000
     atom   11 type  1   force =     0.00000000    0.00000000    0.00000000
     atom   12 type  1   force =     0.00000000    0.00000000    0.00000000
     atom   13 type  1   force =     0.00000000    0.00000000    0.00000000
     atom   14 type  1   force =     0.00000000    0.00000000    0.00000000
     atom   15 type  1   force =     0.00000000    0.00000000    0.00000000
     atom   16 type  1   force =     0.00000000    0.00000000    0.00000000
     atom   17 type  1   force =     0.00000000    0.00000000    0.00000000
     atom   18 type  1   force =     0.00000000    0.00000000    0.00000000
     atom   19 type  1   force =     0.00000000    0.00000000    0.00000000
     atom   20 type  1   force =     0.00000000    0.00000000    0.00000000
     atom   21 type  1   force =     0.00000000    0.00000000    0.00000000
     atom   22 type  1   force =     0.00000000    0.00000000    0.00000000
     atom   23 type  1   force =     0.00000000    0.00000000    0.00000000
     atom   24 type  1   force =     0.00000000    0.00000000    0.00000000
     atom   25 type  1   force =     0.00000000    0.00000000    0.00000000
     atom   26 type  1   force =     0.00000000    0.00000000    0.00000000
     atom   27 type  1   force =     0.00000000    0.00000000    0.00000000
     atom   28 type  1   force =     0.00000000    0.00000000    0.00000000
     atom   29 type  1   force =     0.00000000    0.00000000    0.00000000
     atom   30 type  1   force =     0.00000000    0.00000000    0.00000000
     atom   31 type  1   force =     0.00000000    0.00000000    0.00000000
     atom   32 type  1   force =     0.00000000    0.00000000    0.00000000
     atom   33 type  1   force =     0.00000000    0.00000000    0.00000000
     atom   34 type  1   force =     0.00000000    0.00000000    0.00000000
     atom   35 type  1   force =     0.00000000    0.00000000    0.00000000
     atom   36 type  1   force =     0.00000000    0.00000000    0.00000000
     atom   37 type  1   force =     0.00000000    0.00000000    0.00000000
     atom   38 type  1   force =     0.00000000    0.00000000    0.00000000
     atom   39 type  1   force =     0.00000000    0.00000000    0.00000000
     atom   40 type  1   force =     0.00000000    0.00000000    0.00000000
     atom   41 type  1   force =     0.00000000    0.00000000    0.00000000
     atom   42 type  1   force =     0.00000000    0.00000000    0.00000000
     atom   43 type  1   force =     0.00000000    0.00000000    0.00000000
     atom   44 type  1   force =     0.00000000    0.00000000    0.00000000
     atom   45 type  1   force =     0.00000000    0.00000000    0.00000000
     atom   46 type  1   force =     0.00000000    0.00000000    0.00000000
     atom   47 type  1   force =     0.00000000    0.00000000    0.00000000
     atom   48 type  1   force =     0.00000000    0.00000000    0.00000000
     atom   49 type  1   force =     0.00000000    0.00000000    0.00000000
     atom   50 type  1   force =     0.00000000    0.00000000    0.00000000
     atom   51 type  1   force =     0.00000000    0.00000000    0.00000000
     atom   52 type  1   force =     0.00000000    0.00000000    0.00000000
     atom   53 type  1   force =     0.00000000    0.00000000    0.00000000
     atom   54 type  1   force =     0.00000000    0.00000000    0.00000000
     The Hubbard contrib.    to forces
     atom    1 type  1   force =     0.00000000    0.00000000    0.00000000
     atom    2 type  1   force =     0.00000000    0.00000000    0.00000000
     atom    3 type  1   force =     0.00000000    0.00000000    0.00000000
     atom    4 type  1   force =     0.00000000    0.00000000    0.00000000
     atom    5 type  1   force =     0.00000000    0.00000000    0.00000000
     atom    6 type  1   force =     0.00000000    0.00000000    0.00000000
     atom    7 type  1   force =     0.00000000    0.00000000    0.00000000
     atom    8 type  1   force =     0.00000000    0.00000000    0.00000000
     atom    9 type  1   force =     0.00000000    0.00000000    0.00000000
     atom   10 type  1   force =     0.00000000    0.00000000    0.00000000
     atom   11 type  1   force =     0.00000000    0.00000000    0.00000000
     atom   12 type  1   force =     0.00000000    0.00000000    0.00000000
     atom   13 type  1   force =     0.00000000    0.00000000    0.00000000
     atom   14 type  1   force =     0.00000000    0.00000000    0.00000000
     atom   15 type  1   force =     0.00000000    0.00000000    0.00000000
     atom   16 type  1   force =     0.00000000    0.00000000    0.00000000
     atom   17 type  1   force =     0.00000000    0.00000000    0.00000000
     atom   18 type  1   force =     0.00000000    0.00000000    0.00000000
     atom   19 type  1   force =     0.00000000    0.00000000    0.00000000
     atom   20 type  1   force =     0.00000000    0.00000000    0.00000000
     atom   21 type  1   force =     0.00000000    0.00000000    0.00000000
     atom   22 type  1   force =     0.00000000    0.00000000    0.00000000
     atom   23 type  1   force =     0.00000000    0.00000000    0.00000000
     atom   24 type  1   force =     0.00000000    0.00000000    0.00000000
     atom   25 type  1   force =     0.00000000    0.00000000    0.00000000
     atom   26 type  1   force =     0.00000000    0.00000000    0.00000000
     atom   27 type  1   force =     0.00000000    0.00000000    0.00000000
     atom   28 type  1   force =     0.00000000    0.00000000    0.00000000
     atom   29 type  1   force =     0.00000000    0.00000000    0.00000000
     atom   30 type  1   force =     0.00000000    0.00000000    0.00000000
     atom   31 type  1   force =     0.00000000    0.00000000    0.00000000
     atom   32 type  1   force =     0.00000000    0.00000000    0.00000000
     atom   33 type  1   force =     0.00000000    0.00000000    0.00000000
     atom   34 type  1   force =     0.00000000    0.00000000    0.00000000
     atom   35 type  1   force =     0.00000000    0.00000000    0.00000000
     atom   36 type  1   force =     0.00000000    0.00000000    0.00000000
     atom   37 type  1   force =     0.00000000    0.00000000    0.00000000
     atom   38 type  1   force =     0.00000000    0.00000000    0.00000000
     atom   39 type  1   force =     0.00000000    0.00000000    0.00000000
     atom   40 type  1   force =     0.00000000    0.00000000    0.00000000
     atom   41 type  1   force =     0.00000000    0.00000000    0.00000000
     atom   42 type  1   force =     0.00000000    0.00000000    0.00000000
     atom   43 type  1   force =     0.00000000    0.00000000    0.00000000
     atom   44 type  1   force =     0.00000000    0.00000000    0.00000000
     atom   45 type  1   force =     0.00000000    0.00000000    0.00000000
     atom   46 type  1   force =     0.00000000    0.00000000    0.00000000
     atom   47 type  1   force =     0.00000000    0.00000000    0.00000000
     atom   48 type  1   force =     0.00000000    0.00000000    0.00000000
     atom   49 type  1   force =     0.00000000    0.00000000    0.00000000
     atom   50 type  1   force =     0.00000000    0.00000000    0.00000000
     atom   51 type  1   force =     0.00000000    0.00000000    0.00000000
     atom   52 type  1   force =     0.00000000    0.00000000    0.00000000
     atom   53 type  1   force =     0.00000000    0.00000000    0.00000000
     atom   54 type  1   force =     0.00000000    0.00000000    0.00000000
     The SCF correction term to forces
     atom    1 type  1   force =     0.00000000   -0.00000000   -0.00000000
     atom    2 type  1   force =    -0.00000000   -0.00000000   -0.00000000
     atom    3 type  1   force =     0.00000000    0.00000000   -0.00000001
     atom    4 type  1   force =    -0.00000000   -0.00000000    0.00000000
     atom    5 type  1   force =     0.00000000    0.00000000    0.00000001
     atom    6 type  1   force =    -0.00000000   -0.00000000    0.00000000
     atom    7 type  1   force =    -0.00000000   -0.00000001   -0.00000000
     atom    8 type  1   force =    -0.00000000    0.00000000   -0.00000000
     atom    9 type  1   force =     0.00000000   -0.00000000   -0.00000000
     atom   10 type  1   force =    -0.00000001    0.00000000    0.00000000
     atom   11 type  1   force =     0.00000000   -0.00000000    0.00000000
     atom   12 type  1   force =    -0.00000000    0.00000000    0.00000000
     atom   13 type  1   force =     0.00000000    0.00000001   -0.00000000
     atom   14 type  1   force =    -0.00000000    0.00000000   -0.00000000
     atom   15 type  1   force =     0.00000000    0.00000000   -0.00000000
     atom   16 type  1   force =    -0.00000000    0.00000000    0.00000000
     atom   17 type  1   force =     0.00000000    0.00000000    0.00000000
     atom   18 type  1   force =    -0.00000000    0.00000000    0.00000000
     atom   19 type  1   force =    -0.00000001    0.00000000   -0.00000000
     atom   20 type  1   force =    -0.00000000   -0.00000000   -0.00000000
     atom   21 type  1   force =    -0.00000000    0.00000000   -0.00000000
     atom   22 type  1   force =     0.00000000   -0.00000001    0.00000000
     atom   23 type  1   force =    -0.00000000    0.00000000    0.00000000
     atom   24 type  1   force =     0.00000000   -0.00000000    0.00000000
     atom   25 type  1   force =    -0.00000000   -0.00000000   -0.00000000
     atom   26 type  1   force =     0.00000000    0.00000000   -0.00000001
     atom   27 type  1   force =    -0.00000001   -0.00000001   -0.00000001
     atom   28 type  1   force =     0.00000000    0.00000000    0.00000000
     atom   29 type  1   force =    -0.00000001   -0.00000001    0.00000001
     atom   30 type  1   force =    -0.00000000   -0.00000000    0.00000001
     atom   31 type  1   force =    -0.00000000    0.00000000   -0.00000000
     atom   32 type  1   force =    -0.00000000    0.00000000   -0.00000000
     atom   33 type  1   force =    -0.00000001    0.00000001   -0.00000001
     atom   34 type  1   force =     0.00000000    0.00000001    0.00000000
     atom   35 type  1   force =    -0.00000001    0.00000001    0.00000001
     atom   36 type  1   force =    -0.00000000    0.00000000    0.00000000
     atom   37 type  1   force =     0.00000001    0.00000000   -0.00000000
     atom   38 type  1   force =     0.00000000   -0.00000000   -0.00000000
     atom   39 type  1   force =     0.00000000    0.00000000   -0.00000000
     atom   40 type  1   force =     0.00000000   -0.00000000    0.00000000
     atom   41 type  1   force =     0.00000000   -0.00000000    0.00000000
     atom   42 type  1   force =     0.00000000   -0.00000000    0.00000000
     atom   43 type  1   force =     0.00000000   -0.00000000   -0.00000000
     atom   44 type  1   force =     0.00000000   -0.00000000   -0.00000000
     atom   45 type  1   force =     0.00000001   -0.00000001   -0.00000001
     atom   46 type  1   force =     0.00000001    0.00000000    0.00000000
     atom   47 type  1   force =     0.00000001   -0.00000001    0.00000001
     atom   48 type  1   force =     0.00000000    0.00000000    0.00000000
     atom   49 type  1   force =     0.00000000    0.00000000   -0.00000000
     atom   50 type  1   force =     0.00000000    0.00000000   -0.00000000
     atom   51 type  1   force =     0.00000001    0.00000001   -0.00000001
     atom   52 type  1   force =     0.00000000    0.00000000    0.00000000
     atom   53 type  1   force =     0.00000001    0.00000001    0.00000001
     atom   54 type  1   force =     0.00000000    0.00000000    0.00000000

     Total force =     0.000000     Total SCF correction =     0.000000
     SCF correction compared to forces is large: reduce conv_thr to get better values


     Computing stress (Cartesian axis) and pressure

          total   stress  (Ry/bohr**3)                   (kbar)     P=       -0.05
  -0.00000035   0.00000000   0.00000000           -0.05        0.00        0.00
   0.00000000  -0.00000035   0.00000000            0.00       -0.05        0.00
   0.00000000   0.00000000  -0.00000035            0.00        0.00       -0.05

     kinetic stress (kbar)   2645.90      0.00     -0.00
                                0.00   2645.90      0.00
                               -0.00      0.00   2645.90

     local   stress (kbar)  -1127.35     -0.00      0.00
                               -0.00  -1127.35     -0.00
                                0.00     -0.00  -1127.35

     nonloc. stress (kbar)     70.44      0.00      0.00
                                0.00     70.44      0.00
                                0.00      0.00     70.44

     hartree stress (kbar)   1464.36     -0.00     -0.00
                               -0.00   1464.36     -0.00
                               -0.00     -0.00   1464.36

     exc-cor stress (kbar)  -1243.50      0.00     -0.00
                                0.00  -1243.50      0.00
                               -0.00      0.00  -1243.50

     corecor stress (kbar)      0.00      0.00      0.00
                                0.00      0.00      0.00
                                0.00      0.00      0.00

     ewald   stress (kbar)  -1809.89      0.00     -0.00
                                0.00  -1809.89      0.00
                               -0.00      0.00  -1809.89

     hubbard stress (kbar)      0.00      0.00      0.00
                                0.00      0.00      0.00
                                0.00      0.00      0.00

     DFT-D   stress (kbar)      0.00      0.00      0.00
                                0.00      0.00      0.00
                                0.00      0.00      0.00

     XDM     stress (kbar)      0.00      0.00      0.00
                                0.00      0.00      0.00
                                0.00      0.00      0.00

     dft-nl  stress (kbar)      0.00      0.00      0.00
                                0.00      0.00      0.00
                                0.00      0.00      0.00

     TS-vdW  stress (kbar)      0.00      0.00      0.00
                                0.00      0.00      0.00
                                0.00      0.00      0.00

     MDB     stress (kbar)      0.00      0.00      0.00
                                0.00      0.00      0.00
                                0.00      0.00      0.00

     3D-RISM stress (kbar)      0.00      0.00      0.00
                                0.00      0.00      0.00
                                0.00      0.00      0.00


     Writing all to output data dir ./pw.dir.save/ :
     XML data file
     init_run     :      6.17s CPU      6.54s WALL (       2 calls)
     electrons    :    396.39s CPU    402.50s WALL (       2 calls)
     forces       :      1.96s CPU      2.02s WALL (       2 calls)
     stress       :      6.47s CPU      6.52s WALL (       2 calls)

     Called by init_run:
     wfcinit      :      3.11s CPU      3.19s WALL (       2 calls)
     wfcinit:wfcr :      2.92s CPU      2.99s WALL (      14 calls)
     potinit      :      0.35s CPU      0.41s WALL (       2 calls)
     hinit0       :      0.10s CPU      0.14s WALL (       2 calls)

     Called by electrons:
     c_bands      :    354.95s CPU    358.67s WALL (      46 calls)
     sum_band     :     32.12s CPU     33.09s WALL (      46 calls)
     v_of_rho     :      4.03s CPU      4.43s WALL (      47 calls)
     v_h          :      0.31s CPU      0.36s WALL (      47 calls)
     v_xc         :      3.73s CPU      4.07s WALL (      47 calls)
     newd         :      1.73s CPU      2.06s WALL (      47 calls)
     PAW_pot      :      0.74s CPU      0.76s WALL (      47 calls)
     mix_rho      :      0.61s CPU      0.68s WALL (      46 calls)

     Called by c_bands:
     init_us_2    :      7.76s CPU      7.85s WALL (     686 calls)
     cegterg      :    312.98s CPU    316.58s WALL (     335 calls)

     Called by sum_band:
     sum_band:wei :      0.08s CPU      0.09s WALL (      46 calls)
     sum_band:loo :     26.67s CPU     27.13s WALL (      46 calls)
     sum_band:buf :      0.70s CPU      0.71s WALL (     322 calls)
     sum_band:ini :      3.38s CPU      3.39s WALL (     322 calls)
     sum_band:cal :      7.59s CPU      7.65s WALL (     322 calls)
     sum_band:bec :      0.21s CPU      0.22s WALL (     322 calls)
     addusdens    :      1.13s CPU      1.34s WALL (      46 calls)
                                        0.00s GPU  (      46 calls)
     addusd:skk   :      0.12s CPU      0.23s WALL (      46 calls)
                                        0.00s GPU  (      46 calls)

     Called by *egterg:
     cdiaghg      :     22.62s CPU     22.69s WALL (    2002 calls)
     cegterg:over :     25.01s CPU     25.05s WALL (    1687 calls)
     cegterg:upda :     11.82s CPU     11.86s WALL (    1687 calls)
     cegterg:last :     29.15s CPU     29.21s WALL (    1151 calls)
     h_psi        :    182.80s CPU    186.13s WALL (    2036 calls)
     s_psi        :     29.41s CPU     29.47s WALL (    2036 calls)
     g_psi        :      0.32s CPU      0.32s WALL (    1687 calls)

     Called by h_psi:
     h_psi:calbec :     33.20s CPU     33.48s WALL (    2036 calls)
     vloc_psi     :    115.10s CPU    118.04s WALL (    2036 calls)
                                        0.00s GPU  (    2036 calls)
     add_vuspsi   :     32.98s CPU     33.06s WALL (    2036 calls)

     General routines
     calbec       :     45.84s CPU     46.19s WALL (    2596 calls)
     fft          :      1.99s CPU      2.58s WALL (     624 calls)
     ffts         :      0.97s CPU      0.98s WALL (      93 calls)
     fftw         :    119.21s CPU    122.27s WALL (  279202 calls)
     interpolate  :      0.23s CPU      0.28s WALL (      47 calls)
 
     Parallel routines

     PAW routines
     PAW_pot      :      0.74s CPU      0.76s WALL (      47 calls)
     PAW_symme    :      0.03s CPU      0.03s WALL (      93 calls)
 
     PWSCF        :   6m52.01s CPU   6m59.98s WALL

 
   This run was terminated on:  20:13:50  29Dec2024            

=------------------------------------------------------------------------------=
   JOB DONE.
=------------------------------------------------------------------------------=
