
     Program PWSCF v.7.4 starts on  6Jan2025 at  9:42:36 

     This program is part of the open-source Quantum ESPRESSO suite
     for quantum simulation of materials; please cite
         "P. Giannozzi et al., J. Phys.:Condens. Matter 21 395502 (2009);
         "P. Giannozzi et al., J. Phys.:Condens. Matter 29 465901 (2017);
         "P. Giannozzi et al., J. Chem. Phys. 152 154105 (2020);
          URL http://www.quantum-espresso.org", 
     in publications or presentations arising from this work. More details at
     http://www.quantum-espresso.org/quote

     Parallel version (MPI & OpenMP), running on     512 processor cores
     Number of MPI processes:               512
     Threads/MPI process:                     1

     MPI processes distributed on     4 nodes
     233733 MiB available memory on the printing compute node when the environment starts

     Reading input from espresso.pwi
Warning: card &CELL ignored
Warning: card    PRESS_CONV_THR   = 0.1 ignored
Warning: card    CELL_DOFREE      = 'ALL' ignored
Warning: card / ignored
Warning: card &FCP ignored
Warning: card / ignored
Warning: card &RISM ignored
Warning: card / ignored

     Current dimensions of program PWSCF are:
     Max number of different atomic species (ntypx) = 10
     Max number of k-points (npk) =  40000
     Max angular momentum in pseudopotentials (lmaxx) =  4

     IMPORTANT: XC functional enforced from input :
     Exchange-correlation= PBE
                           (   1   4   3   4   0   0   0)
     Any further DFT definition will be discarded
     Please, verify this is what you really want


     Reading input from environ.in:
     * using ionic solvent mode
     * setting boundary derivatives method to SSCS default
     * setting electrolyte-boundary derivatives method to SSCS default

Environ Warning (1001): card EOF ignored

     

     K-points division:     npool     =       2
     R & G space division:  proc/nbgrp/npool/nimage =     256
     Subspace diagonalization in iterative solution of the eigenvalue problem:
     one sub-group per band group will be used
     ELPA distributed-memory algorithm (size of sub-group:  2*  2 procs)


     Parallelization info
     --------------------
     sticks:   dense  smooth     PW     G-vecs:    dense   smooth      PW
     Min          91      36      9                56517    14280    1907
     Max          92      37     10                56562    14325    1964
     Sum       23389    9361   2459             14473305  3661695  495499

     Using Slab Decomposition



     bravais-lattice index     =           12
     lattice parameter (alat)  =      18.3607  a.u.
     unit-cell volume          =   37876.5244 (a.u.)^3
     number of atoms/cell      =           76
     number of atomic types    =            1
     number of electrons       =       228.00
     number of Kohn-Sham states=          171
     kinetic-energy cutoff     =      80.0000  Ry
     charge density cutoff     =     800.0000  Ry
     scf convergence threshold =      1.0E-14
     mixing beta               =       0.2000
     number of iterations used =            8  local-TF  mixing
     Exchange-correlation= PBE
                           (   1   4   3   4   0   0   0)

     ================================================================================

                                  Environ Setup Summary

     ================================================================================

     Please cite

          O. Andreussi, I. Dabo and N. Marzari, J. Chem. Phys. 136, 064102 (2012)
          F. Nattino, M. Truscott, N. Marzari, and O. Andreussi, J. Chem. Phys. 150, 041722 (2019)

     in publications or presentations arising from this work.

     ================================================================================

     Parameters
     ==========

     compensation onset threshold      =               0.1000E+00
     static permittivity               =                    89.90
     surface tension in input (dyn/cm) =                    37.30
     surface tension in internal units =               0.4792E-04

     Solvent Boundary
     ================

     solvent mode                      =                    ionic
     derivatives method                =                   lowmem
     electrolyte derivatives method    =                   lowmem
     numerical core for derivatives    =                      fft
     switching function adopted        =                     SCCS
     density limit for vacuum region   =               0.5000E-02
     density limit for bulk solvent    =               0.1000E-03
     soft-sphere radius mode           =                    bondi
     soft-sphere softness              =                     0.50
     alpha                             =                     1.32

     Electrostatic Setup
     ===================

     electrostatic problem to solve    =                    modpb
     numerical solver adopted          =                   newton
     type of auxiliary density adopted =                     none
     numerical core for poisson        =                      fft
     adopting a nested solver scheme
     inner solver                      =                       cg
     inner core                        =                      fft
     type of pbc corrections           =                parabolic
     numerical core for corrections    =                      1da

     ================================================================================


     >>>>> Grand-Canonical SCF is activated <<<<<
     Initial Total Charge  =     0.000000 e
     Target Fermi Energy   =    -2.404000 eV
     Thr. of Fermi Energy  =     0.001000 eV
     Wave-shift of Kerker  =     0.400000 bohr^-1
     Wave-shift of Hartree =     1.500000 bohr^-1
     Mixing Rate of Fermi  =     0.050000

     celldm(1)=  18.360747  celldm(2)=   1.118034  celldm(3)=   5.615419
     celldm(4)=   0.223607  celldm(5)=   0.000000  celldm(6)=   0.000000

     crystal axes: (cart. coord. in units of alat)
               a(1) = (   1.000000   0.000000   0.000000 )  
               a(2) = (   0.250000   1.089725   0.000000 )  
               a(3) = (   0.000000   0.000000   5.615419 )  

     reciprocal axes: (cart. coord. in units 2 pi/alat)
               b(1) = (  1.000000 -0.229416  0.000000 )  
               b(2) = (  0.000000  0.917663  0.000000 )  
               b(3) = (  0.000000  0.000000  0.178081 )  


     PseudoPot. # 1 for Li read from file:
     /work/e89/e89/ba3g18/Repos/Pseudopotentials/Pslibrary/Li.pbe-sl-kjpaw_psl.1.0.0.UPF
     MD5 check sum: 3f4d2cafebb47c6c3aa8ed472e6f074d
     Pseudo is Projector augmented-wave, Zval =  3.0
     Generated using 'atomic' code by A. Dal Corso  v.7.4
     Shape of augmentation charge: PSQ
     Using radial grid of 1017 points,  4 beta functions with: 
                l(1) =   0
                l(2) =   0
                l(3) =   1
                l(4) =   1
     Q(r) pseudized with 0 coefficients 


     atomic species   valence    mass     pseudopotential
     Li                3.00     6.94000     Li( 1.00)

     No symmetry found


                                    s                        frac. trans.

      isym =  1     identity                                     

 cryst.   s( 1) = (     1          0          0      )
                  (     0          1          0      )
                  (     0          0          1      )

 cart.    s( 1) = (  1.0000000  0.0000000  0.0000000 )
                  (  0.0000000  1.0000000  0.0000000 )
                  (  0.0000000  0.0000000  1.0000000 )


     point group C_1 (1)    
     there are  1 classes
     the character table:

       E    
A      1.00

     the symmetry operations in each class and the name of the first element:

     E        1
          identity                                               

   Cartesian axes

     site n.     atom                  positions (alat units)
         1        Li     tau(   1) = (   0.0011560  -0.0284674   3.5499478  )
         2        Li     tau(   2) = (   0.2488309   0.7423115   2.1103216  )
         3        Li     tau(   3) = (   0.2488643   0.3950816   2.2007714  )
         4        Li     tau(   4) = (   0.2488789   0.0705873   2.2775090  )
         5        Li     tau(   5) = (   0.4988653   0.8094961   2.3321031  )
         6        Li     tau(   6) = (   0.4988900   0.4435061   2.4216432  )
         7        Li     tau(   7) = (   0.4989014   0.1135092   2.4981841  )
         8        Li     tau(   8) = (   0.2490195   0.8683603   2.5734462  )
         9        Li     tau(   9) = (   0.2493694   0.5169755   2.6701531  )
        10        Li     tau(  10) = (   0.2497565   0.1648586   2.7587993  )
        11        Li     tau(  11) = (   0.5001066   0.9169957   2.8274833  )
        12        Li     tau(  12) = (   0.5004894   0.5769422   2.9037110  )
        13        Li     tau(  13) = (   0.5008611   0.2310878   3.0020271  )
        14        Li     tau(  14) = (   0.2510402   0.9770402   3.0683850  )
        15        Li     tau(  15) = (   0.2510774   0.6314380   3.1310906  )
        16        Li     tau(  16) = (   0.2511136   0.2879537   3.2274758  )
        17        Li     tau(  17) = (   0.5011420   1.0235551   3.3309782  )
        18        Li     tau(  18) = (   0.5011171   0.6975633   3.4156855  )
        19        Li     tau(  19) = (   0.5011466   0.3474179   3.4661337  )
        20        Li     tau(  20) = (   0.2488650   0.9849488   2.2829594  )
        21        Li     tau(  21) = (   0.2488889   0.6288987   2.3884701  )
        22        Li     tau(  22) = (   0.2489058   0.2841644   2.4833717  )
        23        Li     tau(  23) = (   0.4989431   1.0323830   2.5461273  )
        24        Li     tau(  24) = (   0.4991703   0.6869979   2.6151459  )
        25        Li     tau(  25) = (   0.4995506   0.3388344   2.7120430  )
        26        Li     tau(  26) = (   0.4998723   0.0031723   2.7882676  )
        27        Li     tau(  27) = (   0.2502508   0.7532823   2.8569788  )
        28        Li     tau(  28) = (   0.2506925   0.3988671   2.9463913  )
        29        Li     tau(  29) = (   0.2509946   0.0513373   3.0419355  )
        30        Li     tau(  30) = (   0.5010796   0.8031488   3.1163259  )
        31        Li     tau(  31) = (   0.5011065   0.4731367   3.1946148  )
        32        Li     tau(  32) = (   0.5011419   0.1089767   3.2836352  )
        33        Li     tau(  33) = (   0.2511232   0.8466667   3.3360443  )
        34        Li     tau(  34) = (   0.2511248   0.5203445   3.4140825  )
        35        Li     tau(  35) = (   0.2511618   0.1771714   3.5055897  )
        36        Li     tau(  36) = (   0.4988342   0.9484958   2.0642652  )
        37        Li     tau(  37) = (   0.4988352   0.5690609   2.1496047  )
        38        Li     tau(  38) = (   0.4988848   0.2189156   2.2012522  )
        39        Li     tau(  39) = (   0.5011400  -0.0284698   3.5499470  )
        40        Li     tau(  40) = (   0.7488289   0.7423072   2.1103273  )
        41        Li     tau(  41) = (   0.7488609   0.3950865   2.2007792  )
        42        Li     tau(  42) = (   0.7488713   0.0705888   2.2775097  )
        43        Li     tau(  43) = (   0.9988574   0.8095035   2.3321012  )
        44        Li     tau(  44) = (   0.9988850   0.4435063   2.4216483  )
        45        Li     tau(  45) = (   0.9989148   0.1135018   2.4981875  )
        46        Li     tau(  46) = (   0.7489978   0.8683626   2.5734315  )
        47        Li     tau(  47) = (   0.7493646   0.5169925   2.6701428  )
        48        Li     tau(  48) = (   0.7497503   0.1648616   2.7587920  )
        49        Li     tau(  49) = (   1.0001036   0.9169942   2.8274824  )
        50        Li     tau(  50) = (   1.0004805   0.5769337   2.9037163  )
        51        Li     tau(  51) = (   1.0008621   0.2310962   3.0020293  )
        52        Li     tau(  52) = (   0.7510468   0.9770410   3.0683798  )
        53        Li     tau(  53) = (   0.7510715   0.6314312   3.1310875  )
        54        Li     tau(  54) = (   0.7511237   0.2879526   3.2274711  )
        55        Li     tau(  55) = (   1.0011414   1.0235776   3.3309712  )
        56        Li     tau(  56) = (   1.0011146   0.6975737   3.4156926  )
        57        Li     tau(  57) = (   1.0011566   0.3474021   3.4661409  )
        58        Li     tau(  58) = (   0.7488561   0.9849573   2.2829420  )
        59        Li     tau(  59) = (   0.7488777   0.6289054   2.3884728  )
        60        Li     tau(  60) = (   0.7489002   0.2841638   2.4833743  )
        61        Li     tau(  61) = (   0.9989364   1.0323868   2.5461225  )
        62        Li     tau(  62) = (   0.9991721   0.6870039   2.6151497  )
        63        Li     tau(  63) = (   0.9995482   0.3388311   2.7120398  )
        64        Li     tau(  64) = (   0.9998778   0.0031696   2.7882711  )
        65        Li     tau(  65) = (   0.7502444   0.7532882   2.8569750  )
        66        Li     tau(  66) = (   0.7506751   0.3988628   2.9463789  )
        67        Li     tau(  67) = (   0.7509896   0.0513503   3.0419200  )
        68        Li     tau(  68) = (   1.0010727   0.8031444   3.1163310  )
        69        Li     tau(  69) = (   1.0010975   0.4731437   3.1946253  )
        70        Li     tau(  70) = (   1.0011402   0.1089744   3.2836381  )
        71        Li     tau(  71) = (   0.7511352   0.8466602   3.3360433  )
        72        Li     tau(  72) = (   0.7511345   0.5203312   3.4140936  )
        73        Li     tau(  73) = (   0.7511509   0.1771820   3.5056008  )
        74        Li     tau(  74) = (   0.9988399   0.9485068   2.0642710  )
        75        Li     tau(  75) = (   0.9988359   0.5690559   2.1496066  )
        76        Li     tau(  76) = (   0.9988904   0.2189115   2.2012700  )

   Crystallographic axes

     site n.     atom                  positions (cryst. coord.)
         1        Li     tau(   1) = (  0.0076869 -0.0261235  0.6321786  )
         2        Li     tau(   2) = (  0.0785331  0.6811916  0.3758084  )
         3        Li     tau(   3) = (  0.1582264  0.3625517  0.3919158  )
         4        Li     tau(   4) = (  0.2326851  0.0647753  0.4055813  )
         5        Li     tau(   5) = (  0.3131542  0.7428444  0.4153035  )
         6        Li     tau(   6) = (  0.3971428  0.4069890  0.4312489  )
         7        Li     tau(   7) = (  0.4728606  0.1041632  0.4448794  )
         8        Li     tau(   8) = (  0.0498040  0.7968619  0.4582821  )
         9        Li     tau(   9) = (  0.1307671  0.4744091  0.4755038  )
        10        Li     tau(  10) = (  0.2119353  0.1512846  0.4912900  )
        11        Li     tau(  11) = (  0.2897334  0.8414927  0.5035213  )
        12        Li     tau(  12) = (  0.3681298  0.5294383  0.5170961  )
        13        Li     tau(  13) = (  0.4478460  0.2120607  0.5346043  )
        14        Li     tau(  14) = (  0.0268919  0.8965934  0.5464214  )
        15        Li     tau(  15) = (  0.1062156  0.5794471  0.5575881  )
        16        Li     tau(  16) = (  0.1850525  0.2642444  0.5747524  )
        17        Li     tau(  17) = (  0.2663224  0.9392784  0.5931843  )
        18        Li     tau(  18) = (  0.3410852  0.6401278  0.6082690  )
        19        Li     tau(  19) = (  0.4214435  0.3188125  0.6172529  )
        20        Li     tau(  20) = (  0.0229023  0.9038508  0.4065519  )
        21        Li     tau(  21) = (  0.1046096  0.5771169  0.4253414  )
        22        Li     tau(  22) = (  0.1837141  0.2607671  0.4422416  )
        23        Li     tau(  23) = (  0.2620982  0.9473794  0.4534172  )
        24        Li     tau(  24) = (  0.3415622  0.6304323  0.4657081  )
        25        Li     tau(  25) = (  0.4218167  0.3109357  0.4829636  )
        26        Li     tau(  26) = (  0.4991445  0.0029111  0.4965378  )
        27        Li     tau(  27) = (  0.0774361  0.6912590  0.5087739  )
        28        Li     tau(  28) = (  0.1591861  0.3660254  0.5246966  )
        29        Li     tau(  29) = (  0.2392170  0.0471103  0.5417112  )
        30        Li     tau(  30) = (  0.3168247  0.7370197  0.5549587  )
        31        Li     tau(  31) = (  0.3925615  0.4341799  0.5689005  )
        32        Li     tau(  32) = (  0.4761409  0.1000039  0.5847534  )
        33        Li     tau(  33) = (  0.0568845  0.7769545  0.5940864  )
        34        Li     tau(  34) = (  0.1317496  0.4775008  0.6079836  )
        35        Li     tau(  35) = (  0.2105159  0.1625836  0.6242793  )
        36        Li     tau(  36) = (  0.2812344  0.8703992  0.3676066  )
        37        Li     tau(  37) = (  0.3682837  0.5222059  0.3828040  )
        38        Li     tau(  38) = (  0.4486621  0.2008907  0.3920014  )
        39        Li     tau(  39) = (  0.5076714 -0.0261256  0.6321785  )
        40        Li     tau(  40) = (  0.5785320  0.6811876  0.3758094  )
        41        Li     tau(  41) = (  0.6582219  0.3625562  0.3919172  )
        42        Li     tau(  42) = (  0.7326771  0.0647767  0.4055814  )
        43        Li     tau(  43) = (  0.8131446  0.7428512  0.4153032  )
        44        Li     tau(  44) = (  0.8971377  0.4069892  0.4312498  )
        45        Li     tau(  45) = (  0.9728757  0.1041563  0.4448800  )
        46        Li     tau(  46) = (  0.5497818  0.7968640  0.4582795  )
        47        Li     tau(  47) = (  0.6307584  0.4744248  0.4755020  )
        48        Li     tau(  48) = (  0.7119285  0.1512874  0.4912887  )
        49        Li     tau(  49) = (  0.7897308  0.8414914  0.5035212  )
        50        Li     tau(  50) = (  0.8681228  0.5294306  0.5170970  )
        51        Li     tau(  51) = (  0.9478450  0.2120684  0.5346047  )
        52        Li     tau(  52) = (  0.5268983  0.8965941  0.5464204  )
        53        Li     tau(  53) = (  0.6062112  0.5794408  0.5575875  )
        54        Li     tau(  54) = (  0.6850629  0.2642434  0.5747516  )
        55        Li     tau(  55) = (  0.7663166  0.9392990  0.5931830  )
        56        Li     tau(  56) = (  0.8410802  0.6401374  0.6082703  )
        57        Li     tau(  57) = (  0.9214571  0.3187980  0.6172542  )
        58        Li     tau(  58) = (  0.5228914  0.9038586  0.4065488  )
        59        Li     tau(  59) = (  0.6045969  0.5771231  0.4253419  )
        60        Li     tau(  60) = (  0.6837086  0.2607665  0.4422420  )
        61        Li     tau(  61) = (  0.7620907  0.9473828  0.4534163  )
        62        Li     tau(  62) = (  0.8415626  0.6304379  0.4657087  )
        63        Li     tau(  63) = (  0.9218150  0.3109327  0.4829630  )
        64        Li     tau(  64) = (  0.9991507  0.0029086  0.4965384  )
        65        Li     tau(  65) = (  0.5774283  0.6912645  0.5087733  )
        66        Li     tau(  66) = (  0.6591697  0.3660215  0.5246944  )
        67        Li     tau(  67) = (  0.7392090  0.0471223  0.5417085  )
        68        Li     tau(  68) = (  0.8168187  0.7370157  0.5549597  )
        69        Li     tau(  69) = (  0.8925510  0.4341863  0.5689024  )
        70        Li     tau(  70) = (  0.9761397  0.1000017  0.5847539  )
        71        Li     tau(  71) = (  0.5568981  0.7769485  0.5940863  )
        72        Li     tau(  72) = (  0.6317624  0.4774886  0.6079856  )
        73        Li     tau(  73) = (  0.7105026  0.1625933  0.6242812  )
        74        Li     tau(  74) = (  0.7812376  0.8704093  0.3676077  )
        75        Li     tau(  75) = (  0.8682855  0.5222013  0.3828043  )
        76        Li     tau(  76) = (  0.9486686  0.2008870  0.3920046  )

     number of k points=    22  Marzari-Vanderbilt smearing, width (Ry)=  0.0100
                       cart. coord. in units 2pi/alat
        k(    1) = (   0.0000000   0.0000000   0.0000000), wk =   0.0476190
        k(    2) = (   0.0000000   0.1529438   0.0000000), wk =   0.0952381
        k(    3) = (   0.0000000   0.3058876   0.0000000), wk =   0.0952381
        k(    4) = (   0.0000000  -0.4588314   0.0000000), wk =   0.0476190
        k(    5) = (   0.1428571  -0.0327737   0.0000000), wk =   0.0952381
        k(    6) = (   0.1428571   0.1201701   0.0000000), wk =   0.0952381
        k(    7) = (   0.1428571   0.2731139   0.0000000), wk =   0.0952381
        k(    8) = (   0.1428571  -0.4916050   0.0000000), wk =   0.0952381
        k(    9) = (   0.1428571  -0.3386612   0.0000000), wk =   0.0952381
        k(   10) = (   0.1428571  -0.1857175   0.0000000), wk =   0.0952381
        k(   11) = (   0.2857143  -0.0655473   0.0000000), wk =   0.0952381
        k(   12) = (   0.2857143   0.0873964   0.0000000), wk =   0.0952381
        k(   13) = (   0.2857143   0.2403402   0.0000000), wk =   0.0952381
        k(   14) = (   0.2857143  -0.5243787   0.0000000), wk =   0.0952381
        k(   15) = (   0.2857143  -0.3714349   0.0000000), wk =   0.0952381
        k(   16) = (   0.2857143  -0.2184911   0.0000000), wk =   0.0952381
        k(   17) = (   0.4285714  -0.0983210   0.0000000), wk =   0.0952381
        k(   18) = (   0.4285714   0.0546228   0.0000000), wk =   0.0952381
        k(   19) = (   0.4285714   0.2075666   0.0000000), wk =   0.0952381
        k(   20) = (   0.4285714  -0.5571524   0.0000000), wk =   0.0952381
        k(   21) = (   0.4285714  -0.4042086   0.0000000), wk =   0.0952381
        k(   22) = (   0.4285714  -0.2512648   0.0000000), wk =   0.0952381

                       cryst. coord.
        k(    1) = (   0.0000000   0.0000000   0.0000000), wk =   0.0476190
        k(    2) = (   0.0000000   0.1666667   0.0000000), wk =   0.0952381
        k(    3) = (   0.0000000   0.3333333   0.0000000), wk =   0.0952381
        k(    4) = (   0.0000000  -0.5000000   0.0000000), wk =   0.0476190
        k(    5) = (   0.1428571   0.0000000   0.0000000), wk =   0.0952381
        k(    6) = (   0.1428571   0.1666667   0.0000000), wk =   0.0952381
        k(    7) = (   0.1428571   0.3333333   0.0000000), wk =   0.0952381
        k(    8) = (   0.1428571  -0.5000000   0.0000000), wk =   0.0952381
        k(    9) = (   0.1428571  -0.3333333   0.0000000), wk =   0.0952381
        k(   10) = (   0.1428571  -0.1666667   0.0000000), wk =   0.0952381
        k(   11) = (   0.2857143   0.0000000   0.0000000), wk =   0.0952381
        k(   12) = (   0.2857143   0.1666667   0.0000000), wk =   0.0952381
        k(   13) = (   0.2857143   0.3333333   0.0000000), wk =   0.0952381
        k(   14) = (   0.2857143  -0.5000000   0.0000000), wk =   0.0952381
        k(   15) = (   0.2857143  -0.3333333   0.0000000), wk =   0.0952381
        k(   16) = (   0.2857143  -0.1666667   0.0000000), wk =   0.0952381
        k(   17) = (   0.4285714   0.0000000   0.0000000), wk =   0.0952381
        k(   18) = (   0.4285714   0.1666667   0.0000000), wk =   0.0952381
        k(   19) = (   0.4285714   0.3333333   0.0000000), wk =   0.0952381
        k(   20) = (   0.4285714  -0.5000000   0.0000000), wk =   0.0952381
        k(   21) = (   0.4285714  -0.3333333   0.0000000), wk =   0.0952381
        k(   22) = (   0.4285714  -0.1666667   0.0000000), wk =   0.0952381

     Dense  grid: 14473305 G-vectors     FFT dimensions: ( 180, 192, 960)

     Smooth grid:  3661695 G-vectors     FFT dimensions: ( 108, 120, 600)

     Dynamical RAM for                 wfc:       4.66 MB

     Dynamical RAM for     wfc (w. buffer):      55.95 MB

     Dynamical RAM for           str. fact:       0.86 MB

     Dynamical RAM for           local pot:       0.00 MB

     Dynamical RAM for          nlocal pot:      16.58 MB

     Dynamical RAM for                qrad:       0.65 MB

     Dynamical RAM for          rho,v,vnew:       5.75 MB

     Dynamical RAM for               rhoin:       1.92 MB

     Dynamical RAM for            rho*nmix:      13.80 MB

     Dynamical RAM for           G-vectors:       3.34 MB

     Dynamical RAM for          h,s,v(r/c):       5.35 MB

     Dynamical RAM for          <psi|beta>:       1.59 MB

     Dynamical RAM for                 psi:      18.65 MB

     Dynamical RAM for                hpsi:      18.65 MB

     Dynamical RAM for                spsi:      18.65 MB

     Dynamical RAM for      wfcinit/wfcrot:      10.00 MB

     Dynamical RAM for           addusdens:      51.75 MB

     Dynamical RAM for          addusforce:     116.51 MB

     Estimated static dynamical RAM per process >      92.05 MB

     Estimated max dynamical RAM per process >     222.36 MB

     Estimated total dynamical RAM >     107.73 GB

     Initial potential from superposition of free atoms

     starting charge     227.6497, renormalised to     228.0000

     negative rho (up, down):  6.366E-03 0.000E+00
     Starting wfcs are random
     Checking if some PAW data can be deallocated... 

     total cpu time spent up to now is       51.6 secs

     Self-consistent Calculation

     iteration #  1     ecut=    80.00 Ry     beta= 0.20
     Davidson diagonalization with overlap

---- Real-time Memory Report at c_bands before calling an iterative solver
          1418 MiB given to the printing process from OS
             0 MiB allocation reported by mallinfo(arena+hblkhd)
        209798 MiB available memory on the node where the printing process lives
------------------
     c_bands:  1 eigenvalues not converged
     c_bands:  4 eigenvalues not converged
     c_bands:  1 eigenvalues not converged
     ethr =  1.00E-12,  avg # of iterations =144.0

     negative rho (up, down):  4.703E-03 0.000E+00

     total cpu time spent up to now is      770.2 secs

     total energy              =   -1142.49747114 Ry
     estimated scf accuracy    <       0.22618989 Ry

     total charge of GC-SCF    =      -0.02280457 e
     the Fermi energy          =      -4.26663451 eV
                        (error :       1.86263451 eV)
     electrostatic embedding   =       0.00000000 Ry
     cavitation energy         =       0.04277823 Ry
     electrolyte free energy   =       0.01630252 Ry
     correction to one-el term =      -0.00000000 Ry

     iteration #  2     ecut=    80.00 Ry     beta= 0.20
     Davidson diagonalization with overlap

---- Real-time Memory Report at c_bands before calling an iterative solver
          1418 MiB given to the printing process from OS
             0 MiB allocation reported by mallinfo(arena+hblkhd)
        206805 MiB available memory on the node where the printing process lives
------------------
     ethr =  1.00E-05,  avg # of iterations = 14.3

     negative rho (up, down):  3.718E-03 0.000E+00

     total cpu time spent up to now is      852.2 secs

     total energy              =   -1142.94690208 Ry
     estimated scf accuracy    <       0.14496052 Ry

     total charge of GC-SCF    =      -0.02108159 e
     the Fermi energy          =      -2.91536832 eV
                        (error :       0.51136832 eV)
     electrostatic embedding   =      -0.00021563 Ry
     cavitation energy         =       0.04277823 Ry
     electrolyte free energy   =       0.01630252 Ry
     correction to one-el term =      -0.00000000 Ry

     iteration #  3     ecut=    80.00 Ry     beta= 0.20
     Davidson diagonalization with overlap

---- Real-time Memory Report at c_bands before calling an iterative solver
          1418 MiB given to the printing process from OS
             0 MiB allocation reported by mallinfo(arena+hblkhd)
        206488 MiB available memory on the node where the printing process lives
------------------
     ethr =  1.00E-05,  avg # of iterations = 11.5

     negative rho (up, down):  2.774E-03 0.000E+00

     add environment contribution to local potential

     total cpu time spent up to now is      928.3 secs

     total energy              =   -1142.72655306 Ry
     estimated scf accuracy    <       0.06834597 Ry

     total charge of GC-SCF    =       0.02813945 e
     the Fermi energy          =      -2.85689855 eV
                        (error :       0.45289855 eV)
     electrostatic embedding   =      -0.00019934 Ry
     cavitation energy         =       0.04277823 Ry
     electrolyte free energy   =       0.01630252 Ry
     correction to one-el term =      -0.00000000 Ry

     iteration #  4     ecut=    80.00 Ry     beta= 0.20
     Davidson diagonalization with overlap

---- Real-time Memory Report at c_bands before calling an iterative solver
          1418 MiB given to the printing process from OS
             0 MiB allocation reported by mallinfo(arena+hblkhd)
        206518 MiB available memory on the node where the printing process lives
------------------
     ethr =  1.00E-05,  avg # of iterations = 35.9

     negative rho (up, down):  2.364E-03 0.000E+00

     add environment contribution to local potential

     total cpu time spent up to now is     1084.2 secs

     total energy              =   -1142.83118533 Ry
     estimated scf accuracy    <       0.02797362 Ry

     total charge of GC-SCF    =      -0.03955709 e
     the Fermi energy          =      -2.61354264 eV
                        (error :       0.20954264 eV)
     electrostatic embedding   =      -0.03711048 Ry
     cavitation energy         =       0.04277823 Ry
     electrolyte free energy   =      -0.00156673 Ry
     correction to one-el term =       5.03693287 Ry

     iteration #  5     ecut=    80.00 Ry     beta= 0.20
     Davidson diagonalization with overlap

---- Real-time Memory Report at c_bands before calling an iterative solver
          1418 MiB given to the printing process from OS
             0 MiB allocation reported by mallinfo(arena+hblkhd)
        206342 MiB available memory on the node where the printing process lives
------------------
     ethr =  1.00E-05,  avg # of iterations = 15.0

     negative rho (up, down):  2.078E-03 0.000E+00

     add environment contribution to local potential

     total cpu time spent up to now is     1165.0 secs

     total energy              =   -1142.81460110 Ry
     estimated scf accuracy    <       0.01698244 Ry

     total charge of GC-SCF    =      -0.21126903 e
     the Fermi energy          =      -2.74369409 eV
                        (error :       0.33969409 eV)
     electrostatic embedding   =      -0.04266355 Ry
     cavitation energy         =       0.04277823 Ry
     electrolyte free energy   =      -0.00231529 Ry
     correction to one-el term =       6.69992440 Ry

     iteration #  6     ecut=    80.00 Ry     beta= 0.20
     Davidson diagonalization with overlap

---- Real-time Memory Report at c_bands before calling an iterative solver
          1418 MiB given to the printing process from OS
             0 MiB allocation reported by mallinfo(arena+hblkhd)
        206343 MiB available memory on the node where the printing process lives
------------------
     ethr =  7.44E-06,  avg # of iterations = 16.6

     negative rho (up, down):  1.813E-03 0.000E+00

     add environment contribution to local potential

     total cpu time spent up to now is     1266.9 secs

     total energy              =   -1142.82415416 Ry
     estimated scf accuracy    <       0.00629014 Ry

     total charge of GC-SCF    =      -0.38203239 e
     the Fermi energy          =      -2.90160492 eV
                        (error :       0.49760492 eV)
     electrostatic embedding   =      -0.05967221 Ry
     cavitation energy         =       0.04277823 Ry
     electrolyte free energy   =      -0.00337379 Ry
     correction to one-el term =      15.35564301 Ry

     iteration #  7     ecut=    80.00 Ry     beta= 0.20
     Davidson diagonalization with overlap

---- Real-time Memory Report at c_bands before calling an iterative solver
          1418 MiB given to the printing process from OS
             0 MiB allocation reported by mallinfo(arena+hblkhd)
        206331 MiB available memory on the node where the printing process lives
------------------
     ethr =  2.75E-06,  avg # of iterations = 21.4

     negative rho (up, down):  1.617E-03 0.000E+00

     add environment contribution to local potential

     total cpu time spent up to now is     1400.3 secs

     total energy              =   -1142.86503746 Ry
     estimated scf accuracy    <       0.00251856 Ry

     total charge of GC-SCF    =      -0.51862777 e
     the Fermi energy          =      -2.60733159 eV
                        (error :       0.20333159 eV)
     electrostatic embedding   =      -0.08272084 Ry
     cavitation energy         =       0.04277823 Ry
     electrolyte free energy   =      -0.00049407 Ry
     correction to one-el term =      24.77334870 Ry

     iteration #  8     ecut=    80.00 Ry     beta= 0.20
     Davidson diagonalization with overlap

---- Real-time Memory Report at c_bands before calling an iterative solver
          1418 MiB given to the printing process from OS
             0 MiB allocation reported by mallinfo(arena+hblkhd)
        206207 MiB available memory on the node where the printing process lives
------------------
     ethr =  1.10E-06,  avg # of iterations = 18.6

     negative rho (up, down):  1.554E-03 0.000E+00

     add environment contribution to local potential

     total cpu time spent up to now is     1518.9 secs

     total energy              =   -1142.88131151 Ry
     estimated scf accuracy    <       0.00460179 Ry

     total charge of GC-SCF    =      -0.77856906 e
     the Fermi energy          =      -2.48098209 eV
                        (error :       0.07698209 eV)
     electrostatic embedding   =      -0.10624229 Ry
     cavitation energy         =       0.04277823 Ry
     electrolyte free energy   =      -0.00009781 Ry
     correction to one-el term =      33.03750887 Ry

     iteration #  9     ecut=    80.00 Ry     beta= 0.20
     Davidson diagonalization with overlap

---- Real-time Memory Report at c_bands before calling an iterative solver
          1418 MiB given to the printing process from OS
             0 MiB allocation reported by mallinfo(arena+hblkhd)
        206254 MiB available memory on the node where the printing process lives
------------------
     ethr =  1.10E-06,  avg # of iterations = 16.5

     negative rho (up, down):  1.478E-03 0.000E+00

     add environment contribution to local potential

     total cpu time spent up to now is     1617.5 secs

     total energy              =   -1142.84034180 Ry
     estimated scf accuracy    <       0.00600665 Ry

     total charge of GC-SCF    =      -0.97813646 e
     the Fermi energy          =      -2.42138339 eV
                        (error :       0.01738339 eV)
     electrostatic embedding   =      -0.16616339 Ry
     cavitation energy         =       0.04277823 Ry
     electrolyte free energy   =      -0.00040661 Ry
     correction to one-el term =      45.19628505 Ry

     iteration # 10     ecut=    80.00 Ry     beta= 0.20
     Davidson diagonalization with overlap

---- Real-time Memory Report at c_bands before calling an iterative solver
          1418 MiB given to the printing process from OS
             0 MiB allocation reported by mallinfo(arena+hblkhd)
        206126 MiB available memory on the node where the printing process lives
------------------
     ethr =  1.10E-06,  avg # of iterations = 15.3

     negative rho (up, down):  1.300E-03 0.000E+00

     add environment contribution to local potential

     total cpu time spent up to now is     1711.3 secs

     total energy              =   -1142.87228777 Ry
     estimated scf accuracy    <       0.00080916 Ry

     total charge of GC-SCF    =      -1.17136564 e
     the Fermi energy          =      -2.52719700 eV
                        (error :       0.12319700 eV)
     electrostatic embedding   =      -0.22159152 Ry
     cavitation energy         =       0.04277823 Ry
     electrolyte free energy   =      -0.00061262 Ry
     correction to one-el term =      51.07651339 Ry

     iteration # 11     ecut=    80.00 Ry     beta= 0.20
     Davidson diagonalization with overlap

---- Real-time Memory Report at c_bands before calling an iterative solver
          1418 MiB given to the printing process from OS
             0 MiB allocation reported by mallinfo(arena+hblkhd)
        206057 MiB available memory on the node where the printing process lives
------------------
     ethr =  3.53E-07,  avg # of iterations = 15.5

     negative rho (up, down):  1.162E-03 0.000E+00

     add environment contribution to local potential

     total cpu time spent up to now is     1805.8 secs

     total energy              =   -1142.88005178 Ry
     estimated scf accuracy    <       0.00037482 Ry

     total charge of GC-SCF    =      -1.30098841 e
     the Fermi energy          =      -2.53652463 eV
                        (error :       0.13252463 eV)
     electrostatic embedding   =      -0.27767036 Ry
     cavitation energy         =       0.04277823 Ry
     electrolyte free energy   =      -0.00091377 Ry
     correction to one-el term =      57.51560560 Ry

     iteration # 12     ecut=    80.00 Ry     beta= 0.20
     Davidson diagonalization with overlap

---- Real-time Memory Report at c_bands before calling an iterative solver
          1418 MiB given to the printing process from OS
             0 MiB allocation reported by mallinfo(arena+hblkhd)
        206031 MiB available memory on the node where the printing process lives
------------------
     ethr =  1.63E-07,  avg # of iterations = 14.4

     negative rho (up, down):  1.067E-03 0.000E+00

     add environment contribution to local potential

     total cpu time spent up to now is     1897.2 secs

     total energy              =   -1142.87790864 Ry
     estimated scf accuracy    <       0.00062015 Ry

     total charge of GC-SCF    =      -1.45004108 e
     the Fermi energy          =      -2.52207502 eV
                        (error :       0.11807502 eV)
     electrostatic embedding   =      -0.31677523 Ry
     cavitation energy         =       0.04277823 Ry
     electrolyte free energy   =      -0.00106450 Ry
     correction to one-el term =      62.06758196 Ry

     iteration # 13     ecut=    80.00 Ry     beta= 0.20
     Davidson diagonalization with overlap

---- Real-time Memory Report at c_bands before calling an iterative solver
          1418 MiB given to the printing process from OS
             0 MiB allocation reported by mallinfo(arena+hblkhd)
        206033 MiB available memory on the node where the printing process lives
------------------
     ethr =  1.63E-07,  avg # of iterations = 25.2

     negative rho (up, down):  9.719E-04 0.000E+00

     add environment contribution to local potential

     total cpu time spent up to now is     2033.6 secs

     total energy              =   -1142.88294559 Ry
     estimated scf accuracy    <       0.00018222 Ry

     total charge of GC-SCF    =      -1.58388545 e
     the Fermi energy          =      -2.54815945 eV
                        (error :       0.14415945 eV)
     electrostatic embedding   =      -0.36868932 Ry
     cavitation energy         =       0.04277823 Ry
     electrolyte free energy   =      -0.00141793 Ry
     correction to one-el term =      66.70813421 Ry

     iteration # 14     ecut=    80.00 Ry     beta= 0.20
     Davidson diagonalization with overlap

---- Real-time Memory Report at c_bands before calling an iterative solver
          1418 MiB given to the printing process from OS
             0 MiB allocation reported by mallinfo(arena+hblkhd)
        206023 MiB available memory on the node where the printing process lives
------------------
     ethr =  7.94E-08,  avg # of iterations = 18.7

     negative rho (up, down):  9.043E-04 0.000E+00

     add environment contribution to local potential

     total cpu time spent up to now is     2150.8 secs

     total energy              =   -1142.88618104 Ry
     estimated scf accuracy    <       0.00005758 Ry

     total charge of GC-SCF    =      -1.70010027 e
     the Fermi energy          =      -2.54793802 eV
                        (error :       0.14393802 eV)
     electrostatic embedding   =      -0.41587092 Ry
     cavitation energy         =       0.04277823 Ry
     electrolyte free energy   =      -0.00166556 Ry
     correction to one-el term =      71.11281999 Ry

     iteration # 15     ecut=    80.00 Ry     beta= 0.20
     Davidson diagonalization with overlap

---- Real-time Memory Report at c_bands before calling an iterative solver
          1418 MiB given to the printing process from OS
             0 MiB allocation reported by mallinfo(arena+hblkhd)
        206035 MiB available memory on the node where the printing process lives
------------------
     ethr =  2.51E-08,  avg # of iterations = 22.2

     negative rho (up, down):  8.592E-04 0.000E+00

     add environment contribution to local potential

     total cpu time spent up to now is     2289.3 secs

     total energy              =   -1142.88794868 Ry
     estimated scf accuracy    <       0.00007087 Ry

     total charge of GC-SCF    =      -1.79743969 e
     the Fermi energy          =      -2.53671853 eV
                        (error :       0.13271853 eV)
     electrostatic embedding   =      -0.45847531 Ry
     cavitation energy         =       0.04277823 Ry
     electrolyte free energy   =      -0.00185517 Ry
     correction to one-el term =      75.14942196 Ry

     iteration # 16     ecut=    80.00 Ry     beta= 0.20
     Davidson diagonalization with overlap

---- Real-time Memory Report at c_bands before calling an iterative solver
          1418 MiB given to the printing process from OS
             0 MiB allocation reported by mallinfo(arena+hblkhd)
        205808 MiB available memory on the node where the printing process lives
------------------
     ethr =  2.51E-08,  avg # of iterations = 14.6

     negative rho (up, down):  8.245E-04 0.000E+00

     add environment contribution to local potential

     total cpu time spent up to now is     2385.7 secs

     total energy              =   -1142.88702243 Ry
     estimated scf accuracy    <       0.00005088 Ry

     total charge of GC-SCF    =      -2.03189031 e
     the Fermi energy          =      -2.53193033 eV
                        (error :       0.12793033 eV)
     electrostatic embedding   =      -0.49646354 Ry
     cavitation energy         =       0.04277823 Ry
     electrolyte free energy   =      -0.00205724 Ry
     correction to one-el term =      78.48849652 Ry

     iteration # 17     ecut=    80.00 Ry     beta= 0.20
     Davidson diagonalization with overlap

---- Real-time Memory Report at c_bands before calling an iterative solver
          1418 MiB given to the printing process from OS
             0 MiB allocation reported by mallinfo(arena+hblkhd)
        206029 MiB available memory on the node where the printing process lives
------------------
     ethr =  2.21E-08,  avg # of iterations = 23.8

     negative rho (up, down):  7.944E-04 0.000E+00

     add environment contribution to local potential

     total cpu time spent up to now is     2509.2 secs

     total energy              =   -1142.89766710 Ry
     estimated scf accuracy    <       0.00003362 Ry

     total charge of GC-SCF    =      -2.53315729 e
     the Fermi energy          =      -2.51257928 eV
                        (error :       0.10857928 eV)
     electrostatic embedding   =      -0.59636481 Ry
     cavitation energy         =       0.04277823 Ry
     electrolyte free energy   =      -0.00262295 Ry
     correction to one-el term =      86.91524086 Ry

     iteration # 18     ecut=    80.00 Ry     beta= 0.20
     Davidson diagonalization with overlap

---- Real-time Memory Report at c_bands before calling an iterative solver
          1418 MiB given to the printing process from OS
             0 MiB allocation reported by mallinfo(arena+hblkhd)
        205933 MiB available memory on the node where the printing process lives
------------------
     ethr =  1.46E-08,  avg # of iterations = 36.2

     negative rho (up, down):  7.740E-04 0.000E+00

     add environment contribution to local potential

     total cpu time spent up to now is     2691.4 secs

     total energy              =   -1142.89580114 Ry
     estimated scf accuracy    <       0.00001330 Ry

     total charge of GC-SCF    =      -2.63102829 e
     the Fermi energy          =      -2.46514344 eV
                        (error :       0.06114344 eV)
     electrostatic embedding   =      -0.84416913 Ry
     cavitation energy         =       0.04277823 Ry
     electrolyte free energy   =      -0.00428953 Ry
     correction to one-el term =     105.16747966 Ry

     iteration # 19     ecut=    80.00 Ry     beta= 0.20
     Davidson diagonalization with overlap

---- Real-time Memory Report at c_bands before calling an iterative solver
          1418 MiB given to the printing process from OS
             0 MiB allocation reported by mallinfo(arena+hblkhd)
        205968 MiB available memory on the node where the printing process lives
------------------
     ethr =  5.77E-09,  avg # of iterations = 22.8

     negative rho (up, down):  7.476E-04 0.000E+00

     add environment contribution to local potential

     total cpu time spent up to now is     2825.2 secs

     total energy              =   -1142.89954128 Ry
     estimated scf accuracy    <       0.00001169 Ry

     total charge of GC-SCF    =      -2.92068634 e
     the Fermi energy          =      -2.45409846 eV
                        (error :       0.05009846 eV)
     electrostatic embedding   =      -0.89727493 Ry
     cavitation energy         =       0.04277823 Ry
     electrolyte free energy   =      -0.00468737 Ry
     correction to one-el term =     108.72150037 Ry

     iteration # 20     ecut=    80.00 Ry     beta= 0.20
     Davidson diagonalization with overlap

---- Real-time Memory Report at c_bands before calling an iterative solver
          1418 MiB given to the printing process from OS
             0 MiB allocation reported by mallinfo(arena+hblkhd)
        205839 MiB available memory on the node where the printing process lives
------------------
     c_bands:  1 eigenvalues not converged
     ethr =  5.06E-09,  avg # of iterations = 44.2

     negative rho (up, down):  7.317E-04 0.000E+00

     add environment contribution to local potential

     total cpu time spent up to now is     3046.3 secs

     total energy              =   -1142.89841495 Ry
     estimated scf accuracy    <       0.00000462 Ry

     total charge of GC-SCF    =      -3.05534359 e
     the Fermi energy          =      -2.42880641 eV
                        (error :       0.02480641 eV)
     electrostatic embedding   =      -1.06473295 Ry
     cavitation energy         =       0.04277823 Ry
     electrolyte free energy   =      -0.00603939 Ry
     correction to one-el term =     118.97261939 Ry

     iteration # 21     ecut=    80.00 Ry     beta= 0.20
     Davidson diagonalization with overlap

---- Real-time Memory Report at c_bands before calling an iterative solver
          1418 MiB given to the printing process from OS
             0 MiB allocation reported by mallinfo(arena+hblkhd)
        205963 MiB available memory on the node where the printing process lives
------------------
     ethr =  2.00E-09,  avg # of iterations = 47.1

     negative rho (up, down):  7.170E-04 0.000E+00

     add environment contribution to local potential

     total cpu time spent up to now is     3267.1 secs

     total energy              =   -1142.89825240 Ry
     estimated scf accuracy    <       0.00000204 Ry

     total charge of GC-SCF    =      -3.11281213 e
     the Fermi energy          =      -2.41732039 eV
                        (error :       0.01332039 eV)
     electrostatic embedding   =      -1.14788398 Ry
     cavitation energy         =       0.04277823 Ry
     electrolyte free energy   =      -0.00676131 Ry
     correction to one-el term =     123.73496329 Ry

     iteration # 22     ecut=    80.00 Ry     beta= 0.20
     Davidson diagonalization with overlap

---- Real-time Memory Report at c_bands before calling an iterative solver
          1418 MiB given to the printing process from OS
             0 MiB allocation reported by mallinfo(arena+hblkhd)
        205841 MiB available memory on the node where the printing process lives
------------------
     ethr =  8.82E-10,  avg # of iterations = 31.6

     negative rho (up, down):  7.066E-04 0.000E+00

     add environment contribution to local potential

     total cpu time spent up to now is     3418.2 secs

     total energy              =   -1142.89843322 Ry
     estimated scf accuracy    <       0.00000156 Ry

     total charge of GC-SCF    =      -3.17789008 e
     the Fermi energy          =      -2.41296179 eV
                        (error :       0.00896179 eV)
     electrostatic embedding   =      -1.18375240 Ry
     cavitation energy         =       0.04277823 Ry
     electrolyte free energy   =      -0.00708032 Ry
     correction to one-el term =     125.67533293 Ry

     iteration # 23     ecut=    80.00 Ry     beta= 0.20
     Davidson diagonalization with overlap

---- Real-time Memory Report at c_bands before calling an iterative solver
          1418 MiB given to the printing process from OS
             0 MiB allocation reported by mallinfo(arena+hblkhd)
        205804 MiB available memory on the node where the printing process lives
------------------
     c_bands:  1 eigenvalues not converged
     ethr =  6.75E-10,  avg # of iterations = 39.8

     negative rho (up, down):  6.976E-04 0.000E+00

     add environment contribution to local potential

     total cpu time spent up to now is     3605.4 secs

     total energy              =   -1142.89853306 Ry
     estimated scf accuracy    <       0.00000068 Ry

     total charge of GC-SCF    =      -3.23608669 e
     the Fermi energy          =      -2.40797487 eV
                        (error :       0.00397487 eV)
     electrostatic embedding   =      -1.22526927 Ry
     cavitation energy         =       0.04277823 Ry
     electrolyte free energy   =      -0.00745572 Ry
     correction to one-el term =     127.91735350 Ry

     iteration # 24     ecut=    80.00 Ry     beta= 0.20
     Davidson diagonalization with overlap

---- Real-time Memory Report at c_bands before calling an iterative solver
          1418 MiB given to the printing process from OS
             0 MiB allocation reported by mallinfo(arena+hblkhd)
        205885 MiB available memory on the node where the printing process lives
------------------
     ethr =  2.92E-10,  avg # of iterations = 39.1

     negative rho (up, down):  6.921E-04 0.000E+00

     add environment contribution to local potential

     total cpu time spent up to now is     3802.2 secs

     total energy              =   -1142.89836217 Ry
     estimated scf accuracy    <       0.00000026 Ry

     total charge of GC-SCF    =      -3.22733369 e
     the Fermi energy          =      -2.40400691 eV
                        (error :       0.00000691 eV)
     electrostatic embedding   =      -1.26301499 Ry
     cavitation energy         =       0.04277823 Ry
     electrolyte free energy   =      -0.00780066 Ry
     correction to one-el term =     129.91591184 Ry

     iteration # 25     ecut=    80.00 Ry     beta= 0.20
     Davidson diagonalization with overlap

---- Real-time Memory Report at c_bands before calling an iterative solver
          1418 MiB given to the printing process from OS
             0 MiB allocation reported by mallinfo(arena+hblkhd)
        206022 MiB available memory on the node where the printing process lives
------------------
     ethr =  1.10E-10,  avg # of iterations = 16.8

     negative rho (up, down):  6.883E-04 0.000E+00

     add environment contribution to local potential

     total cpu time spent up to now is     3917.5 secs

     total energy              =   -1142.89839831 Ry
     estimated scf accuracy    <       0.00000019 Ry

     total charge of GC-SCF    =      -3.25357286 e
     the Fermi energy          =      -2.40502799 eV
                        (error :       0.00102799 eV)
     electrostatic embedding   =      -1.25665647 Ry
     cavitation energy         =       0.04277823 Ry
     electrolyte free energy   =      -0.00773985 Ry
     correction to one-el term =     129.54411648 Ry

     iteration # 26     ecut=    80.00 Ry     beta= 0.20
     Davidson diagonalization with overlap

---- Real-time Memory Report at c_bands before calling an iterative solver
          1418 MiB given to the printing process from OS
             0 MiB allocation reported by mallinfo(arena+hblkhd)
        205972 MiB available memory on the node where the printing process lives
------------------
     ethr =  8.14E-11,  avg # of iterations = 30.6

     negative rho (up, down):  6.863E-04 0.000E+00

     add environment contribution to local potential

     total cpu time spent up to now is     4074.3 secs

     total energy              =   -1142.89835836 Ry
     estimated scf accuracy    <       0.00000007 Ry

     total charge of GC-SCF    =      -3.24365203 e
     the Fermi energy          =      -2.40291746 eV
                        (error :       0.00108254 eV)
     electrostatic embedding   =      -1.27400671 Ry
     cavitation energy         =       0.04277823 Ry
     electrolyte free energy   =      -0.00790059 Ry
     correction to one-el term =     130.48528988 Ry

     iteration # 27     ecut=    80.00 Ry     beta= 0.20
     Davidson diagonalization with overlap

---- Real-time Memory Report at c_bands before calling an iterative solver
          1418 MiB given to the printing process from OS
             0 MiB allocation reported by mallinfo(arena+hblkhd)
        205870 MiB available memory on the node where the printing process lives
------------------
     ethr =  3.01E-11,  avg # of iterations = 26.3

     negative rho (up, down):  6.842E-04 0.000E+00

     add environment contribution to local potential

     total cpu time spent up to now is     4211.9 secs

     total energy              =   -1142.89835455 Ry
     estimated scf accuracy    <       0.00000003 Ry

     total charge of GC-SCF    =      -3.24245388 e
     the Fermi energy          =      -2.40372323 eV
                        (error :       0.00027677 eV)
     electrostatic embedding   =      -1.26742640 Ry
     cavitation energy         =       0.04277823 Ry
     electrolyte free energy   =      -0.00783991 Ry
     correction to one-el term =     130.14070066 Ry

     iteration # 28     ecut=    80.00 Ry     beta= 0.20
     Davidson diagonalization with overlap

---- Real-time Memory Report at c_bands before calling an iterative solver
          1418 MiB given to the printing process from OS
             0 MiB allocation reported by mallinfo(arena+hblkhd)
        205835 MiB available memory on the node where the printing process lives
------------------
     ethr =  1.19E-11,  avg # of iterations = 17.4

     negative rho (up, down):  6.825E-04 0.000E+00

     add environment contribution to local potential

     total cpu time spent up to now is     4323.3 secs

     total energy              =   -1142.89835513 Ry
     estimated scf accuracy    <       0.00000001 Ry

     total charge of GC-SCF    =      -3.23921540 e
     the Fermi energy          =      -2.40368196 eV
                        (error :       0.00031804 eV)
     electrostatic embedding   =      -1.26664218 Ry
     cavitation energy         =       0.04277823 Ry
     electrolyte free energy   =      -0.00783267 Ry
     correction to one-el term =     130.10771156 Ry

     iteration # 29     ecut=    80.00 Ry     beta= 0.20
     Davidson diagonalization with overlap

---- Real-time Memory Report at c_bands before calling an iterative solver
          1418 MiB given to the printing process from OS
             0 MiB allocation reported by mallinfo(arena+hblkhd)
        205966 MiB available memory on the node where the printing process lives
------------------
     ethr =  4.60E-12,  avg # of iterations = 27.2

     negative rho (up, down):  6.810E-04 0.000E+00

     add environment contribution to local potential

     total cpu time spent up to now is     4462.1 secs

     total energy              =   -1142.89835604 Ry
     estimated scf accuracy    <          6.9E-09 Ry

     total charge of GC-SCF    =      -3.23471689 e
     the Fermi energy          =      -2.40395444 eV
                        (error :       0.00004556 eV)
     electrostatic embedding   =      -1.26451750 Ry
     cavitation energy         =       0.04277823 Ry
     electrolyte free energy   =      -0.00781307 Ry
     correction to one-el term =     129.99569924 Ry

     iteration # 30     ecut=    80.00 Ry     beta= 0.20
     Davidson diagonalization with overlap

---- Real-time Memory Report at c_bands before calling an iterative solver
          1418 MiB given to the printing process from OS
             0 MiB allocation reported by mallinfo(arena+hblkhd)
        205745 MiB available memory on the node where the printing process lives
------------------
     ethr =  2.98E-12,  avg # of iterations = 36.5

     negative rho (up, down):  6.797E-04 0.000E+00

     add environment contribution to local potential

     total cpu time spent up to now is     4638.0 secs

     total energy              =   -1142.89835469 Ry
     estimated scf accuracy    <          2.9E-09 Ry

     total charge of GC-SCF    =      -3.23705234 e
     the Fermi energy          =      -2.40423383 eV
                        (error :       0.00023383 eV)
     electrostatic embedding   =      -1.26156844 Ry
     cavitation energy         =       0.04277823 Ry
     electrolyte free energy   =      -0.00778563 Ry
     correction to one-el term =     129.84125384 Ry

     iteration # 31     ecut=    80.00 Ry     beta= 0.20
     Davidson diagonalization with overlap

---- Real-time Memory Report at c_bands before calling an iterative solver
          1418 MiB given to the printing process from OS
             0 MiB allocation reported by mallinfo(arena+hblkhd)
        205764 MiB available memory on the node where the printing process lives
------------------
     ethr =  1.26E-12,  avg # of iterations = 26.5

     negative rho (up, down):  6.786E-04 0.000E+00

     add environment contribution to local potential

     total cpu time spent up to now is     4774.6 secs

     total energy              =   -1142.89835452 Ry
     estimated scf accuracy    <          8.0E-10 Ry

     total charge of GC-SCF    =      -3.23723546 e
     the Fermi energy          =      -2.40404398 eV
                        (error :       0.00004398 eV)
     electrostatic embedding   =      -1.26312599 Ry
     cavitation energy         =       0.04277823 Ry
     electrolyte free energy   =      -0.00780009 Ry
     correction to one-el term =     129.92501202 Ry

     iteration # 32     ecut=    80.00 Ry     beta= 0.20
     Davidson diagonalization with overlap

---- Real-time Memory Report at c_bands before calling an iterative solver
          1418 MiB given to the printing process from OS
             0 MiB allocation reported by mallinfo(arena+hblkhd)
        205882 MiB available memory on the node where the printing process lives
------------------
     ethr =  3.47E-13,  avg # of iterations = 15.5

     negative rho (up, down):  6.778E-04 0.000E+00

     add environment contribution to local potential

     total cpu time spent up to now is     4877.4 secs

     total energy              =   -1142.89835455 Ry
     estimated scf accuracy    <          2.3E-10 Ry

     total charge of GC-SCF    =      -3.23775877 e
     the Fermi energy          =      -2.40402160 eV
                        (error :       0.00002160 eV)
     electrostatic embedding   =      -1.26324526 Ry
     cavitation energy         =       0.04277823 Ry
     electrolyte free energy   =      -0.00780111 Ry
     correction to one-el term =     129.93108050 Ry

     iteration # 33     ecut=    80.00 Ry     beta= 0.20
     Davidson diagonalization with overlap

---- Real-time Memory Report at c_bands before calling an iterative solver
          1418 MiB given to the printing process from OS
             0 MiB allocation reported by mallinfo(arena+hblkhd)
        205947 MiB available memory on the node where the printing process lives
------------------
     ethr =  1.00E-13,  avg # of iterations = 27.7

     negative rho (up, down):  6.771E-04 0.000E+00

     add environment contribution to local potential

     total cpu time spent up to now is     5016.8 secs

     total energy              =   -1142.89835454 Ry
     estimated scf accuracy    <          1.4E-10 Ry

     total charge of GC-SCF    =      -3.23788829 e
     the Fermi energy          =      -2.40398133 eV
                        (error :       0.00001867 eV)
     electrostatic embedding   =      -1.26359031 Ry
     cavitation energy         =       0.04277823 Ry
     electrolyte free energy   =      -0.00780431 Ry
     correction to one-el term =     129.94924973 Ry

     iteration # 34     ecut=    80.00 Ry     beta= 0.20
     Davidson diagonalization with overlap

---- Real-time Memory Report at c_bands before calling an iterative solver
          1418 MiB given to the printing process from OS
             0 MiB allocation reported by mallinfo(arena+hblkhd)
        205830 MiB available memory on the node where the printing process lives
------------------
     ethr =  1.00E-13,  avg # of iterations = 16.0

     negative rho (up, down):  6.766E-04 0.000E+00

     add environment contribution to local potential

     total cpu time spent up to now is     5122.6 secs

     total energy              =   -1142.89835454 Ry
     estimated scf accuracy    <          1.1E-10 Ry

     total charge of GC-SCF    =      -3.23753855 e
     the Fermi energy          =      -2.40397671 eV
                        (error :       0.00002329 eV)
     electrostatic embedding   =      -1.26367552 Ry
     cavitation energy         =       0.04277823 Ry
     electrolyte free energy   =      -0.00780510 Ry
     correction to one-el term =     129.95335409 Ry

     iteration # 35     ecut=    80.00 Ry     beta= 0.20
     Davidson diagonalization with overlap

---- Real-time Memory Report at c_bands before calling an iterative solver
          1418 MiB given to the printing process from OS
             0 MiB allocation reported by mallinfo(arena+hblkhd)
        205969 MiB available memory on the node where the printing process lives
------------------
     ethr =  1.00E-13,  avg # of iterations = 16.0

     negative rho (up, down):  6.762E-04 0.000E+00

     add environment contribution to local potential

     total cpu time spent up to now is     5241.2 secs

     total energy              =   -1142.89835453 Ry
     estimated scf accuracy    <          1.4E-10 Ry

     total charge of GC-SCF    =      -3.23775042 e
     the Fermi energy          =      -2.40398832 eV
                        (error :       0.00001168 eV)
     electrostatic embedding   =      -1.26344632 Ry
     cavitation energy         =       0.04277823 Ry
     electrolyte free energy   =      -0.00780298 Ry
     correction to one-el term =     129.94150904 Ry

     iteration # 36     ecut=    80.00 Ry     beta= 0.20
     Davidson diagonalization with overlap

---- Real-time Memory Report at c_bands before calling an iterative solver
          1418 MiB given to the printing process from OS
             0 MiB allocation reported by mallinfo(arena+hblkhd)
        205745 MiB available memory on the node where the printing process lives
------------------
     ethr =  1.00E-13,  avg # of iterations = 15.3

     negative rho (up, down):  6.759E-04 0.000E+00

     add environment contribution to local potential

     total cpu time spent up to now is     5341.3 secs

     total energy              =   -1142.89835453 Ry
     estimated scf accuracy    <          3.1E-11 Ry

     total charge of GC-SCF    =      -3.23748040 e
     the Fermi energy          =      -2.40398513 eV
                        (error :       0.00001487 eV)
     electrostatic embedding   =      -1.26358761 Ry
     cavitation energy         =       0.04277823 Ry
     electrolyte free energy   =      -0.00780429 Ry
     correction to one-el term =     129.94864111 Ry

     iteration # 37     ecut=    80.00 Ry     beta= 0.20
     Davidson diagonalization with overlap

---- Real-time Memory Report at c_bands before calling an iterative solver
          1418 MiB given to the printing process from OS
             0 MiB allocation reported by mallinfo(arena+hblkhd)
        205887 MiB available memory on the node where the printing process lives
------------------
     ethr =  1.00E-13,  avg # of iterations = 16.0

     negative rho (up, down):  6.756E-04 0.000E+00

     add environment contribution to local potential

     total cpu time spent up to now is     5452.2 secs

     total energy              =   -1142.89835452 Ry
     estimated scf accuracy    <          1.2E-11 Ry

     total charge of GC-SCF    =      -3.23741468 e
     the Fermi energy          =      -2.40400468 eV
                        (error :       0.00000468 eV)
     electrostatic embedding   =      -1.26341211 Ry
     cavitation energy         =       0.04277823 Ry
     electrolyte free energy   =      -0.00780268 Ry
     correction to one-el term =     129.93934588 Ry

     iteration # 38     ecut=    80.00 Ry     beta= 0.20
     Davidson diagonalization with overlap

---- Real-time Memory Report at c_bands before calling an iterative solver
          1418 MiB given to the printing process from OS
             0 MiB allocation reported by mallinfo(arena+hblkhd)
        205911 MiB available memory on the node where the printing process lives
------------------
     ethr =  1.00E-13,  avg # of iterations = 15.1

     negative rho (up, down):  6.754E-04 0.000E+00

     add environment contribution to local potential

     total cpu time spent up to now is     5537.4 secs

     total energy              =   -1142.89835452 Ry
     estimated scf accuracy    <          4.9E-12 Ry

     total charge of GC-SCF    =      -3.23745659 e
     the Fermi energy          =      -2.40401018 eV
                        (error :       0.00001018 eV)
     electrostatic embedding   =      -1.26337092 Ry
     cavitation energy         =       0.04277823 Ry
     electrolyte free energy   =      -0.00780229 Ry
     correction to one-el term =     129.93714699 Ry

     iteration # 39     ecut=    80.00 Ry     beta= 0.20
     Davidson diagonalization with overlap

---- Real-time Memory Report at c_bands before calling an iterative solver
          1418 MiB given to the printing process from OS
             0 MiB allocation reported by mallinfo(arena+hblkhd)
        205875 MiB available memory on the node where the printing process lives
------------------
     ethr =  1.00E-13,  avg # of iterations = 13.2

     negative rho (up, down):  6.752E-04 0.000E+00

     add environment contribution to local potential

     total cpu time spent up to now is     5606.6 secs

     total energy              =   -1142.89835452 Ry
     estimated scf accuracy    <          1.2E-12 Ry

     total charge of GC-SCF    =      -3.23751661 e
     the Fermi energy          =      -2.40400745 eV
                        (error :       0.00000745 eV)
     electrostatic embedding   =      -1.26339999 Ry
     cavitation energy         =       0.04277823 Ry
     electrolyte free energy   =      -0.00780256 Ry
     correction to one-el term =     129.93869398 Ry

     iteration # 40     ecut=    80.00 Ry     beta= 0.20
     Davidson diagonalization with overlap

---- Real-time Memory Report at c_bands before calling an iterative solver
          1418 MiB given to the printing process from OS
             0 MiB allocation reported by mallinfo(arena+hblkhd)
        205863 MiB available memory on the node where the printing process lives
------------------
     ethr =  1.00E-13,  avg # of iterations = 12.0

     negative rho (up, down):  6.751E-04 0.000E+00

     add environment contribution to local potential

     total cpu time spent up to now is     5678.8 secs

     total energy              =   -1142.89835452 Ry
     estimated scf accuracy    <          5.0E-13 Ry

     total charge of GC-SCF    =      -3.23754640 e
     the Fermi energy          =      -2.40400270 eV
                        (error :       0.00000270 eV)
     electrostatic embedding   =      -1.26343967 Ry
     cavitation energy         =       0.04277823 Ry
     electrolyte free energy   =      -0.00780292 Ry
     correction to one-el term =     129.94080477 Ry

     iteration # 41     ecut=    80.00 Ry     beta= 0.20
     Davidson diagonalization with overlap

---- Real-time Memory Report at c_bands before calling an iterative solver
          1418 MiB given to the printing process from OS
             0 MiB allocation reported by mallinfo(arena+hblkhd)
        205828 MiB available memory on the node where the printing process lives
------------------
     ethr =  1.00E-13,  avg # of iterations = 11.3

     negative rho (up, down):  6.750E-04 0.000E+00

     add environment contribution to local potential

     total cpu time spent up to now is     5741.0 secs

     total energy              =   -1142.89835452 Ry
     estimated scf accuracy    <          1.9E-13 Ry

     total charge of GC-SCF    =      -3.23753982 e
     the Fermi energy          =      -2.40400015 eV
                        (error :       0.00000015 eV)
     electrostatic embedding   =      -1.26345931 Ry
     cavitation energy         =       0.04277823 Ry
     electrolyte free energy   =      -0.00780311 Ry
     correction to one-el term =     129.94187059 Ry

     iteration # 42     ecut=    80.00 Ry     beta= 0.20
     Davidson diagonalization with overlap

---- Real-time Memory Report at c_bands before calling an iterative solver
          1418 MiB given to the printing process from OS
             0 MiB allocation reported by mallinfo(arena+hblkhd)
        205800 MiB available memory on the node where the printing process lives
------------------
     ethr =  1.00E-13,  avg # of iterations = 10.9

     negative rho (up, down):  6.749E-04 0.000E+00

     add environment contribution to local potential

     total cpu time spent up to now is     5800.9 secs

     total energy              =   -1142.89835452 Ry
     estimated scf accuracy    <          6.5E-14 Ry

     total charge of GC-SCF    =      -3.23754025 e
     the Fermi energy          =      -2.40400009 eV
                        (error :       0.00000009 eV)
     electrostatic embedding   =      -1.26345509 Ry
     cavitation energy         =       0.04277823 Ry
     electrolyte free energy   =      -0.00780307 Ry
     correction to one-el term =     129.94167472 Ry

     iteration # 43     ecut=    80.00 Ry     beta= 0.20
     Davidson diagonalization with overlap

---- Real-time Memory Report at c_bands before calling an iterative solver
          1418 MiB given to the printing process from OS
             0 MiB allocation reported by mallinfo(arena+hblkhd)
        205760 MiB available memory on the node where the printing process lives
------------------
     ethr =  1.00E-13,  avg # of iterations = 10.6

     negative rho (up, down):  6.748E-04 0.000E+00

     add environment contribution to local potential

     total cpu time spent up to now is     5859.6 secs

     total energy              =   -1142.89835452 Ry
     estimated scf accuracy    <          4.1E-14 Ry

     total charge of GC-SCF    =      -3.23754000 e
     the Fermi energy          =      -2.40400012 eV
                        (error :       0.00000012 eV)
     electrostatic embedding   =      -1.26345535 Ry
     cavitation energy         =       0.04277823 Ry
     electrolyte free energy   =      -0.00780307 Ry
     correction to one-el term =     129.94169161 Ry

     iteration # 44     ecut=    80.00 Ry     beta= 0.20
     Davidson diagonalization with overlap

---- Real-time Memory Report at c_bands before calling an iterative solver
          1418 MiB given to the printing process from OS
             0 MiB allocation reported by mallinfo(arena+hblkhd)
        205806 MiB available memory on the node where the printing process lives
------------------
     ethr =  1.00E-13,  avg # of iterations =  9.5

     negative rho (up, down):  6.748E-04 0.000E+00

     add environment contribution to local potential

     total cpu time spent up to now is     5915.6 secs

     total energy              =   -1142.89835452 Ry
     estimated scf accuracy    <          2.2E-14 Ry

     total charge of GC-SCF    =      -3.23754049 e
     the Fermi energy          =      -2.40400023 eV
                        (error :       0.00000023 eV)
     electrostatic embedding   =      -1.26345507 Ry
     cavitation energy         =       0.04277823 Ry
     electrolyte free energy   =      -0.00780307 Ry
     correction to one-el term =     129.94167542 Ry

     iteration # 45     ecut=    80.00 Ry     beta= 0.20
     Davidson diagonalization with overlap

---- Real-time Memory Report at c_bands before calling an iterative solver
          1418 MiB given to the printing process from OS
             0 MiB allocation reported by mallinfo(arena+hblkhd)
        205761 MiB available memory on the node where the printing process lives
------------------
     ethr =  1.00E-13,  avg # of iterations =  9.4

     negative rho (up, down):  6.747E-04 0.000E+00

     add environment contribution to local potential

     total cpu time spent up to now is     5971.9 secs

     total energy              =   -1142.89835452 Ry
     estimated scf accuracy    <          1.4E-14 Ry

     total charge of GC-SCF    =      -3.23754291 e
     the Fermi energy          =      -2.40400021 eV
                        (error :       0.00000021 eV)
     electrostatic embedding   =      -1.26345533 Ry
     cavitation energy         =       0.04277823 Ry
     electrolyte free energy   =      -0.00780307 Ry
     correction to one-el term =     129.94168766 Ry

     iteration # 46     ecut=    80.00 Ry     beta= 0.20
     Davidson diagonalization with overlap

---- Real-time Memory Report at c_bands before calling an iterative solver
          1418 MiB given to the printing process from OS
             0 MiB allocation reported by mallinfo(arena+hblkhd)
        205763 MiB available memory on the node where the printing process lives
------------------
     ethr =  1.00E-13,  avg # of iterations =  7.0

     negative rho (up, down):  6.745E-04 0.000E+00

     total cpu time spent up to now is     6010.5 secs

     End of self-consistent calculation

          k = 0.0000 0.0000 0.0000 (457757 PWs)   bands (ev):

   -49.7928 -49.7928 -49.7886 -49.7885 -49.3882 -49.3881 -49.3777 -49.3776
   -49.2845 -49.2843 -49.2625 -49.2623 -49.2615 -49.2615 -49.2453 -49.2453
   -49.1260 -49.1258 -49.1201 -49.1199 -49.0065 -49.0063 -48.9932 -48.9930
   -48.9416 -48.9375 -48.9373 -48.9373 -48.9346 -48.9344 -48.9309 -48.9306
   -48.9303 -48.9302 -48.9288 -48.9265 -48.9263 -48.9253 -48.9231 -48.9213
   -48.9207 -48.9190 -48.9182 -48.9159 -48.9152 -48.9140 -48.9137 -48.9129
   -48.9126 -48.9118 -48.9117 -48.9112 -48.9107 -48.9102 -48.9095 -48.9087
   -48.9086 -48.9070 -48.9047 -48.9044 -48.9042 -48.9042 -48.9036 -48.9019
   -48.9017 -48.8998 -48.8986 -48.8983 -48.8976 -48.8950 -48.8875 -48.8868
   -48.8756 -48.8747 -48.8648 -48.8640  -5.8993  -5.6245  -5.1597  -4.8972
    -4.8944  -4.6500  -4.6486  -4.6178  -4.6146  -4.5347  -4.3656  -4.3652
    -4.1515  -4.1491  -4.1441  -4.1168  -3.9207  -3.9053  -3.8414  -3.8325
    -3.8249  -3.4995  -3.4584  -3.4305  -3.4048  -3.2251  -3.2100  -3.1557
    -3.1515  -3.1059  -2.9356  -2.9213  -2.7950  -2.7663  -2.7548  -2.7188
    -2.5429  -2.5004  -2.4402  -2.4219  -2.2884  -2.2026  -2.1399  -2.1219
    -2.0897  -2.0487  -1.9839  -1.9469  -1.8817  -1.8124  -1.8022  -1.7415
    -1.7285  -1.7228  -1.6812  -1.6653  -1.6500  -1.5574  -1.5569  -1.5322
    -1.5308  -1.3978  -1.3709  -1.1503  -1.1250  -1.0977  -1.0599  -0.9892
    -0.8625  -0.7892  -0.7655  -0.7596  -0.7296  -0.5880  -0.5659  -0.4029
    -0.3897  -0.3374  -0.3220  -0.2189  -0.1294  -0.0180   0.0141   0.0773
     0.0782   0.0999   0.1397   0.1908   0.2481   0.2986   0.3093   0.4237
     0.4386   0.6075   0.6077

     occupation numbers 
     1.0000   1.0000   1.0000   1.0000   1.0000   1.0000   1.0000   1.0000
     1.0000   1.0000   1.0000   1.0000   1.0000   1.0000   1.0000   1.0000
     1.0000   1.0000   1.0000   1.0000   1.0000   1.0000   1.0000   1.0000
     1.0000   1.0000   1.0000   1.0000   1.0000   1.0000   1.0000   1.0000
     1.0000   1.0000   1.0000   1.0000   1.0000   1.0000   1.0000   1.0000
     1.0000   1.0000   1.0000   1.0000   1.0000   1.0000   1.0000   1.0000
     1.0000   1.0000   1.0000   1.0000   1.0000   1.0000   1.0000   1.0000
     1.0000   1.0000   1.0000   1.0000   1.0000   1.0000   1.0000   1.0000
     1.0000   1.0000   1.0000   1.0000   1.0000   1.0000   1.0000   1.0000
     1.0000   1.0000   1.0000   1.0000   1.0000   1.0000   1.0000   1.0000
     1.0000   1.0000   1.0000   1.0000   1.0000   1.0000   1.0000   1.0000
     1.0000   1.0000   1.0000   1.0000   1.0000   1.0000   1.0000   1.0000
     1.0000   1.0000   1.0000   1.0000   1.0000   1.0000   1.0000   1.0000
     1.0000   1.0000   1.0000   1.0000   1.0026   1.0059   1.0080   1.0186
     1.0330   0.8998   0.5947   0.4942   0.0492   0.0043   0.0005   0.0002
     0.0001   0.0000   0.0000   0.0000   0.0000   0.0000   0.0000   0.0000
     0.0000   0.0000   0.0000   0.0000   0.0000   0.0000   0.0000   0.0000
     0.0000   0.0000   0.0000   0.0000   0.0000   0.0000   0.0000   0.0000
     0.0000   0.0000   0.0000   0.0000   0.0000   0.0000   0.0000   0.0000
     0.0000   0.0000   0.0000   0.0000   0.0000   0.0000   0.0000   0.0000
     0.0000   0.0000   0.0000   0.0000   0.0000   0.0000   0.0000   0.0000
     0.0000   0.0000   0.0000

          k = 0.0000 0.1529 0.0000 (457632 PWs)   bands (ev):

   -49.7928 -49.7928 -49.7886 -49.7885 -49.3882 -49.3881 -49.3777 -49.3776
   -49.2845 -49.2843 -49.2625 -49.2623 -49.2615 -49.2615 -49.2453 -49.2453
   -49.1260 -49.1258 -49.1201 -49.1199 -49.0065 -49.0063 -48.9932 -48.9930
   -48.9416 -48.9375 -48.9373 -48.9373 -48.9346 -48.9345 -48.9309 -48.9306
   -48.9302 -48.9302 -48.9288 -48.9267 -48.9263 -48.9253 -48.9232 -48.9213
   -48.9205 -48.9190 -48.9182 -48.9159 -48.9152 -48.9140 -48.9137 -48.9129
   -48.9126 -48.9118 -48.9117 -48.9112 -48.9107 -48.9102 -48.9095 -48.9087
   -48.9086 -48.9069 -48.9047 -48.9044 -48.9042 -48.9042 -48.9037 -48.9019
   -48.9016 -48.8998 -48.8986 -48.8983 -48.8976 -48.8950 -48.8875 -48.8868
   -48.8756 -48.8747 -48.8648 -48.8640  -5.8716  -5.5969  -5.2031  -5.1344
    -4.9198  -4.7050  -4.5588  -4.5382  -4.5090  -4.4202  -4.4079  -4.3714
    -4.2557  -4.2519  -4.0936  -3.9366  -3.8764  -3.8583  -3.7680  -3.7646
    -3.7269  -3.6174  -3.5943  -3.5524  -3.3015  -3.2799  -3.1323  -3.1208
    -3.1035  -3.1007  -3.0189  -2.9574  -2.8343  -2.7652  -2.5939  -2.5508
    -2.4977  -2.4581  -2.3883  -2.3648  -2.3601  -2.3502  -2.2947  -2.2680
    -2.2264  -2.2117  -2.2023  -2.1431  -1.9505  -1.9157  -1.8669  -1.7952
    -1.7935  -1.7076  -1.6915  -1.6056  -1.5943  -1.5668  -1.5313  -1.4750
    -1.3054  -1.1875  -1.1454  -1.1355  -1.1019  -1.0772  -0.9467  -0.9451
    -0.8592  -0.8578  -0.7728  -0.6585  -0.5772  -0.5313  -0.4921  -0.4420
    -0.3844  -0.2900  -0.2700  -0.2374  -0.1302  -0.0852  -0.0810  -0.0167
     0.1202   0.1723   0.2202   0.2891   0.2925   0.3271   0.3566   0.4119
     0.4573   0.4731   0.4819

     occupation numbers 
     1.0000   1.0000   1.0000   1.0000   1.0000   1.0000   1.0000   1.0000
     1.0000   1.0000   1.0000   1.0000   1.0000   1.0000   1.0000   1.0000
     1.0000   1.0000   1.0000   1.0000   1.0000   1.0000   1.0000   1.0000
[...]
     atom   18 type  1   force =     0.00000000    0.00000000    0.00000000
     atom   19 type  1   force =     0.00000000    0.00000000    0.00000000
     atom   20 type  1   force =     0.00000000    0.00000000    0.00000000
     atom   21 type  1   force =     0.00000000    0.00000000    0.00000000
     atom   22 type  1   force =     0.00000000    0.00000000    0.00000000
     atom   23 type  1   force =     0.00000000    0.00000000    0.00000000
     atom   24 type  1   force =     0.00000000    0.00000000    0.00000000
     atom   25 type  1   force =     0.00000000    0.00000000    0.00000000
     atom   26 type  1   force =     0.00000000    0.00000000    0.00000000
     atom   27 type  1   force =     0.00000000    0.00000000    0.00000000
     atom   28 type  1   force =     0.00000000    0.00000000    0.00000000
     atom   29 type  1   force =     0.00000000    0.00000000    0.00000000
     atom   30 type  1   force =     0.00000000    0.00000000    0.00000000
     atom   31 type  1   force =     0.00000000    0.00000000    0.00000000
     atom   32 type  1   force =     0.00000000    0.00000000    0.00000000
     atom   33 type  1   force =     0.00000000    0.00000000    0.00000000
     atom   34 type  1   force =     0.00000000    0.00000000    0.00000000
     atom   35 type  1   force =     0.00000000    0.00000000    0.00000000
     atom   36 type  1   force =     0.00000000    0.00000000    0.00000000
     atom   37 type  1   force =     0.00000000    0.00000000    0.00000000
     atom   38 type  1   force =     0.00000000    0.00000000    0.00000000
     atom   39 type  1   force =     0.00000000    0.00000000    0.00000000
     atom   40 type  1   force =     0.00000000    0.00000000    0.00000000
     atom   41 type  1   force =     0.00000000    0.00000000    0.00000000
     atom   42 type  1   force =     0.00000000    0.00000000    0.00000000
     atom   43 type  1   force =     0.00000000    0.00000000    0.00000000
     atom   44 type  1   force =     0.00000000    0.00000000    0.00000000
     atom   45 type  1   force =     0.00000000    0.00000000    0.00000000
     atom   46 type  1   force =     0.00000000    0.00000000    0.00000000
     atom   47 type  1   force =     0.00000000    0.00000000    0.00000000
     atom   48 type  1   force =     0.00000000    0.00000000    0.00000000
     atom   49 type  1   force =     0.00000000    0.00000000    0.00000000
     atom   50 type  1   force =     0.00000000    0.00000000    0.00000000
     atom   51 type  1   force =     0.00000000    0.00000000    0.00000000
     atom   52 type  1   force =     0.00000000    0.00000000    0.00000000
     atom   53 type  1   force =     0.00000000    0.00000000    0.00000000
     atom   54 type  1   force =     0.00000000    0.00000000    0.00000000
     atom   55 type  1   force =     0.00000000    0.00000000    0.00000000
     atom   56 type  1   force =     0.00000000    0.00000000    0.00000000
     atom   57 type  1   force =     0.00000000    0.00000000    0.00000000
     atom   58 type  1   force =     0.00000000    0.00000000    0.00000000
     atom   59 type  1   force =     0.00000000    0.00000000    0.00000000
     atom   60 type  1   force =     0.00000000    0.00000000    0.00000000
     atom   61 type  1   force =     0.00000000    0.00000000    0.00000000
     atom   62 type  1   force =     0.00000000    0.00000000    0.00000000
     atom   63 type  1   force =     0.00000000    0.00000000    0.00000000
     atom   64 type  1   force =     0.00000000    0.00000000    0.00000000
     atom   65 type  1   force =     0.00000000    0.00000000    0.00000000
     atom   66 type  1   force =     0.00000000    0.00000000    0.00000000
     atom   67 type  1   force =     0.00000000    0.00000000    0.00000000
     atom   68 type  1   force =     0.00000000    0.00000000    0.00000000
     atom   69 type  1   force =     0.00000000    0.00000000    0.00000000
     atom   70 type  1   force =     0.00000000    0.00000000    0.00000000
     atom   71 type  1   force =     0.00000000    0.00000000    0.00000000
     atom   72 type  1   force =     0.00000000    0.00000000    0.00000000
     atom   73 type  1   force =     0.00000000    0.00000000    0.00000000
     atom   74 type  1   force =     0.00000000    0.00000000    0.00000000
     atom   75 type  1   force =     0.00000000    0.00000000    0.00000000
     atom   76 type  1   force =     0.00000000    0.00000000    0.00000000
     The Hubbard contrib.    to forces
     atom    1 type  1   force =     0.00000000    0.00000000    0.00000000
     atom    2 type  1   force =     0.00000000    0.00000000    0.00000000
     atom    3 type  1   force =     0.00000000    0.00000000    0.00000000
     atom    4 type  1   force =     0.00000000    0.00000000    0.00000000
     atom    5 type  1   force =     0.00000000    0.00000000    0.00000000
     atom    6 type  1   force =     0.00000000    0.00000000    0.00000000
     atom    7 type  1   force =     0.00000000    0.00000000    0.00000000
     atom    8 type  1   force =     0.00000000    0.00000000    0.00000000
     atom    9 type  1   force =     0.00000000    0.00000000    0.00000000
     atom   10 type  1   force =     0.00000000    0.00000000    0.00000000
     atom   11 type  1   force =     0.00000000    0.00000000    0.00000000
     atom   12 type  1   force =     0.00000000    0.00000000    0.00000000
     atom   13 type  1   force =     0.00000000    0.00000000    0.00000000
     atom   14 type  1   force =     0.00000000    0.00000000    0.00000000
     atom   15 type  1   force =     0.00000000    0.00000000    0.00000000
     atom   16 type  1   force =     0.00000000    0.00000000    0.00000000
     atom   17 type  1   force =     0.00000000    0.00000000    0.00000000
     atom   18 type  1   force =     0.00000000    0.00000000    0.00000000
     atom   19 type  1   force =     0.00000000    0.00000000    0.00000000
     atom   20 type  1   force =     0.00000000    0.00000000    0.00000000
     atom   21 type  1   force =     0.00000000    0.00000000    0.00000000
     atom   22 type  1   force =     0.00000000    0.00000000    0.00000000
     atom   23 type  1   force =     0.00000000    0.00000000    0.00000000
     atom   24 type  1   force =     0.00000000    0.00000000    0.00000000
     atom   25 type  1   force =     0.00000000    0.00000000    0.00000000
     atom   26 type  1   force =     0.00000000    0.00000000    0.00000000
     atom   27 type  1   force =     0.00000000    0.00000000    0.00000000
     atom   28 type  1   force =     0.00000000    0.00000000    0.00000000
     atom   29 type  1   force =     0.00000000    0.00000000    0.00000000
     atom   30 type  1   force =     0.00000000    0.00000000    0.00000000
     atom   31 type  1   force =     0.00000000    0.00000000    0.00000000
     atom   32 type  1   force =     0.00000000    0.00000000    0.00000000
     atom   33 type  1   force =     0.00000000    0.00000000    0.00000000
     atom   34 type  1   force =     0.00000000    0.00000000    0.00000000
     atom   35 type  1   force =     0.00000000    0.00000000    0.00000000
     atom   36 type  1   force =     0.00000000    0.00000000    0.00000000
     atom   37 type  1   force =     0.00000000    0.00000000    0.00000000
     atom   38 type  1   force =     0.00000000    0.00000000    0.00000000
     atom   39 type  1   force =     0.00000000    0.00000000    0.00000000
     atom   40 type  1   force =     0.00000000    0.00000000    0.00000000
     atom   41 type  1   force =     0.00000000    0.00000000    0.00000000
     atom   42 type  1   force =     0.00000000    0.00000000    0.00000000
     atom   43 type  1   force =     0.00000000    0.00000000    0.00000000
     atom   44 type  1   force =     0.00000000    0.00000000    0.00000000
     atom   45 type  1   force =     0.00000000    0.00000000    0.00000000
     atom   46 type  1   force =     0.00000000    0.00000000    0.00000000
     atom   47 type  1   force =     0.00000000    0.00000000    0.00000000
     atom   48 type  1   force =     0.00000000    0.00000000    0.00000000
     atom   49 type  1   force =     0.00000000    0.00000000    0.00000000
     atom   50 type  1   force =     0.00000000    0.00000000    0.00000000
     atom   51 type  1   force =     0.00000000    0.00000000    0.00000000
     atom   52 type  1   force =     0.00000000    0.00000000    0.00000000
     atom   53 type  1   force =     0.00000000    0.00000000    0.00000000
     atom   54 type  1   force =     0.00000000    0.00000000    0.00000000
     atom   55 type  1   force =     0.00000000    0.00000000    0.00000000
     atom   56 type  1   force =     0.00000000    0.00000000    0.00000000
     atom   57 type  1   force =     0.00000000    0.00000000    0.00000000
     atom   58 type  1   force =     0.00000000    0.00000000    0.00000000
     atom   59 type  1   force =     0.00000000    0.00000000    0.00000000
     atom   60 type  1   force =     0.00000000    0.00000000    0.00000000
     atom   61 type  1   force =     0.00000000    0.00000000    0.00000000
     atom   62 type  1   force =     0.00000000    0.00000000    0.00000000
     atom   63 type  1   force =     0.00000000    0.00000000    0.00000000
     atom   64 type  1   force =     0.00000000    0.00000000    0.00000000
     atom   65 type  1   force =     0.00000000    0.00000000    0.00000000
     atom   66 type  1   force =     0.00000000    0.00000000    0.00000000
     atom   67 type  1   force =     0.00000000    0.00000000    0.00000000
     atom   68 type  1   force =     0.00000000    0.00000000    0.00000000
     atom   69 type  1   force =     0.00000000    0.00000000    0.00000000
     atom   70 type  1   force =     0.00000000    0.00000000    0.00000000
     atom   71 type  1   force =     0.00000000    0.00000000    0.00000000
     atom   72 type  1   force =     0.00000000    0.00000000    0.00000000
     atom   73 type  1   force =     0.00000000    0.00000000    0.00000000
     atom   74 type  1   force =     0.00000000    0.00000000    0.00000000
     atom   75 type  1   force =     0.00000000    0.00000000    0.00000000
     atom   76 type  1   force =     0.00000000    0.00000000    0.00000000
     The SCF correction term to forces
     atom    1 type  1   force =    -0.00000002    0.00000001   -0.00000008
     atom    2 type  1   force =     0.00000000    0.00000001    0.00000006
     atom    3 type  1   force =    -0.00000000   -0.00000002    0.00000000
     atom    4 type  1   force =    -0.00000000    0.00000000    0.00000001
     atom    5 type  1   force =     0.00000000    0.00000002   -0.00000001
     atom    6 type  1   force =    -0.00000000   -0.00000002   -0.00000002
     atom    7 type  1   force =     0.00000000   -0.00000000   -0.00000000
     atom    8 type  1   force =     0.00000000    0.00000003    0.00000001
     atom    9 type  1   force =     0.00000001   -0.00000001    0.00000002
     atom   10 type  1   force =     0.00000000   -0.00000002    0.00000003
     atom   11 type  1   force =    -0.00000000    0.00000002    0.00000004
     atom   12 type  1   force =    -0.00000000   -0.00000001    0.00000005
     atom   13 type  1   force =    -0.00000000   -0.00000002    0.00000004
     atom   14 type  1   force =    -0.00000000    0.00000001    0.00000005
     atom   15 type  1   force =     0.00000000    0.00000000    0.00000006
     atom   16 type  1   force =    -0.00000000   -0.00000002    0.00000005
     atom   17 type  1   force =    -0.00000000    0.00000000    0.00000005
     atom   18 type  1   force =     0.00000000    0.00000001    0.00000001
     atom   19 type  1   force =     0.00000000   -0.00000002    0.00000001
     atom   20 type  1   force =     0.00000000    0.00000002   -0.00000000
     atom   21 type  1   force =     0.00000000    0.00000000   -0.00000002
     atom   22 type  1   force =    -0.00000000   -0.00000002   -0.00000001
     atom   23 type  1   force =     0.00000000    0.00000002    0.00000000
     atom   24 type  1   force =     0.00000000    0.00000001    0.00000002
     atom   25 type  1   force =     0.00000000   -0.00000003    0.00000003
     atom   26 type  1   force =     0.00000000    0.00000001    0.00000004
     atom   27 type  1   force =    -0.00000000    0.00000002    0.00000004
     atom   28 type  1   force =    -0.00000000   -0.00000002    0.00000004
     atom   29 type  1   force =    -0.00000000   -0.00000001    0.00000004
     atom   30 type  1   force =     0.00000000    0.00000002    0.00000005
     atom   31 type  1   force =     0.00000000   -0.00000001    0.00000005
     atom   32 type  1   force =     0.00000000   -0.00000000    0.00000005
     atom   33 type  1   force =    -0.00000000    0.00000001    0.00000004
     atom   34 type  1   force =     0.00000000   -0.00000000    0.00000002
     atom   35 type  1   force =     0.00000000   -0.00000001    0.00000001
     atom   36 type  1   force =    -0.00000002    0.00000003   -0.00000001
     atom   37 type  1   force =     0.00000000   -0.00000000    0.00000002
     atom   38 type  1   force =     0.00000000   -0.00000002    0.00000001
     atom   39 type  1   force =     0.00000001    0.00000000   -0.00000002
     atom   40 type  1   force =    -0.00000000    0.00000001    0.00000002
     atom   41 type  1   force =    -0.00000000   -0.00000002    0.00000002
     atom   42 type  1   force =     0.00000000    0.00000001    0.00000000
     atom   43 type  1   force =    -0.00000000    0.00000002   -0.00000002
     atom   44 type  1   force =     0.00000000   -0.00000002   -0.00000001
     atom   45 type  1   force =    -0.00000000   -0.00000000    0.00000001
     atom   46 type  1   force =     0.00000000    0.00000003    0.00000001
     atom   47 type  1   force =     0.00000000   -0.00000002    0.00000002
     atom   48 type  1   force =    -0.00000000   -0.00000002    0.00000003
     atom   49 type  1   force =    -0.00000000    0.00000003    0.00000004
     atom   50 type  1   force =    -0.00000000   -0.00000001    0.00000005
     atom   51 type  1   force =    -0.00000000   -0.00000002    0.00000004
     atom   52 type  1   force =     0.00000000    0.00000001    0.00000005
     atom   53 type  1   force =     0.00000000    0.00000000    0.00000005
     atom   54 type  1   force =     0.00000000   -0.00000002    0.00000004
     atom   55 type  1   force =     0.00000000    0.00000001    0.00000004
     atom   56 type  1   force =    -0.00000000    0.00000001    0.00000002
     atom   57 type  1   force =    -0.00000000   -0.00000001    0.00000001
     atom   58 type  1   force =    -0.00000000    0.00000002   -0.00000001
     atom   59 type  1   force =     0.00000000   -0.00000000   -0.00000002
     atom   60 type  1   force =    -0.00000000   -0.00000003   -0.00000000
     atom   61 type  1   force =     0.00000000    0.00000002    0.00000001
     atom   62 type  1   force =    -0.00000000    0.00000001    0.00000002
     atom   63 type  1   force =     0.00000000   -0.00000003    0.00000002
     atom   64 type  1   force =    -0.00000000    0.00000001    0.00000003
     atom   65 type  1   force =    -0.00000000    0.00000002    0.00000004
     atom   66 type  1   force =     0.00000000   -0.00000003    0.00000004
     atom   67 type  1   force =     0.00000000   -0.00000000    0.00000004
     atom   68 type  1   force =    -0.00000000    0.00000002    0.00000006
     atom   69 type  1   force =    -0.00000000   -0.00000000    0.00000005
     atom   70 type  1   force =    -0.00000000   -0.00000000    0.00000004
     atom   71 type  1   force =     0.00000000    0.00000001    0.00000004
     atom   72 type  1   force =     0.00000000   -0.00000000    0.00000003
     atom   73 type  1   force =    -0.00000001   -0.00000001    0.00000003
     atom   74 type  1   force =     0.00000001    0.00000003   -0.00000003
     atom   75 type  1   force =    -0.00000000   -0.00000000    0.00000003
     atom   76 type  1   force =     0.00000000   -0.00000002    0.00000001

     Total force =     0.003104     Total SCF correction =     0.000000

     Writing all to output data dir ./Li/Lithium.save/ :
     XML data file
     init_run     :     39.36s CPU     51.31s WALL (       1 calls)
     electrons    :   4615.53s CPU   5958.90s WALL (       1 calls)
     forces       :    155.00s CPU    163.65s WALL (       1 calls)

     Called by init_run:
     wfcinit      :      7.78s CPU     10.62s WALL (       1 calls)
     wfcinit:wfcr :      7.16s CPU      9.99s WALL (      11 calls)
     potinit      :      1.21s CPU      1.30s WALL (       1 calls)
     hinit0       :     13.63s CPU     22.18s WALL (       1 calls)

     Called by electrons:
     c_bands      :   3947.38s CPU   5141.03s WALL (      46 calls)
     sum_band     :    162.08s CPU    227.05s WALL (      46 calls)
     v_of_rho     :      7.13s CPU      8.26s WALL (      47 calls)
     v_h          :      0.57s CPU      0.68s WALL (      47 calls)
     v_xc         :      6.55s CPU      7.57s WALL (      47 calls)
     newd         :      3.08s CPU      4.37s WALL (      47 calls)
     PAW_pot      :      0.54s CPU      0.68s WALL (      47 calls)
     mix_rho      :     21.65s CPU     25.13s WALL (      46 calls)

     Called by c_bands:
     init_us_2    :     31.85s CPU     32.00s WALL (    1034 calls)
     cegterg      :   3760.26s CPU   4685.78s WALL (     887 calls)

     Called by sum_band:
     sum_band:wei :      0.13s CPU      0.14s WALL (      46 calls)
     sum_band:loo :    157.17s CPU    219.67s WALL (      46 calls)
     sum_band:buf :      3.52s CPU      3.56s WALL (     506 calls)
     sum_band:ini :     15.60s CPU     15.66s WALL (     506 calls)
     sum_band:cal :     32.76s CPU     34.85s WALL (     506 calls)
     sum_band:bec :      0.27s CPU      0.33s WALL (     506 calls)
     addusdens    :      3.65s CPU      5.18s WALL (      46 calls)
                                        0.00s GPU  (      46 calls)
     addusd:skk   :      0.40s CPU      1.59s WALL (      46 calls)
                                        0.00s GPU  (      46 calls)

     Called by *egterg:
     cdiaghg      :   1014.40s CPU   1161.36s WALL (   14031 calls)
     cegterg:over :    310.67s CPU    332.23s WALL (   13214 calls)
     cegterg:upda :    259.00s CPU    270.71s WALL (   13214 calls)
     cegterg:last :    107.74s CPU    115.09s WALL (    1155 calls)
     cdiaghg:chol :     50.10s CPU     94.86s WALL (   14031 calls)
     cdiaghg:inve :     22.80s CPU     24.93s WALL (   14031 calls)
     cdiaghg:para :    288.39s CPU    337.21s WALL (   28062 calls)
     h_psi        :   1766.27s CPU   2490.36s WALL (   14112 calls)
     s_psi        :    250.77s CPU    252.51s WALL (   14112 calls)
     g_psi        :      4.61s CPU      4.85s WALL (   13214 calls)

     Called by h_psi:
     h_psi:calbec :    283.13s CPU    306.37s WALL (   14112 calls)
     vloc_psi     :   1220.41s CPU   1910.92s WALL (   14112 calls)
                                        0.00s GPU  (   14112 calls)
     add_vuspsi   :    252.35s CPU    253.68s WALL (   14112 calls)

     General routines
     calbec       :    318.38s CPU    343.89s WALL (   14662 calls)
     fft          :      9.11s CPU     17.81s WALL (     611 calls)
     ffts         :     10.95s CPU     13.14s WALL (    5628 calls)
     fftw         :   1276.72s CPU   2002.59s WALL ( 1099190 calls)
     interpolate  :      1.52s CPU      1.64s WALL (      47 calls)

     Parallel routines

     PAW routines
     PAW_pot      :      0.54s CPU      0.68s WALL (      47 calls)

     Environ routines

     PWSCF        :      1h20m CPU      1h42m WALL


   This run was terminated on:  11:25:30   6Jan2025            

=------------------------------------------------------------------------------=
   JOB DONE.
=------------------------------------------------------------------------------=
