
     Program PWSCF v.7.4 starts on  5Jan2025 at 20:37:51 

     This program is part of the open-source Quantum ESPRESSO suite
     for quantum simulation of materials; please cite
         "P. Giannozzi et al., J. Phys.:Condens. Matter 21 395502 (2009);
         "P. Giannozzi et al., J. Phys.:Condens. Matter 29 465901 (2017);
         "P. Giannozzi et al., J. Chem. Phys. 152 154105 (2020);
          URL http://www.quantum-espresso.org", 
     in publications or presentations arising from this work. More details at
     http://www.quantum-espresso.org/quote

     Parallel version (MPI & OpenMP), running on     512 processor cores
     Number of MPI processes:               512
     Threads/MPI process:                     1

     MPI processes distributed on     4 nodes
     229553 MiB available memory on the printing compute node when the environment starts

     Reading input from espresso.pwi
Warning: card &CELL ignored
Warning: card    PRESS_CONV_THR   = 0.1 ignored
Warning: card    CELL_DOFREE      = 'ALL' ignored
Warning: card / ignored
Warning: card &FCP ignored
Warning: card / ignored
Warning: card &RISM ignored
Warning: card / ignored

     Current dimensions of program PWSCF are:
     Max number of different atomic species (ntypx) = 10
     Max number of k-points (npk) =  40000
     Max angular momentum in pseudopotentials (lmaxx) =  4

     IMPORTANT: XC functional enforced from input :
     Exchange-correlation= PBE
                           (   1   4   3   4   0   0   0)
     Any further DFT definition will be discarded
     Please, verify this is what you really want


     Reading input from environ.in:
     * using ionic solvent mode
     * setting boundary derivatives method to SSCS default
     * setting electrolyte-boundary derivatives method to SSCS default

Environ Warning (1001): card EOF ignored

     

     K-points division:     npool     =       2
     R & G space division:  proc/nbgrp/npool/nimage =     256
     Subspace diagonalization in iterative solution of the eigenvalue problem:
     one sub-group per band group will be used
     ELPA distributed-memory algorithm (size of sub-group:  2*  2 procs)


     Parallelization info
     --------------------
     sticks:   dense  smooth     PW     G-vecs:    dense   smooth      PW
     Min          86      34      9                52542    13274    1767
     Max          87      35     10                52593    13321    1811
     Sum       22119    8865   2329             13455463  3404289  459339

     Using Slab Decomposition



     bravais-lattice index     =           12
     lattice parameter (alat)  =      18.3607  a.u.
     unit-cell volume          =   35212.2554 (a.u.)^3
     number of atoms/cell      =           68
     number of atomic types    =            1
     number of electrons       =       204.00
     number of Kohn-Sham states=          153
     kinetic-energy cutoff     =      80.0000  Ry
     charge density cutoff     =     800.0000  Ry
     scf convergence threshold =      1.0E-14
     mixing beta               =       0.2000
     number of iterations used =            8  local-TF  mixing
     Exchange-correlation= PBE
                           (   1   4   3   4   0   0   0)

     ================================================================================

                                  Environ Setup Summary

     ================================================================================

     Please cite

          O. Andreussi, I. Dabo and N. Marzari, J. Chem. Phys. 136, 064102 (2012)
          F. Nattino, M. Truscott, N. Marzari, and O. Andreussi, J. Chem. Phys. 150, 041722 (2019)

     in publications or presentations arising from this work.

     ================================================================================

     Parameters
     ==========

     compensation onset threshold      =               0.1000E+00
     static permittivity               =                    89.90
     surface tension in input (dyn/cm) =                    37.30
     surface tension in internal units =               0.4792E-04

     Solvent Boundary
     ================

     solvent mode                      =                    ionic
     derivatives method                =                   lowmem
     electrolyte derivatives method    =                   lowmem
     numerical core for derivatives    =                      fft
     switching function adopted        =                     SCCS
     density limit for vacuum region   =               0.5000E-02
     density limit for bulk solvent    =               0.1000E-03
     soft-sphere radius mode           =                    bondi
     soft-sphere softness              =                     0.50
     alpha                             =                     1.32

     Electrostatic Setup
     ===================

     electrostatic problem to solve    =                    modpb
     numerical solver adopted          =                   newton
     type of auxiliary density adopted =                     none
     numerical core for poisson        =                      fft
     adopting a nested solver scheme
     inner solver                      =                       cg
     inner core                        =                      fft
     type of pbc corrections           =                parabolic
     numerical core for corrections    =                      1da

     ================================================================================


     >>>>> Grand-Canonical SCF is activated <<<<<
     Initial Total Charge  =     0.000000 e
     Target Fermi Energy   =    -1.904000 eV
     Thr. of Fermi Energy  =     0.001000 eV
     Wave-shift of Kerker  =     0.400000 bohr^-1
     Wave-shift of Hartree =     1.500000 bohr^-1
     Mixing Rate of Fermi  =     0.050000

     celldm(1)=  18.360747  celldm(2)=   1.060660  celldm(3)=   5.518976
     celldm(4)=  -0.235702  celldm(5)=   0.000000  celldm(6)=   0.000000

     crystal axes: (cart. coord. in units of alat)
               a(1) = (   1.000000   0.000000   0.000000 )  
               a(2) = (  -0.250000   1.030776   0.000000 )  
               a(3) = (   0.000000   0.000000   5.518976 )  

     reciprocal axes: (cart. coord. in units 2 pi/alat)
               b(1) = (  1.000000  0.242536 -0.000000 )  
               b(2) = (  0.000000  0.970143  0.000000 )  
               b(3) = (  0.000000 -0.000000  0.181193 )  


     PseudoPot. # 1 for Li read from file:
     /work/e89/e89/ba3g18/Repos/Pseudopotentials/Pslibrary/Li.pbe-sl-kjpaw_psl.1.0.0.UPF
     MD5 check sum: 3f4d2cafebb47c6c3aa8ed472e6f074d
     Pseudo is Projector augmented-wave, Zval =  3.0
     Generated using 'atomic' code by A. Dal Corso  v.7.4
     Shape of augmentation charge: PSQ
     Using radial grid of 1017 points,  4 beta functions with: 
                l(1) =   0
                l(2) =   0
                l(3) =   1
                l(4) =   1
     Q(r) pseudized with 0 coefficients 


     atomic species   valence    mass     pseudopotential
     Li                3.00     6.94000     Li( 1.00)

     No symmetry found


                                    s                        frac. trans.

      isym =  1     identity                                     

 cryst.   s( 1) = (     1          0          0      )
                  (     0          1          0      )
                  (     0          0          1      )

 cart.    s( 1) = (  1.0000000  0.0000000  0.0000000 )
                  (  0.0000000  1.0000000  0.0000000 )
                  (  0.0000000  0.0000000  1.0000000 )


     point group C_1 (1)    
     there are  1 classes
     the character table:

       E    
A      1.00

     the symmetry operations in each class and the name of the first element:

     E        1
          identity                                               

   Cartesian axes

     site n.     atom                  positions (alat units)
         1        Li     tau(   1) = (  -0.0002560   0.0086755   2.0671584  )
         2        Li     tau(   2) = (   0.0001929   0.6082964   3.4167417  )
         3        Li     tau(   3) = (   0.2502120   0.7831701   3.2702465  )
         4        Li     tau(   4) = (   0.2502833   0.1875956   3.3234742  )
         5        Li     tau(   5) = (   0.0002037   0.3676580   3.1576735  )
         6        Li     tau(   6) = (   0.2501625   0.5456802   3.0034977  )
         7        Li     tau(   7) = (   0.2499504   0.9059256   2.6626587  )
         8        Li     tau(   8) = (   0.0002119   0.9736669   3.0817736  )
         9        Li     tau(   9) = (   0.0001058   0.1207612   2.9118277  )
        10        Li     tau(  10) = (   0.2499810   0.3024483   2.7368541  )
        11        Li     tau(  11) = (  -0.0001647   0.4870467   2.5536795  )
        12        Li     tau(  12) = (   0.2498120   0.6607149   2.3947468  )
        13        Li     tau(  13) = (   0.0000364   0.7302345   2.8202150  )
        14        Li     tau(  14) = (   0.2498330   0.0585249   2.4858383  )
        15        Li     tau(  15) = (  -0.0002594   0.2460187   2.3012495  )
        16        Li     tau(  16) = (   0.2497828   0.4105761   2.1362373  )
        17        Li     tau(  17) = (  -0.0002098   0.8544840   2.2124454  )
        18        Li     tau(  18) = (   0.0002522   0.0571534   3.2177246  )
        19        Li     tau(  19) = (   0.0001890   0.6732294   3.1242313  )
        20        Li     tau(  20) = (   0.2501646   0.8468959   2.9652985  )
        21        Li     tau(  21) = (   0.2501669   0.2446402   3.0331402  )
        22        Li     tau(  22) = (   0.0000486   0.4280157   2.8563169  )
        23        Li     tau(  23) = (   0.2499636   0.6037042   2.6987623  )
        24        Li     tau(  24) = (   0.2497959   0.9662874   2.3613021  )
        25        Li     tau(  25) = (   0.0000190   1.0314891   2.7821235  )
        26        Li     tau(  26) = (  -0.0001105   0.1824055   2.6071449  )
        27        Li     tau(  27) = (   0.2497882   0.3602756   2.4372052  )
        28        Li     tau(  28) = (  -0.0002121   0.5507796   2.2487306  )
        29        Li     tau(  29) = (   0.2498075   0.7256535   2.1022375  )
        30        Li     tau(  30) = (  -0.0001623   0.7882615   2.5154798  )
        31        Li     tau(  31) = (   0.2497168   0.1155784   2.1955094  )
        32        Li     tau(  32) = (   0.0002687   0.2945036   3.4518181  )
        33        Li     tau(  33) = (   0.2502106   0.4794650   3.3065324  )
        34        Li     tau(  34) = (   0.0002158   0.9233735   3.3827394  )
        35        Li     tau(  35) = (   0.4997262   0.0086687   2.0671586  )
        36        Li     tau(  36) = (   0.5001956   0.6082929   3.4167469  )
        37        Li     tau(  37) = (   0.7502192   0.7831704   3.2702465  )
        38        Li     tau(  38) = (   0.7502845   0.1875959   3.3234861  )
        39        Li     tau(  39) = (   0.5002008   0.3676581   3.1576726  )
        40        Li     tau(  40) = (   0.7501587   0.5456804   3.0034934  )
        41        Li     tau(  41) = (   0.7499556   0.9059271   2.6626596  )
        42        Li     tau(  42) = (   0.5002112   0.9736689   3.0817634  )
        43        Li     tau(  43) = (   0.5001107   0.1207616   2.9118291  )
        44        Li     tau(  44) = (   0.7499829   0.3024500   2.7368604  )
        45        Li     tau(  45) = (   0.4998323   0.4870472   2.5536779  )
        46        Li     tau(  46) = (   0.7498084   0.6607133   2.3947403  )
        47        Li     tau(  47) = (   0.5000381   0.7302356   2.8202198  )
        48        Li     tau(  48) = (   0.7498322   0.0585286   2.4858201  )
        49        Li     tau(  49) = (   0.4997501   0.2460185   2.3012496  )
        50        Li     tau(  50) = (   0.7497855   0.4105858   2.1362456  )
        51        Li     tau(  51) = (   0.4997900   0.8544867   2.2124491  )
        52        Li     tau(  52) = (   0.5002571   0.0571534   3.2177253  )
        53        Li     tau(  53) = (   0.5001904   0.6732329   3.1242380  )
        54        Li     tau(  54) = (   0.7501677   0.8468971   2.9652988  )
        55        Li     tau(  55) = (   0.7501680   0.2446418   3.0331484  )
        56        Li     tau(  56) = (   0.5000454   0.4280144   2.8563148  )
        57        Li     tau(  57) = (   0.7499618   0.6037045   2.6987576  )
        58        Li     tau(  58) = (   0.7497996   0.9662881   2.3613017  )
        59        Li     tau(  59) = (   0.5000173   1.0314900   2.7821099  )
        60        Li     tau(  60) = (   0.4998940   0.1824062   2.6071458  )
        61        Li     tau(  61) = (   0.7497887   0.3602780   2.4372113  )
        62        Li     tau(  62) = (   0.4997807   0.5507781   2.2487281  )
        63        Li     tau(  63) = (   0.7498038   0.7256605   2.1022331  )
        64        Li     tau(  64) = (   0.4998410   0.7882650   2.5154847  )
        65        Li     tau(  65) = (   0.7497152   0.1155777   2.1954820  )
        66        Li     tau(  66) = (   0.5002607   0.2944997   3.4518172  )
        67        Li     tau(  67) = (   0.7502092   0.4794635   3.3065287  )
        68        Li     tau(  68) = (   0.5002155   0.9233671   3.3827278  )

   Crystallographic axes

     site n.     atom                  positions (cryst. coord.)
         1        Li     tau(   1) = (  0.0018482  0.0084165  0.3745547  )
         2        Li     tau(   2) = (  0.1477265  0.5901344  0.6190898  )
         3        Li     tau(   3) = (  0.4401587  0.7597869  0.5925459  )
         4        Li     tau(   4) = (  0.2957820  0.1819945  0.6021904  )
         5        Li     tau(   5) = (  0.0893739  0.3566808  0.5721484  )
         6        Li     tau(   6) = (  0.3825094  0.5293878  0.5442129  )
         7        Li     tau(   7) = (  0.4696697  0.8788772  0.4824552  )
         8        Li     tau(   8) = (  0.2363609  0.9445960  0.5583959  )
         9        Li     tau(   9) = (  0.0293947  0.1171557  0.5276029  )
        10        Li     tau(  10) = (  0.3233355  0.2934181  0.4958989  )
        11        Li     tau(  11) = (  0.1179615  0.4725049  0.4627089  )
        12        Li     tau(  12) = (  0.4100590  0.6409879  0.4339114  )
        13        Li     tau(  13) = (  0.1771444  0.7084318  0.5110033  )
        14        Li     tau(  14) = (  0.2640273  0.0567775  0.4504166  )
        15        Li     tau(  15) = (  0.0594089  0.2386733  0.4169704  )
        16        Li     tau(  16) = (  0.3493621  0.3983175  0.3870713  )
        17        Li     tau(  17) = (  0.2070331  0.8289715  0.4008797  )
        18        Li     tau(  18) = (  0.0141139  0.0554469  0.5830293  )
        19        Li     tau(  19) = (  0.1634712  0.6531287  0.5660889  )
        20        Li     tau(  20) = (  0.4555671  0.8216100  0.5372914  )
        21        Li     tau(  21) = (  0.3095009  0.2373360  0.5495839  )
        22        Li     tau(  22) = (  0.1038577  0.4152364  0.5175447  )
        23        Li     tau(  23) = (  0.3963834  0.5856794  0.4889969  )
        24        Li     tau(  24) = (  0.4841551  0.9374368  0.4278515  )
        25        Li     tau(  25) = (  0.2501919  1.0006919  0.5041014  )
        26        Li     tau(  26) = (  0.0441294  0.1769594  0.4723965  )
        27        Li     tau(  27) = (  0.3371679  0.3495188  0.4416046  )
        28        Li     tau(  28) = (  0.1333716  0.5343349  0.4074543  )
        29        Li     tau(  29) = (  0.4258044  0.7039876  0.3809108  )
        30        Li     tau(  30) = (  0.1910193  0.7647262  0.4557874  )
        31        Li     tau(  31) = (  0.2777487  0.1121276  0.3978110  )
        32        Li     tau(  32) = (  0.0716964  0.2857105  0.6254454  )
        33        Li     tau(  33) = (  0.3664980  0.4651496  0.5991206  )
        34        Li     tau(  34) = (  0.2241668  0.8958042  0.6129288  )
        35        Li     tau(  35) = (  0.5018287  0.0084099  0.3745547  )
        36        Li     tau(  36) = (  0.6477284  0.5901311  0.6190907  )
        37        Li     tau(  37) = (  0.9401660  0.7597872  0.5925459  )
        38        Li     tau(  38) = (  0.7957833  0.1819949  0.6021925  )
        39        Li     tau(  39) = (  0.5893710  0.3566809  0.5721483  )
        40        Li     tau(  40) = (  0.8825057  0.5293880  0.5442121  )
        41        Li     tau(  41) = (  0.9696753  0.8788787  0.4824554  )
        42        Li     tau(  42) = (  0.7363607  0.9445980  0.5583940  )
        43        Li     tau(  43) = (  0.5293997  0.1171560  0.5276031  )
        44        Li     tau(  44) = (  0.8233378  0.2934197  0.4959000  )
        45        Li     tau(  45) = (  0.6179587  0.4725054  0.4627086  )
        46        Li     tau(  46) = (  0.9100550  0.6409863  0.4339103  )
        47        Li     tau(  47) = (  0.6771463  0.7084329  0.5110042  )
        48        Li     tau(  48) = (  0.7640274  0.0567811  0.4504133  )
        49        Li     tau(  49) = (  0.5594184  0.2386730  0.4169704  )
        50        Li     tau(  50) = (  0.8493673  0.3983269  0.3870728  )
        51        Li     tau(  51) = (  0.7070336  0.8289742  0.4008804  )
        52        Li     tau(  52) = (  0.5141189  0.0554469  0.5830294  )
        53        Li     tau(  53) = (  0.6634734  0.6531321  0.5660901  )
        54        Li     tau(  54) = (  0.9555705  0.8216112  0.5372915  )
        55        Li     tau(  55) = (  0.8095024  0.2373375  0.5495854  )
        56        Li     tau(  56) = (  0.6038542  0.4152351  0.5175443  )
        57        Li     tau(  57) = (  0.8963817  0.5856797  0.4889961  )
        58        Li     tau(  58) = (  0.9841590  0.9374375  0.4278514  )
        59        Li     tau(  59) = (  0.7501905  1.0006927  0.5040989  )
        60        Li     tau(  60) = (  0.5441340  0.1769601  0.4723967  )
        61        Li     tau(  61) = (  0.8371690  0.3495212  0.4416057  )
        62        Li     tau(  62) = (  0.6333641  0.5343335  0.4074539  )
        63        Li     tau(  63) = (  0.9258024  0.7039944  0.3809100  )
        64        Li     tau(  64) = (  0.6910235  0.7647297  0.4557883  )
        65        Li     tau(  65) = (  0.7777469  0.1121269  0.3978060  )
        66        Li     tau(  66) = (  0.5716874  0.2857068  0.6254452  )
        67        Li     tau(  67) = (  0.8664962  0.4651481  0.5991200  )
        68        Li     tau(  68) = (  0.7241650  0.8957980  0.6129267  )

     number of k points=    25  Marzari-Vanderbilt smearing, width (Ry)=  0.0100
                       cart. coord. in units 2pi/alat
        k(    1) = (   0.0000000   0.0000000   0.0000000), wk =   0.0408163
        k(    2) = (   0.0000000   0.1385918   0.0000000), wk =   0.0816327
        k(    3) = (   0.0000000   0.2771837   0.0000000), wk =   0.0816327
        k(    4) = (   0.0000000   0.4157755   0.0000000), wk =   0.0816327
        k(    5) = (   0.1428571   0.0346480   0.0000000), wk =   0.0816327
        k(    6) = (   0.1428571   0.1732398   0.0000000), wk =   0.0816327
        k(    7) = (   0.1428571   0.3118316   0.0000000), wk =   0.0816327
        k(    8) = (   0.1428571   0.4504235   0.0000000), wk =   0.0816327
        k(    9) = (   0.1428571  -0.3811276   0.0000000), wk =   0.0816327
        k(   10) = (   0.1428571  -0.2425357   0.0000000), wk =   0.0816327
        k(   11) = (   0.1428571  -0.1039439   0.0000000), wk =   0.0816327
        k(   12) = (   0.2857143   0.0692959   0.0000000), wk =   0.0816327
        k(   13) = (   0.2857143   0.2078878   0.0000000), wk =   0.0816327
        k(   14) = (   0.2857143   0.3464796   0.0000000), wk =   0.0816327
        k(   15) = (   0.2857143   0.4850714   0.0000000), wk =   0.0816327
        k(   16) = (   0.2857143  -0.3464796   0.0000000), wk =   0.0816327
        k(   17) = (   0.2857143  -0.2078878   0.0000000), wk =   0.0816327
        k(   18) = (   0.2857143  -0.0692959   0.0000000), wk =   0.0816327
        k(   19) = (   0.4285714   0.1039439   0.0000000), wk =   0.0816327
        k(   20) = (   0.4285714   0.2425357   0.0000000), wk =   0.0816327
        k(   21) = (   0.4285714   0.3811276   0.0000000), wk =   0.0816327
        k(   22) = (   0.4285714   0.5197194   0.0000000), wk =   0.0816327
        k(   23) = (   0.4285714  -0.3118316   0.0000000), wk =   0.0816327
        k(   24) = (   0.4285714  -0.1732398   0.0000000), wk =   0.0816327
        k(   25) = (   0.4285714  -0.0346480   0.0000000), wk =   0.0816327

                       cryst. coord.
        k(    1) = (   0.0000000   0.0000000   0.0000000), wk =   0.0408163
        k(    2) = (   0.0000000   0.1428571   0.0000000), wk =   0.0816327
        k(    3) = (   0.0000000   0.2857143   0.0000000), wk =   0.0816327
        k(    4) = (   0.0000000   0.4285714   0.0000000), wk =   0.0816327
        k(    5) = (   0.1428571   0.0000000   0.0000000), wk =   0.0816327
        k(    6) = (   0.1428571   0.1428571   0.0000000), wk =   0.0816327
        k(    7) = (   0.1428571   0.2857143   0.0000000), wk =   0.0816327
        k(    8) = (   0.1428571   0.4285714   0.0000000), wk =   0.0816327
        k(    9) = (   0.1428571  -0.4285714   0.0000000), wk =   0.0816327
        k(   10) = (   0.1428571  -0.2857143   0.0000000), wk =   0.0816327
        k(   11) = (   0.1428571  -0.1428571   0.0000000), wk =   0.0816327
        k(   12) = (   0.2857143   0.0000000   0.0000000), wk =   0.0816327
        k(   13) = (   0.2857143   0.1428571   0.0000000), wk =   0.0816327
        k(   14) = (   0.2857143   0.2857143   0.0000000), wk =   0.0816327
        k(   15) = (   0.2857143   0.4285714   0.0000000), wk =   0.0816327
        k(   16) = (   0.2857143  -0.4285714   0.0000000), wk =   0.0816327
        k(   17) = (   0.2857143  -0.2857143   0.0000000), wk =   0.0816327
        k(   18) = (   0.2857143  -0.1428571   0.0000000), wk =   0.0816327
        k(   19) = (   0.4285714   0.0000000   0.0000000), wk =   0.0816327
        k(   20) = (   0.4285714   0.1428571   0.0000000), wk =   0.0816327
        k(   21) = (   0.4285714   0.2857143   0.0000000), wk =   0.0816327
        k(   22) = (   0.4285714   0.4285714   0.0000000), wk =   0.0816327
        k(   23) = (   0.4285714  -0.4285714   0.0000000), wk =   0.0816327
        k(   24) = (   0.4285714  -0.2857143   0.0000000), wk =   0.0816327
        k(   25) = (   0.4285714  -0.1428571   0.0000000), wk =   0.0816327

     Dense  grid: 13455463 G-vectors     FFT dimensions: ( 180, 180, 960)

     Smooth grid:  3404289 G-vectors     FFT dimensions: ( 108, 120, 600)

     Dynamical RAM for                 wfc:       3.88 MB

     Dynamical RAM for     wfc (w. buffer):      54.32 MB

     Dynamical RAM for           str. fact:       0.80 MB

     Dynamical RAM for           local pot:       0.00 MB

     Dynamical RAM for          nlocal pot:      13.80 MB

     Dynamical RAM for                qrad:       0.65 MB

     Dynamical RAM for          rho,v,vnew:       5.37 MB

     Dynamical RAM for               rhoin:       1.79 MB

     Dynamical RAM for            rho*nmix:      12.84 MB

     Dynamical RAM for           G-vectors:       3.11 MB

     Dynamical RAM for          h,s,v(r/c):       4.29 MB

     Dynamical RAM for          <psi|beta>:       1.27 MB

     Dynamical RAM for                 psi:      15.52 MB

     Dynamical RAM for                hpsi:      15.52 MB

     Dynamical RAM for                spsi:      15.52 MB

     Dynamical RAM for      wfcinit/wfcrot:       8.30 MB

     Dynamical RAM for           addusdens:      44.93 MB

     Dynamical RAM for          addusforce:      98.75 MB

     Estimated static dynamical RAM per process >      86.39 MB

     Estimated max dynamical RAM per process >     205.31 MB

     Estimated total dynamical RAM >      95.78 GB

     Initial potential from superposition of free atoms

     starting charge     203.6866, renormalised to     204.0000

     negative rho (up, down):  6.025E-03 0.000E+00
     Starting wfcs are random
     Checking if some PAW data can be deallocated... 

     total cpu time spent up to now is       48.4 secs

     Self-consistent Calculation

     iteration #  1     ecut=    80.00 Ry     beta= 0.20
     Davidson diagonalization with overlap

---- Real-time Memory Report at c_bands before calling an iterative solver
          1218 MiB given to the printing process from OS
             0 MiB allocation reported by mallinfo(arena+hblkhd)
        206810 MiB available memory on the node where the printing process lives
------------------
     c_bands:  1 eigenvalues not converged
     c_bands:  1 eigenvalues not converged
     c_bands:  4 eigenvalues not converged
     ethr =  1.00E-12,  avg # of iterations =132.0

     negative rho (up, down):  4.532E-03 0.000E+00

     total cpu time spent up to now is      721.9 secs

     total energy              =   -1022.44644641 Ry
     estimated scf accuracy    <       0.21746350 Ry

     total charge of GC-SCF    =      -0.04339599 e
     the Fermi energy          =      -4.27643994 eV
                        (error :       2.37243994 eV)
     electrostatic embedding   =       0.00000000 Ry
     cavitation energy         =       0.04170471 Ry
     electrolyte free energy   =       0.01515579 Ry
     correction to one-el term =      -0.00000000 Ry

     iteration #  2     ecut=    80.00 Ry     beta= 0.20
     Davidson diagonalization with overlap

---- Real-time Memory Report at c_bands before calling an iterative solver
          1218 MiB given to the printing process from OS
             0 MiB allocation reported by mallinfo(arena+hblkhd)
        200696 MiB available memory on the node where the printing process lives
------------------
     ethr =  1.00E-05,  avg # of iterations = 11.5

     negative rho (up, down):  3.548E-03 0.000E+00

     total cpu time spent up to now is      792.9 secs

     total energy              =   -1022.66950934 Ry
     estimated scf accuracy    <       0.11004166 Ry

     total charge of GC-SCF    =      -0.05774767 e
     the Fermi energy          =      -2.94621287 eV
                        (error :       1.04221287 eV)
     electrostatic embedding   =      -0.00039492 Ry
     cavitation energy         =       0.04170471 Ry
     electrolyte free energy   =       0.01515579 Ry
     correction to one-el term =      -0.00000000 Ry

     iteration #  3     ecut=    80.00 Ry     beta= 0.20
     Davidson diagonalization with overlap

---- Real-time Memory Report at c_bands before calling an iterative solver
          1218 MiB given to the printing process from OS
             0 MiB allocation reported by mallinfo(arena+hblkhd)
        200435 MiB available memory on the node where the printing process lives
------------------
     ethr =  1.00E-05,  avg # of iterations =  9.8

     negative rho (up, down):  2.687E-03 0.000E+00

     add environment contribution to local potential

     total cpu time spent up to now is      858.0 secs

     total energy              =   -1022.40106391 Ry
     estimated scf accuracy    <       0.06302508 Ry

     total charge of GC-SCF    =      -0.09143198 e
     the Fermi energy          =      -2.68915962 eV
                        (error :       0.78515962 eV)
     electrostatic embedding   =      -0.00052552 Ry
     cavitation energy         =       0.04170471 Ry
     electrolyte free energy   =       0.01515579 Ry
     correction to one-el term =      -0.00000000 Ry

     iteration #  4     ecut=    80.00 Ry     beta= 0.20
     Davidson diagonalization with overlap

---- Real-time Memory Report at c_bands before calling an iterative solver
          1218 MiB given to the printing process from OS
             0 MiB allocation reported by mallinfo(arena+hblkhd)
        200298 MiB available memory on the node where the printing process lives
------------------
     ethr =  1.00E-05,  avg # of iterations = 32.0

     negative rho (up, down):  2.297E-03 0.000E+00

     add environment contribution to local potential

     total cpu time spent up to now is      999.7 secs

     total energy              =   -1022.53981086 Ry
     estimated scf accuracy    <       0.02594839 Ry

     total charge of GC-SCF    =      -0.22510844 e
     the Fermi energy          =      -2.58423697 eV
                        (error :       0.68023697 eV)
     electrostatic embedding   =      -0.04199351 Ry
     cavitation energy         =       0.04170471 Ry
     electrolyte free energy   =      -0.00124873 Ry
     correction to one-el term =       9.16460599 Ry

     iteration #  5     ecut=    80.00 Ry     beta= 0.20
     Davidson diagonalization with overlap

---- Real-time Memory Report at c_bands before calling an iterative solver
          1218 MiB given to the printing process from OS
             0 MiB allocation reported by mallinfo(arena+hblkhd)
        200194 MiB available memory on the node where the printing process lives
------------------
     ethr =  1.00E-05,  avg # of iterations =  9.6

     negative rho (up, down):  2.152E-03 0.000E+00

     add environment contribution to local potential

     total cpu time spent up to now is     1059.1 secs

     total energy              =   -1022.35910416 Ry
     estimated scf accuracy    <       0.01619856 Ry

     total charge of GC-SCF    =      -0.92271409 e
     the Fermi energy          =      -2.67093637 eV
                        (error :       0.76693637 eV)
     electrostatic embedding   =      -0.05602479 Ry
     cavitation energy         =       0.04170471 Ry
     electrolyte free energy   =      -0.00165966 Ry
     correction to one-el term =      13.51813219 Ry

     iteration #  6     ecut=    80.00 Ry     beta= 0.20
     Davidson diagonalization with overlap

---- Real-time Memory Report at c_bands before calling an iterative solver
          1218 MiB given to the printing process from OS
             0 MiB allocation reported by mallinfo(arena+hblkhd)
        200227 MiB available memory on the node where the printing process lives
------------------
     ethr =  7.90E-06,  avg # of iterations = 13.4

     negative rho (up, down):  1.833E-03 0.000E+00

     add environment contribution to local potential

     total cpu time spent up to now is     1155.1 secs

     total energy              =   -1022.43713630 Ry
     estimated scf accuracy    <       0.01150843 Ry

     total charge of GC-SCF    =      -1.19430851 e
     the Fermi energy          =      -2.68795727 eV
                        (error :       0.78395727 eV)
     electrostatic embedding   =      -0.20025549 Ry
     cavitation energy         =       0.04170471 Ry
     electrolyte free energy   =      -0.00188415 Ry
     correction to one-el term =      44.10232630 Ry

     iteration #  7     ecut=    80.00 Ry     beta= 0.20
     Davidson diagonalization with overlap

---- Real-time Memory Report at c_bands before calling an iterative solver
          1218 MiB given to the printing process from OS
             0 MiB allocation reported by mallinfo(arena+hblkhd)
        200275 MiB available memory on the node where the printing process lives
------------------
     ethr =  5.61E-06,  avg # of iterations = 23.0

     negative rho (up, down):  1.667E-03 0.000E+00

     add environment contribution to local potential

     total cpu time spent up to now is     1289.6 secs

     total energy              =   -1022.59835821 Ry
     estimated scf accuracy    <       0.01405213 Ry

     total charge of GC-SCF    =      -1.42259169 e
     the Fermi energy          =      -2.22103777 eV
                        (error :       0.31703777 eV)
     electrostatic embedding   =      -0.27036398 Ry
     cavitation energy         =       0.04170471 Ry
     electrolyte free energy   =      -0.00157669 Ry
     correction to one-el term =      58.76834264 Ry

     iteration #  8     ecut=    80.00 Ry     beta= 0.20
     Davidson diagonalization with overlap

---- Real-time Memory Report at c_bands before calling an iterative solver
          1218 MiB given to the printing process from OS
             0 MiB allocation reported by mallinfo(arena+hblkhd)
        199963 MiB available memory on the node where the printing process lives
------------------
     ethr =  5.61E-06,  avg # of iterations =  7.0

     negative rho (up, down):  1.618E-03 0.000E+00

     add environment contribution to local potential

     total cpu time spent up to now is     1341.7 secs

     total energy              =   -1022.55340736 Ry
     estimated scf accuracy    <       0.01562537 Ry

     total charge of GC-SCF    =      -1.99013989 e
     the Fermi energy          =      -2.22673082 eV
                        (error :       0.32273082 eV)
     electrostatic embedding   =      -0.34753008 Ry
     cavitation energy         =       0.04170471 Ry
     electrolyte free energy   =      -0.00200106 Ry
     correction to one-el term =      66.98465744 Ry

     iteration #  9     ecut=    80.00 Ry     beta= 0.20
     Davidson diagonalization with overlap

---- Real-time Memory Report at c_bands before calling an iterative solver
          1218 MiB given to the printing process from OS
             0 MiB allocation reported by mallinfo(arena+hblkhd)
        199983 MiB available memory on the node where the printing process lives
------------------
     ethr =  5.61E-06,  avg # of iterations =  9.8

     negative rho (up, down):  1.518E-03 0.000E+00

     add environment contribution to local potential

     total cpu time spent up to now is     1406.0 secs

     total energy              =   -1022.57664472 Ry
     estimated scf accuracy    <       0.00842511 Ry

     total charge of GC-SCF    =      -2.36015113 e
     the Fermi energy          =      -2.23383206 eV
                        (error :       0.32983206 eV)
     electrostatic embedding   =      -0.59410068 Ry
     cavitation energy         =       0.04170471 Ry
     electrolyte free energy   =      -0.00349509 Ry
     correction to one-el term =      88.39355855 Ry

     iteration # 10     ecut=    80.00 Ry     beta= 0.20
     Davidson diagonalization with overlap

---- Real-time Memory Report at c_bands before calling an iterative solver
          1218 MiB given to the printing process from OS
             0 MiB allocation reported by mallinfo(arena+hblkhd)
        199875 MiB available memory on the node where the printing process lives
------------------
     ethr =  4.08E-06,  avg # of iterations = 12.9

     negative rho (up, down):  1.305E-03 0.000E+00

     add environment contribution to local potential

     total cpu time spent up to now is     1482.9 secs

     total energy              =   -1022.64419356 Ry
     estimated scf accuracy    <       0.00142489 Ry

     total charge of GC-SCF    =      -2.60144133 e
     the Fermi energy          =      -2.34585415 eV
                        (error :       0.44185415 eV)
     electrostatic embedding   =      -0.79331019 Ry
     cavitation energy         =       0.04170471 Ry
     electrolyte free energy   =      -0.00434889 Ry
     correction to one-el term =     101.12106122 Ry

     iteration # 11     ecut=    80.00 Ry     beta= 0.20
     Davidson diagonalization with overlap

---- Real-time Memory Report at c_bands before calling an iterative solver
          1218 MiB given to the printing process from OS
             0 MiB allocation reported by mallinfo(arena+hblkhd)
        199737 MiB available memory on the node where the printing process lives
------------------
     ethr =  6.90E-07,  avg # of iterations = 12.4

     negative rho (up, down):  1.118E-03 0.000E+00

     add environment contribution to local potential

     total cpu time spent up to now is     1572.4 secs

     total energy              =   -1022.65484023 Ry
     estimated scf accuracy    <       0.00301258 Ry

     total charge of GC-SCF    =      -2.92031994 e
     the Fermi energy          =      -2.30373121 eV
                        (error :       0.39973121 eV)
     electrostatic embedding   =      -0.92055927 Ry
     cavitation energy         =       0.04170471 Ry
     electrolyte free energy   =      -0.00544955 Ry
     correction to one-el term =     109.18924993 Ry

     iteration # 12     ecut=    80.00 Ry     beta= 0.20
     Davidson diagonalization with overlap

---- Real-time Memory Report at c_bands before calling an iterative solver
          1218 MiB given to the printing process from OS
             0 MiB allocation reported by mallinfo(arena+hblkhd)
        199880 MiB available memory on the node where the printing process lives
------------------
     ethr =  6.90E-07,  avg # of iterations = 21.0

     negative rho (up, down):  1.035E-03 0.000E+00

     add environment contribution to local potential

     total cpu time spent up to now is     1705.3 secs

     total energy              =   -1022.57610640 Ry
     estimated scf accuracy    <       0.01053510 Ry

     total charge of GC-SCF    =      -3.46489501 e
     the Fermi energy          =      -2.17025250 eV
                        (error :       0.26625250 eV)
     electrostatic embedding   =      -1.10311245 Ry
     cavitation energy         =       0.04170471 Ry
     electrolyte free energy   =      -0.00773471 Ry
     correction to one-el term =     120.15345219 Ry

     iteration # 13     ecut=    80.00 Ry     beta= 0.20
     Davidson diagonalization with overlap

---- Real-time Memory Report at c_bands before calling an iterative solver
          1218 MiB given to the printing process from OS
             0 MiB allocation reported by mallinfo(arena+hblkhd)
        199981 MiB available memory on the node where the printing process lives
------------------
     ethr =  6.90E-07,  avg # of iterations = 16.7

     negative rho (up, down):  9.219E-04 0.000E+00

     add environment contribution to local potential

     total cpu time spent up to now is     1802.8 secs

     total energy              =   -1022.65957768 Ry
     estimated scf accuracy    <       0.00041271 Ry

     total charge of GC-SCF    =      -4.18847933 e
     the Fermi energy          =      -2.36026500 eV
                        (error :       0.45626500 eV)
     electrostatic embedding   =      -1.49673248 Ry
     cavitation energy         =       0.04170471 Ry
     electrolyte free energy   =      -0.01040294 Ry
     correction to one-el term =     137.41536662 Ry

     iteration # 14     ecut=    80.00 Ry     beta= 0.20
     Davidson diagonalization with overlap

---- Real-time Memory Report at c_bands before calling an iterative solver
          1218 MiB given to the printing process from OS
             0 MiB allocation reported by mallinfo(arena+hblkhd)
        199755 MiB available memory on the node where the printing process lives
------------------
     ethr =  1.98E-07,  avg # of iterations = 19.8

     negative rho (up, down):  8.456E-04 0.000E+00

     add environment contribution to local potential

     total cpu time spent up to now is     1912.1 secs

     total energy              =   -1022.70434064 Ry
     estimated scf accuracy    <       0.00050496 Ry

     total charge of GC-SCF    =      -4.57889601 e
     the Fermi energy          =      -2.23135247 eV
                        (error :       0.32735247 eV)
     electrostatic embedding   =      -2.07079935 Ry
     cavitation energy         =       0.04170471 Ry
     electrolyte free energy   =      -0.01727508 Ry
     correction to one-el term =     162.79897243 Ry

     iteration # 15     ecut=    80.00 Ry     beta= 0.20
     Davidson diagonalization with overlap

---- Real-time Memory Report at c_bands before calling an iterative solver
          1218 MiB given to the printing process from OS
             0 MiB allocation reported by mallinfo(arena+hblkhd)
        199685 MiB available memory on the node where the printing process lives
------------------
     ethr =  1.98E-07,  avg # of iterations = 21.7

     negative rho (up, down):  8.006E-04 0.000E+00

     add environment contribution to local potential

     total cpu time spent up to now is     2027.1 secs

     total energy              =   -1022.71416448 Ry
     estimated scf accuracy    <       0.00311854 Ry

     total charge of GC-SCF    =      -4.80017751 e
     the Fermi energy          =      -2.10633391 eV
                        (error :       0.20233391 eV)
     electrostatic embedding   =      -2.40483543 Ry
     cavitation energy         =       0.04170471 Ry
     electrolyte free energy   =      -0.02244955 Ry
     correction to one-el term =     175.67254316 Ry

     iteration # 16     ecut=    80.00 Ry     beta= 0.20
     Davidson diagonalization with overlap

---- Real-time Memory Report at c_bands before calling an iterative solver
          1218 MiB given to the printing process from OS
             0 MiB allocation reported by mallinfo(arena+hblkhd)
        199805 MiB available memory on the node where the printing process lives
------------------
     ethr =  1.98E-07,  avg # of iterations = 13.3

     negative rho (up, down):  7.476E-04 0.000E+00

     add environment contribution to local potential

     total cpu time spent up to now is     2120.8 secs

     total energy              =   -1022.71951523 Ry
     estimated scf accuracy    <       0.00073308 Ry

     total charge of GC-SCF    =      -5.36744551 e
     the Fermi energy          =      -2.15301775 eV
                        (error :       0.24901775 eV)
     electrostatic embedding   =      -2.60963163 Ry
     cavitation energy         =       0.04170471 Ry
     electrolyte free energy   =      -0.02497608 Ry
     correction to one-el term =     182.02370503 Ry

     iteration # 17     ecut=    80.00 Ry     beta= 0.20
     Davidson diagonalization with overlap

---- Real-time Memory Report at c_bands before calling an iterative solver
          1218 MiB given to the printing process from OS
             0 MiB allocation reported by mallinfo(arena+hblkhd)
        199821 MiB available memory on the node where the printing process lives
------------------
     ethr =  1.98E-07,  avg # of iterations = 12.7

     negative rho (up, down):  7.111E-04 0.000E+00

     add environment contribution to local potential

     total cpu time spent up to now is     2219.3 secs

     total energy              =   -1022.73728332 Ry
     estimated scf accuracy    <       0.00052184 Ry

     total charge of GC-SCF    =      -5.81624793 e
     the Fermi energy          =      -2.10474403 eV
                        (error :       0.20074403 eV)
     electrostatic embedding   =      -3.16826991 Ry
     cavitation energy         =       0.04170471 Ry
     electrolyte free energy   =      -0.03404996 Ry
     correction to one-el term =     199.53363720 Ry

     iteration # 18     ecut=    80.00 Ry     beta= 0.20
     Davidson diagonalization with overlap

---- Real-time Memory Report at c_bands before calling an iterative solver
          1218 MiB given to the printing process from OS
             0 MiB allocation reported by mallinfo(arena+hblkhd)
        199817 MiB available memory on the node where the printing process lives
------------------
     ethr =  1.98E-07,  avg # of iterations = 11.7

     negative rho (up, down):  6.687E-04 0.000E+00

     add environment contribution to local potential

     total cpu time spent up to now is     2312.1 secs

     total energy              =   -1022.76909502 Ry
     estimated scf accuracy    <       0.00009298 Ry

     total charge of GC-SCF    =      -6.56549750 e
     the Fermi energy          =      -2.08444423 eV
                        (error :       0.18044423 eV)
     electrostatic embedding   =      -3.65318987 Ry
     cavitation energy         =       0.04170471 Ry
     electrolyte free energy   =      -0.04275274 Ry
     correction to one-el term =     213.41036090 Ry

     iteration # 19     ecut=    80.00 Ry     beta= 0.20
     Davidson diagonalization with overlap

---- Real-time Memory Report at c_bands before calling an iterative solver
          1218 MiB given to the printing process from OS
             0 MiB allocation reported by mallinfo(arena+hblkhd)
        199761 MiB available memory on the node where the printing process lives
------------------
     ethr =  4.42E-08,  avg # of iterations = 25.3

     negative rho (up, down):  6.491E-04 0.000E+00

     add environment contribution to local potential

     total cpu time spent up to now is     2450.0 secs

     total energy              =   -1022.76562405 Ry
     estimated scf accuracy    <       0.00024090 Ry

     total charge of GC-SCF    =      -6.63208125 e
     the Fermi energy          =      -2.02985983 eV
                        (error :       0.12585983 eV)
     electrostatic embedding   =      -4.53572431 Ry
     cavitation energy         =       0.04170471 Ry
     electrolyte free energy   =      -0.06082440 Ry
     correction to one-el term =     236.48999938 Ry

     iteration # 20     ecut=    80.00 Ry     beta= 0.20
     Davidson diagonalization with overlap

---- Real-time Memory Report at c_bands before calling an iterative solver
          1218 MiB given to the printing process from OS
             0 MiB allocation reported by mallinfo(arena+hblkhd)
        199638 MiB available memory on the node where the printing process lives
------------------
     ethr =  4.42E-08,  avg # of iterations = 22.8

     negative rho (up, down):  6.262E-04 0.000E+00

     add environment contribution to local potential

     total cpu time spent up to now is     2589.9 secs

     total energy              =   -1022.76804173 Ry
     estimated scf accuracy    <       0.00004787 Ry

     total charge of GC-SCF    =      -6.92834135 e
     the Fermi energy          =      -1.97695194 eV
                        (error :       0.07295194 eV)
     electrostatic embedding   =      -4.61308093 Ry
     cavitation energy         =       0.04170471 Ry
     electrolyte free energy   =      -0.06301184 Ry
     correction to one-el term =     238.72325497 Ry

     iteration # 21     ecut=    80.00 Ry     beta= 0.20
     Davidson diagonalization with overlap

---- Real-time Memory Report at c_bands before calling an iterative solver
          1218 MiB given to the printing process from OS
             0 MiB allocation reported by mallinfo(arena+hblkhd)
        199679 MiB available memory on the node where the printing process lives
------------------
     ethr =  2.27E-08,  avg # of iterations = 20.2

     negative rho (up, down):  6.140E-04 0.000E+00

     add environment contribution to local potential

     total cpu time spent up to now is     2703.9 secs

     total energy              =   -1022.76824718 Ry
     estimated scf accuracy    <       0.00006952 Ry

     total charge of GC-SCF    =      -7.01598999 e
     the Fermi energy          =      -1.93480249 eV
                        (error :       0.03080249 eV)
     electrostatic embedding   =      -4.98298952 Ry
     cavitation energy         =       0.04170471 Ry
     electrolyte free energy   =      -0.07173905 Ry
     correction to one-el term =     247.56571625 Ry

     iteration # 22     ecut=    80.00 Ry     beta= 0.20
     Davidson diagonalization with overlap

---- Real-time Memory Report at c_bands before calling an iterative solver
          1218 MiB given to the printing process from OS
             0 MiB allocation reported by mallinfo(arena+hblkhd)
        199987 MiB available memory on the node where the printing process lives
------------------
     ethr =  2.27E-08,  avg # of iterations = 13.3

     negative rho (up, down):  6.042E-04 0.000E+00

     add environment contribution to local potential

     total cpu time spent up to now is     2798.4 secs

     total energy              =   -1022.76921223 Ry
     estimated scf accuracy    <       0.00000744 Ry

     total charge of GC-SCF    =      -7.08430741 e
     the Fermi energy          =      -1.94124469 eV
                        (error :       0.03724469 eV)
     electrostatic embedding   =      -5.09258272 Ry
     cavitation energy         =       0.04170471 Ry
     electrolyte free energy   =      -0.07429973 Ry
     correction to one-el term =     249.89828184 Ry

     iteration # 23     ecut=    80.00 Ry     beta= 0.20
     Davidson diagonalization with overlap

---- Real-time Memory Report at c_bands before calling an iterative solver
          1218 MiB given to the printing process from OS
             0 MiB allocation reported by mallinfo(arena+hblkhd)
        199868 MiB available memory on the node where the printing process lives
------------------
     ethr =  3.52E-09,  avg # of iterations = 17.2

     negative rho (up, down):  5.951E-04 0.000E+00

     add environment contribution to local potential

     total cpu time spent up to now is     2902.1 secs

     total energy              =   -1022.76955264 Ry
     estimated scf accuracy    <       0.00001087 Ry

     total charge of GC-SCF    =      -7.17953751 e
     the Fermi energy          =      -1.92593012 eV
                        (error :       0.02193012 eV)
     electrostatic embedding   =      -5.17748013 Ry
     cavitation energy         =       0.04170471 Ry
     electrolyte free energy   =      -0.07651574 Ry
     correction to one-el term =     251.84259514 Ry

     iteration # 24     ecut=    80.00 Ry     beta= 0.20
     Davidson diagonalization with overlap

---- Real-time Memory Report at c_bands before calling an iterative solver
          1218 MiB given to the printing process from OS
             0 MiB allocation reported by mallinfo(arena+hblkhd)
        199836 MiB available memory on the node where the printing process lives
------------------
     ethr =  3.52E-09,  avg # of iterations = 16.8

     negative rho (up, down):  5.905E-04 0.000E+00

     add environment contribution to local potential

     total cpu time spent up to now is     3007.0 secs

     total energy              =   -1022.77011308 Ry
     estimated scf accuracy    <       0.00000720 Ry

     total charge of GC-SCF    =      -7.13451716 e
     the Fermi energy          =      -1.91321399 eV
                        (error :       0.00921399 eV)
     electrostatic embedding   =      -5.29880235 Ry
     cavitation energy         =       0.04170471 Ry
     electrolyte free energy   =      -0.07961435 Ry
     correction to one-el term =     254.56485470 Ry

     iteration # 25     ecut=    80.00 Ry     beta= 0.20
     Davidson diagonalization with overlap

---- Real-time Memory Report at c_bands before calling an iterative solver
          1218 MiB given to the printing process from OS
             0 MiB allocation reported by mallinfo(arena+hblkhd)
        199850 MiB available memory on the node where the printing process lives
------------------
     ethr =  3.41E-09,  avg # of iterations = 15.1

     negative rho (up, down):  5.834E-04 0.000E+00

     add environment contribution to local potential

     total cpu time spent up to now is     3113.4 secs

     total energy              =   -1022.77027684 Ry
     estimated scf accuracy    <       0.00000225 Ry

     total charge of GC-SCF    =      -7.26112885 e
     the Fermi energy          =      -1.92261677 eV
                        (error :       0.01861677 eV)
     electrostatic embedding   =      -5.23643497 Ry
     cavitation energy         =       0.04170471 Ry
     electrolyte free energy   =      -0.07809157 Ry
     correction to one-el term =     253.05866005 Ry

     iteration # 26     ecut=    80.00 Ry     beta= 0.20
     Davidson diagonalization with overlap

---- Real-time Memory Report at c_bands before calling an iterative solver
          1218 MiB given to the printing process from OS
             0 MiB allocation reported by mallinfo(arena+hblkhd)
        199865 MiB available memory on the node where the printing process lives
------------------
     ethr =  1.07E-09,  avg # of iterations = 28.5

     negative rho (up, down):  5.806E-04 0.000E+00

     add environment contribution to local potential

     total cpu time spent up to now is     3266.2 secs

     total energy              =   -1022.76977754 Ry
     estimated scf accuracy    <       0.00000077 Ry

     total charge of GC-SCF    =      -7.25595039 e
     the Fermi energy          =      -1.90458809 eV
                        (error :       0.00058809 eV)
     electrostatic embedding   =      -5.40402666 Ry
     cavitation energy         =       0.04170471 Ry
     electrolyte free energy   =      -0.08232948 Ry
     correction to one-el term =     256.92346570 Ry

     iteration # 27     ecut=    80.00 Ry     beta= 0.20
     Davidson diagonalization with overlap

---- Real-time Memory Report at c_bands before calling an iterative solver
          1218 MiB given to the printing process from OS
             0 MiB allocation reported by mallinfo(arena+hblkhd)
        199543 MiB available memory on the node where the printing process lives
------------------
     ethr =  3.65E-10,  avg # of iterations = 17.1

     negative rho (up, down):  5.792E-04 0.000E+00

     add environment contribution to local potential

     total cpu time spent up to now is     3374.6 secs

     total energy              =   -1022.76977075 Ry
     estimated scf accuracy    <       0.00000033 Ry

     total charge of GC-SCF    =      -7.26256017 e
     the Fermi energy          =      -1.90601495 eV
                        (error :       0.00201495 eV)
     electrostatic embedding   =      -5.39615046 Ry
     cavitation energy         =       0.04170471 Ry
     electrolyte free energy   =      -0.08214395 Ry
     correction to one-el term =     256.72372477 Ry

     iteration # 28     ecut=    80.00 Ry     beta= 0.20
     Davidson diagonalization with overlap

---- Real-time Memory Report at c_bands before calling an iterative solver
          1218 MiB given to the printing process from OS
             0 MiB allocation reported by mallinfo(arena+hblkhd)
        199834 MiB available memory on the node where the printing process lives
------------------
     ethr =  1.58E-10,  avg # of iterations = 13.4

     negative rho (up, down):  5.777E-04 0.000E+00

     add environment contribution to local potential

     total cpu time spent up to now is     3471.4 secs

     total energy              =   -1022.76977456 Ry
     estimated scf accuracy    <       0.00000011 Ry

     total charge of GC-SCF    =      -7.26881257 e
     the Fermi energy          =      -1.90590661 eV
                        (error :       0.00190661 eV)
     electrostatic embedding   =      -5.40454413 Ry
     cavitation energy         =       0.04170471 Ry
     electrolyte free energy   =      -0.08235700 Ry
     correction to one-el term =     256.89002837 Ry

     iteration # 29     ecut=    80.00 Ry     beta= 0.20
     Davidson diagonalization with overlap

---- Real-time Memory Report at c_bands before calling an iterative solver
          1218 MiB given to the printing process from OS
             0 MiB allocation reported by mallinfo(arena+hblkhd)
        199989 MiB available memory on the node where the printing process lives
------------------
     ethr =  5.08E-11,  avg # of iterations = 11.2

     negative rho (up, down):  5.761E-04 0.000E+00

     add environment contribution to local potential

     total cpu time spent up to now is     3564.7 secs

     total energy              =   -1022.76978069 Ry
     estimated scf accuracy    <       0.00000006 Ry

     total charge of GC-SCF    =      -7.27921522 e
     the Fermi energy          =      -1.90509395 eV
                        (error :       0.00109395 eV)
     electrostatic embedding   =      -5.41266905 Ry
     cavitation energy         =       0.04170471 Ry
     electrolyte free energy   =      -0.08256721 Ry
     correction to one-el term =     257.06398786 Ry

     iteration # 30     ecut=    80.00 Ry     beta= 0.20
     Davidson diagonalization with overlap

---- Real-time Memory Report at c_bands before calling an iterative solver
          1218 MiB given to the printing process from OS
             0 MiB allocation reported by mallinfo(arena+hblkhd)
        199903 MiB available memory on the node where the printing process lives
------------------
     ethr =  3.02E-11,  avg # of iterations = 23.7

     negative rho (up, down):  5.746E-04 0.000E+00

     add environment contribution to local potential

     total cpu time spent up to now is     3689.9 secs

     total energy              =   -1022.76977702 Ry
     estimated scf accuracy    <       0.00000001 Ry

     total charge of GC-SCF    =      -7.28165871 e
     the Fermi energy          =      -1.90405822 eV
                        (error :       0.00005822 eV)
     electrostatic embedding   =      -5.42602982 Ry
     cavitation energy         =       0.04170471 Ry
     electrolyte free energy   =      -0.08291520 Ry
     correction to one-el term =     257.34509336 Ry

     iteration # 31     ecut=    80.00 Ry     beta= 0.20
     Davidson diagonalization with overlap

---- Real-time Memory Report at c_bands before calling an iterative solver
          1218 MiB given to the printing process from OS
             0 MiB allocation reported by mallinfo(arena+hblkhd)
        199699 MiB available memory on the node where the printing process lives
------------------
     ethr =  6.46E-12,  avg # of iterations = 18.6

     negative rho (up, down):  5.737E-04 0.000E+00

     add environment contribution to local potential

     total cpu time spent up to now is     3803.9 secs

     total energy              =   -1022.76977655 Ry
     estimated scf accuracy    <          9.6E-09 Ry

     total charge of GC-SCF    =      -7.28010251 e
     the Fermi energy          =      -1.90379148 eV
                        (error :       0.00020852 eV)
     electrostatic embedding   =      -5.42902145 Ry
     cavitation energy         =       0.04170471 Ry
     electrolyte free energy   =      -0.08299661 Ry
     correction to one-el term =     257.40558728 Ry

     iteration # 32     ecut=    80.00 Ry     beta= 0.20
     Davidson diagonalization with overlap

---- Real-time Memory Report at c_bands before calling an iterative solver
          1218 MiB given to the printing process from OS
             0 MiB allocation reported by mallinfo(arena+hblkhd)
        200025 MiB available memory on the node where the printing process lives
------------------
     ethr =  4.53E-12,  avg # of iterations = 13.0

     negative rho (up, down):  5.727E-04 0.000E+00

     add environment contribution to local potential

     total cpu time spent up to now is     3899.4 secs

     total energy              =   -1022.76977661 Ry
     estimated scf accuracy    <          6.8E-09 Ry

     total charge of GC-SCF    =      -7.28098982 e
     the Fermi energy          =      -1.90392353 eV
                        (error :       0.00007647 eV)
     electrostatic embedding   =      -5.42686578 Ry
     cavitation energy         =       0.04170471 Ry
     electrolyte free energy   =      -0.08294355 Ry
     correction to one-el term =     257.35538967 Ry

     iteration # 33     ecut=    80.00 Ry     beta= 0.20
     Davidson diagonalization with overlap

---- Real-time Memory Report at c_bands before calling an iterative solver
          1218 MiB given to the printing process from OS
             0 MiB allocation reported by mallinfo(arena+hblkhd)
        199859 MiB available memory on the node where the printing process lives
------------------
     ethr =  3.21E-12,  avg # of iterations = 15.2

     negative rho (up, down):  5.720E-04 0.000E+00

     add environment contribution to local potential

     total cpu time spent up to now is     4010.3 secs

     total energy              =   -1022.76977653 Ry
     estimated scf accuracy    <          8.3E-09 Ry

     total charge of GC-SCF    =      -7.28040446 e
     the Fermi energy          =      -1.90394906 eV
                        (error :       0.00005094 eV)
     electrostatic embedding   =      -5.42786477 Ry
     cavitation energy         =       0.04170471 Ry
     electrolyte free energy   =      -0.08297157 Ry
     correction to one-el term =     257.37275577 Ry

     iteration # 34     ecut=    80.00 Ry     beta= 0.20
     Davidson diagonalization with overlap

---- Real-time Memory Report at c_bands before calling an iterative solver
          1218 MiB given to the printing process from OS
             0 MiB allocation reported by mallinfo(arena+hblkhd)
        199966 MiB available memory on the node where the printing process lives
------------------
     ethr =  3.21E-12,  avg # of iterations = 12.3

     negative rho (up, down):  5.716E-04 0.000E+00

     add environment contribution to local potential

     total cpu time spent up to now is     4097.8 secs

     total energy              =   -1022.76977661 Ry
     estimated scf accuracy    <          1.5E-09 Ry

     total charge of GC-SCF    =      -7.27943831 e
     the Fermi energy          =      -1.90395289 eV
                        (error :       0.00004711 eV)
     electrostatic embedding   =      -5.42700838 Ry
     cavitation energy         =       0.04170471 Ry
     electrolyte free energy   =      -0.08295174 Ry
     correction to one-el term =     257.35229127 Ry

     iteration # 35     ecut=    80.00 Ry     beta= 0.20
     Davidson diagonalization with overlap

---- Real-time Memory Report at c_bands before calling an iterative solver
          1218 MiB given to the printing process from OS
             0 MiB allocation reported by mallinfo(arena+hblkhd)
        199784 MiB available memory on the node where the printing process lives
------------------
     ethr =  7.07E-13,  avg # of iterations = 12.5

     negative rho (up, down):  5.712E-04 0.000E+00

     add environment contribution to local potential

     total cpu time spent up to now is     4200.4 secs

     total energy              =   -1022.76977654 Ry
     estimated scf accuracy    <          7.3E-10 Ry

     total charge of GC-SCF    =      -7.27919087 e
     the Fermi energy          =      -1.90401752 eV
                        (error :       0.00001752 eV)
     electrostatic embedding   =      -5.42572093 Ry
     cavitation energy         =       0.04170471 Ry
     electrolyte free energy   =      -0.08291921 Ry
     correction to one-el term =     257.32373405 Ry

     iteration # 36     ecut=    80.00 Ry     beta= 0.20
     Davidson diagonalization with overlap

---- Real-time Memory Report at c_bands before calling an iterative solver
          1218 MiB given to the printing process from OS
             0 MiB allocation reported by mallinfo(arena+hblkhd)
        199885 MiB available memory on the node where the printing process lives
------------------
     ethr =  3.45E-13,  avg # of iterations = 13.5

     negative rho (up, down):  5.710E-04 0.000E+00

     add environment contribution to local potential

     total cpu time spent up to now is     4303.2 secs

     total energy              =   -1022.76977653 Ry
     estimated scf accuracy    <          2.4E-10 Ry

     total charge of GC-SCF    =      -7.27905070 e
     the Fermi energy          =      -1.90407121 eV
                        (error :       0.00007121 eV)
     electrostatic embedding   =      -5.42543765 Ry
     cavitation energy         =       0.04170471 Ry
     electrolyte free energy   =      -0.08291077 Ry
     correction to one-el term =     257.31800902 Ry

     iteration # 37     ecut=    80.00 Ry     beta= 0.20
     Davidson diagonalization with overlap

---- Real-time Memory Report at c_bands before calling an iterative solver
          1218 MiB given to the printing process from OS
             0 MiB allocation reported by mallinfo(arena+hblkhd)
        199925 MiB available memory on the node where the printing process lives
------------------
     ethr =  1.12E-13,  avg # of iterations = 13.3

     negative rho (up, down):  5.707E-04 0.000E+00

     add environment contribution to local potential

     total cpu time spent up to now is     4405.4 secs

     total energy              =   -1022.76977652 Ry
     estimated scf accuracy    <          1.4E-10 Ry

     total charge of GC-SCF    =      -7.27906381 e
     the Fermi energy          =      -1.90409043 eV
                        (error :       0.00009043 eV)
     electrostatic embedding   =      -5.42528571 Ry
     cavitation energy         =       0.04170471 Ry
     electrolyte free energy   =      -0.08290617 Ry
     correction to one-el term =     257.31537976 Ry

     iteration # 38     ecut=    80.00 Ry     beta= 0.20
     Davidson diagonalization with overlap

---- Real-time Memory Report at c_bands before calling an iterative solver
          1218 MiB given to the printing process from OS
             0 MiB allocation reported by mallinfo(arena+hblkhd)
        199921 MiB available memory on the node where the printing process lives
------------------
     ethr =  1.00E-13,  avg # of iterations =  9.1

     negative rho (up, down):  5.705E-04 0.000E+00

     add environment contribution to local potential

     total cpu time spent up to now is     4483.0 secs

     total energy              =   -1022.76977652 Ry
     estimated scf accuracy    <          3.3E-10 Ry

     total charge of GC-SCF    =      -7.27926197 e
     the Fermi energy          =      -1.90405801 eV
                        (error :       0.00005801 eV)
     electrostatic embedding   =      -5.42532086 Ry
     cavitation energy         =       0.04170471 Ry
     electrolyte free energy   =      -0.08290702 Ry
     correction to one-el term =     257.31696520 Ry

     iteration # 39     ecut=    80.00 Ry     beta= 0.20
     Davidson diagonalization with overlap

---- Real-time Memory Report at c_bands before calling an iterative solver
          1218 MiB given to the printing process from OS
             0 MiB allocation reported by mallinfo(arena+hblkhd)
        199710 MiB available memory on the node where the printing process lives
------------------
     ethr =  1.00E-13,  avg # of iterations =  9.9

     negative rho (up, down):  5.704E-04 0.000E+00

     add environment contribution to local potential

     total cpu time spent up to now is     4562.0 secs

     total energy              =   -1022.76977653 Ry
     estimated scf accuracy    <          1.1E-10 Ry

     total charge of GC-SCF    =      -7.27954653 e
     the Fermi energy          =      -1.90404051 eV
                        (error :       0.00004051 eV)
     electrostatic embedding   =      -5.42560067 Ry
     cavitation energy         =       0.04170471 Ry
     electrolyte free energy   =      -0.08291380 Ry
     correction to one-el term =     257.32362184 Ry

     iteration # 40     ecut=    80.00 Ry     beta= 0.20
     Davidson diagonalization with overlap

---- Real-time Memory Report at c_bands before calling an iterative solver
          1218 MiB given to the printing process from OS
             0 MiB allocation reported by mallinfo(arena+hblkhd)
        199727 MiB available memory on the node where the printing process lives
------------------
     ethr =  1.00E-13,  avg # of iterations = 11.4

     negative rho (up, down):  5.703E-04 0.000E+00

     add environment contribution to local potential

     total cpu time spent up to now is     4651.3 secs

     total energy              =   -1022.76977653 Ry
     estimated scf accuracy    <          1.1E-11 Ry

     total charge of GC-SCF    =      -7.27960389 e
     the Fermi energy          =      -1.90401356 eV
                        (error :       0.00001356 eV)
     electrostatic embedding   =      -5.42598580 Ry
     cavitation energy         =       0.04170471 Ry
     electrolyte free energy   =      -0.08292347 Ry
     correction to one-el term =     257.33240198 Ry

     iteration # 41     ecut=    80.00 Ry     beta= 0.20
     Davidson diagonalization with overlap

---- Real-time Memory Report at c_bands before calling an iterative solver
          1218 MiB given to the printing process from OS
             0 MiB allocation reported by mallinfo(arena+hblkhd)
        199937 MiB available memory on the node where the printing process lives
------------------
     ethr =  1.00E-13,  avg # of iterations = 10.6

     negative rho (up, down):  5.702E-04 0.000E+00

     add environment contribution to local potential

     total cpu time spent up to now is     4723.7 secs

     total energy              =   -1022.76977653 Ry
     estimated scf accuracy    <          5.6E-12 Ry

     total charge of GC-SCF    =      -7.27965705 e
     the Fermi energy          =      -1.90400505 eV
                        (error :       0.00000505 eV)
     electrostatic embedding   =      -5.42606333 Ry
     cavitation energy         =       0.04170471 Ry
     electrolyte free energy   =      -0.08292545 Ry
     correction to one-el term =     257.33420949 Ry

     iteration # 42     ecut=    80.00 Ry     beta= 0.20
     Davidson diagonalization with overlap

---- Real-time Memory Report at c_bands before calling an iterative solver
          1218 MiB given to the printing process from OS
             0 MiB allocation reported by mallinfo(arena+hblkhd)
        199813 MiB available memory on the node where the printing process lives
------------------
     ethr =  1.00E-13,  avg # of iterations = 11.2

     negative rho (up, down):  5.701E-04 0.000E+00

     add environment contribution to local potential

     total cpu time spent up to now is     4797.4 secs

     total energy              =   -1022.76977653 Ry
     estimated scf accuracy    <          1.8E-12 Ry

     total charge of GC-SCF    =      -7.27966818 e
     the Fermi energy          =      -1.90400006 eV
                        (error :       0.00000006 eV)
     electrostatic embedding   =      -5.42613334 Ry
     cavitation energy         =       0.04170471 Ry
     electrolyte free energy   =      -0.08292725 Ry
     correction to one-el term =     257.33575952 Ry

     iteration # 43     ecut=    80.00 Ry     beta= 0.20
     Davidson diagonalization with overlap

---- Real-time Memory Report at c_bands before calling an iterative solver
          1218 MiB given to the printing process from OS
             0 MiB allocation reported by mallinfo(arena+hblkhd)
        199827 MiB available memory on the node where the printing process lives
------------------
     ethr =  1.00E-13,  avg # of iterations = 11.4

     negative rho (up, down):  5.700E-04 0.000E+00

     add environment contribution to local potential

     total cpu time spent up to now is     4863.7 secs

     total energy              =   -1022.76977653 Ry
     estimated scf accuracy    <          1.1E-12 Ry

     total charge of GC-SCF    =      -7.27966974 e
     the Fermi energy          =      -1.90399938 eV
                        (error :       0.00000062 eV)
     electrostatic embedding   =      -5.42614652 Ry
     cavitation energy         =       0.04170471 Ry
     electrolyte free energy   =      -0.08292761 Ry
     correction to one-el term =     257.33600938 Ry

     iteration # 44     ecut=    80.00 Ry     beta= 0.20
     Davidson diagonalization with overlap

---- Real-time Memory Report at c_bands before calling an iterative solver
          1218 MiB given to the printing process from OS
             0 MiB allocation reported by mallinfo(arena+hblkhd)
        199797 MiB available memory on the node where the printing process lives
------------------
     ethr =  1.00E-13,  avg # of iterations = 10.4

     negative rho (up, down):  5.700E-04 0.000E+00

     add environment contribution to local potential

     total cpu time spent up to now is     4926.5 secs

     total energy              =   -1022.76977653 Ry
     estimated scf accuracy    <          3.6E-13 Ry

     total charge of GC-SCF    =      -7.27967256 e
     the Fermi energy          =      -1.90399928 eV
                        (error :       0.00000072 eV)
     electrostatic embedding   =      -5.42614683 Ry
     cavitation energy         =       0.04170471 Ry
     electrolyte free energy   =      -0.08292765 Ry
     correction to one-el term =     257.33596540 Ry

     iteration # 45     ecut=    80.00 Ry     beta= 0.20
     Davidson diagonalization with overlap

---- Real-time Memory Report at c_bands before calling an iterative solver
          1218 MiB given to the printing process from OS
             0 MiB allocation reported by mallinfo(arena+hblkhd)
        199831 MiB available memory on the node where the printing process lives
------------------
     ethr =  1.00E-13,  avg # of iterations =  8.9

     negative rho (up, down):  5.699E-04 0.000E+00

     add environment contribution to local potential

     total cpu time spent up to now is     4985.8 secs

     total energy              =   -1022.76977653 Ry
     estimated scf accuracy    <          2.2E-13 Ry

     total charge of GC-SCF    =      -7.27967751 e
     the Fermi energy          =      -1.90399928 eV
                        (error :       0.00000072 eV)
     electrostatic embedding   =      -5.42614998 Ry
     cavitation energy         =       0.04170471 Ry
     electrolyte free energy   =      -0.08292774 Ry
     correction to one-el term =     257.33601444 Ry

     iteration # 46     ecut=    80.00 Ry     beta= 0.20
     Davidson diagonalization with overlap

---- Real-time Memory Report at c_bands before calling an iterative solver
          1218 MiB given to the printing process from OS
             0 MiB allocation reported by mallinfo(arena+hblkhd)
        199805 MiB available memory on the node where the printing process lives
------------------
     ethr =  1.00E-13,  avg # of iterations =  7.4

     negative rho (up, down):  5.699E-04 0.000E+00

     add environment contribution to local potential

     total cpu time spent up to now is     5042.0 secs

     total energy              =   -1022.76977653 Ry
     estimated scf accuracy    <          2.6E-13 Ry

     total charge of GC-SCF    =      -7.27967223 e
     the Fermi energy          =      -1.90399886 eV
                        (error :       0.00000114 eV)
     electrostatic embedding   =      -5.42615674 Ry
     cavitation energy         =       0.04170471 Ry
     electrolyte free energy   =      -0.08292791 Ry
     correction to one-el term =     257.33616799 Ry

     iteration # 47     ecut=    80.00 Ry     beta= 0.20
     Davidson diagonalization with overlap

---- Real-time Memory Report at c_bands before calling an iterative solver
          1218 MiB given to the printing process from OS
             0 MiB allocation reported by mallinfo(arena+hblkhd)
        199762 MiB available memory on the node where the printing process lives
------------------
     ethr =  1.00E-13,  avg # of iterations =  6.8

     negative rho (up, down):  5.699E-04 0.000E+00

     add environment contribution to local potential

     total cpu time spent up to now is     5097.7 secs

     total energy              =   -1022.76977653 Ry
     estimated scf accuracy    <          5.0E-14 Ry

     total charge of GC-SCF    =      -7.27967031 e
     the Fermi energy          =      -1.90399954 eV
                        (error :       0.00000046 eV)
     electrostatic embedding   =      -5.42614976 Ry
     cavitation energy         =       0.04170471 Ry
     electrolyte free energy   =      -0.08292773 Ry
     correction to one-el term =     257.33600905 Ry

     iteration # 48     ecut=    80.00 Ry     beta= 0.20
     Davidson diagonalization with overlap

---- Real-time Memory Report at c_bands before calling an iterative solver
          1218 MiB given to the printing process from OS
             0 MiB allocation reported by mallinfo(arena+hblkhd)
        199770 MiB available memory on the node where the printing process lives
------------------
     ethr =  1.00E-13,  avg # of iterations =  3.4

     negative rho (up, down):  5.699E-04 0.000E+00

     add environment contribution to local potential

     total cpu time spent up to now is     5146.7 secs

     total energy              =   -1022.76977653 Ry
     estimated scf accuracy    <          2.5E-14 Ry

     total charge of GC-SCF    =      -7.27966916 e
     the Fermi energy          =      -1.90399971 eV
                        (error :       0.00000029 eV)
     electrostatic embedding   =      -5.42614750 Ry
     cavitation energy         =       0.04170471 Ry
     electrolyte free energy   =      -0.08292767 Ry
     correction to one-el term =     257.33596627 Ry

     iteration # 49     ecut=    80.00 Ry     beta= 0.20
     Davidson diagonalization with overlap

---- Real-time Memory Report at c_bands before calling an iterative solver
          1218 MiB given to the printing process from OS
             0 MiB allocation reported by mallinfo(arena+hblkhd)
        199804 MiB available memory on the node where the printing process lives
------------------
     ethr =  1.00E-13,  avg # of iterations =  6.4

     negative rho (up, down):  5.699E-04 0.000E+00

     add environment contribution to local potential

     total cpu time spent up to now is     5200.2 secs

     total energy              =   -1022.76977653 Ry
     estimated scf accuracy    <          2.2E-14 Ry

     total charge of GC-SCF    =      -7.27966605 e
     the Fermi energy          =      -1.90399992 eV
                        (error :       0.00000008 eV)
     electrostatic embedding   =      -5.42614631 Ry
     cavitation energy         =       0.04170471 Ry
     electrolyte free energy   =      -0.08292763 Ry
     correction to one-el term =     257.33594826 Ry

     iteration # 50     ecut=    80.00 Ry     beta= 0.20
     Davidson diagonalization with overlap

---- Real-time Memory Report at c_bands before calling an iterative solver
          1218 MiB given to the printing process from OS
             0 MiB allocation reported by mallinfo(arena+hblkhd)
        199802 MiB available memory on the node where the printing process lives
------------------
     ethr =  1.00E-13,  avg # of iterations =  1.0

     negative rho (up, down):  5.698E-04 0.000E+00

     add environment contribution to local potential

     total cpu time spent up to now is     5245.1 secs

     total energy              =   -1022.76977653 Ry
     estimated scf accuracy    <          1.5E-14 Ry

     total charge of GC-SCF    =      -7.27966596 e
     the Fermi energy          =      -1.90399998 eV
                        (error :       0.00000002 eV)
     electrostatic embedding   =      -5.42614234 Ry
     cavitation energy         =       0.04170471 Ry
     electrolyte free energy   =      -0.08292753 Ry
     correction to one-el term =     257.33586602 Ry

     iteration # 51     ecut=    80.00 Ry     beta= 0.20
     Davidson diagonalization with overlap

---- Real-time Memory Report at c_bands before calling an iterative solver
          1218 MiB given to the printing process from OS
             0 MiB allocation reported by mallinfo(arena+hblkhd)
        199798 MiB available memory on the node where the printing process lives
------------------
     ethr =  1.00E-13,  avg # of iterations =  1.2

     negative rho (up, down):  5.698E-04 0.000E+00

     total cpu time spent up to now is     5273.2 secs

     End of self-consistent calculation

          k = 0.0000 0.0000 0.0000 (425513 PWs)   bands (ev):

   -48.9816 -48.9816 -48.9815 -48.9815 -48.9084 -48.9084 -48.9084 -48.9084
   -48.8791 -48.8791 -48.8790 -48.8790 -48.5567 -48.5567 -48.5565 -48.5565
   -48.5265 -48.5265 -48.5265 -48.5265 -48.4852 -48.4851 -48.4851 -48.4851
   -48.4476 -48.4475 -48.4475 -48.4475 -48.4336 -48.4310 -48.4288 -48.4274
   -48.4269 -48.4209 -48.4206 -48.4202 -48.4187 -48.4175 -48.4174 -48.4164
   -48.4151 -48.4144 -48.4142 -48.4140 -48.4116 -48.4109 -48.4107 -48.4102
   -48.4096 -48.4083 -48.4083 -48.4081 -48.4072 -48.4071 -48.4053 -48.4048
[...]
     atom   63 type  1   force =     0.00010624    0.24961676   14.06639596
     atom   64 type  1   force =    -0.00029016    0.05030748    5.31099389
     atom   65 type  1   force =    -0.00010694   -0.22875276   12.39896787
     atom   66 type  1   force =    -0.00013604    0.20895906  -14.56021978
     atom   67 type  1   force =     0.00008989   -0.14649241  -11.94399977
     atom   68 type  1   force =    -0.00006925   -0.03603418  -13.64663269
     The core correction contribution to forces
     atom    1 type  1   force =     0.00000000    0.00000000    0.00000000
     atom    2 type  1   force =     0.00000000    0.00000000    0.00000000
     atom    3 type  1   force =     0.00000000    0.00000000    0.00000000
     atom    4 type  1   force =     0.00000000    0.00000000    0.00000000
     atom    5 type  1   force =     0.00000000    0.00000000    0.00000000
     atom    6 type  1   force =     0.00000000    0.00000000    0.00000000
     atom    7 type  1   force =     0.00000000    0.00000000    0.00000000
     atom    8 type  1   force =     0.00000000    0.00000000    0.00000000
     atom    9 type  1   force =     0.00000000    0.00000000    0.00000000
     atom   10 type  1   force =     0.00000000    0.00000000    0.00000000
     atom   11 type  1   force =     0.00000000    0.00000000    0.00000000
     atom   12 type  1   force =     0.00000000    0.00000000    0.00000000
     atom   13 type  1   force =     0.00000000    0.00000000    0.00000000
     atom   14 type  1   force =     0.00000000    0.00000000    0.00000000
     atom   15 type  1   force =     0.00000000    0.00000000    0.00000000
     atom   16 type  1   force =     0.00000000    0.00000000    0.00000000
     atom   17 type  1   force =     0.00000000    0.00000000    0.00000000
     atom   18 type  1   force =     0.00000000    0.00000000    0.00000000
     atom   19 type  1   force =     0.00000000    0.00000000    0.00000000
     atom   20 type  1   force =     0.00000000    0.00000000    0.00000000
     atom   21 type  1   force =     0.00000000    0.00000000    0.00000000
     atom   22 type  1   force =     0.00000000    0.00000000    0.00000000
     atom   23 type  1   force =     0.00000000    0.00000000    0.00000000
     atom   24 type  1   force =     0.00000000    0.00000000    0.00000000
     atom   25 type  1   force =     0.00000000    0.00000000    0.00000000
     atom   26 type  1   force =     0.00000000    0.00000000    0.00000000
     atom   27 type  1   force =     0.00000000    0.00000000    0.00000000
     atom   28 type  1   force =     0.00000000    0.00000000    0.00000000
     atom   29 type  1   force =     0.00000000    0.00000000    0.00000000
     atom   30 type  1   force =     0.00000000    0.00000000    0.00000000
     atom   31 type  1   force =     0.00000000    0.00000000    0.00000000
     atom   32 type  1   force =     0.00000000    0.00000000    0.00000000
     atom   33 type  1   force =     0.00000000    0.00000000    0.00000000
     atom   34 type  1   force =     0.00000000    0.00000000    0.00000000
     atom   35 type  1   force =     0.00000000    0.00000000    0.00000000
     atom   36 type  1   force =     0.00000000    0.00000000    0.00000000
     atom   37 type  1   force =     0.00000000    0.00000000    0.00000000
     atom   38 type  1   force =     0.00000000    0.00000000    0.00000000
     atom   39 type  1   force =     0.00000000    0.00000000    0.00000000
     atom   40 type  1   force =     0.00000000    0.00000000    0.00000000
     atom   41 type  1   force =     0.00000000    0.00000000    0.00000000
     atom   42 type  1   force =     0.00000000    0.00000000    0.00000000
     atom   43 type  1   force =     0.00000000    0.00000000    0.00000000
     atom   44 type  1   force =     0.00000000    0.00000000    0.00000000
     atom   45 type  1   force =     0.00000000    0.00000000    0.00000000
     atom   46 type  1   force =     0.00000000    0.00000000    0.00000000
     atom   47 type  1   force =     0.00000000    0.00000000    0.00000000
     atom   48 type  1   force =     0.00000000    0.00000000    0.00000000
     atom   49 type  1   force =     0.00000000    0.00000000    0.00000000
     atom   50 type  1   force =     0.00000000    0.00000000    0.00000000
     atom   51 type  1   force =     0.00000000    0.00000000    0.00000000
     atom   52 type  1   force =     0.00000000    0.00000000    0.00000000
     atom   53 type  1   force =     0.00000000    0.00000000    0.00000000
     atom   54 type  1   force =     0.00000000    0.00000000    0.00000000
     atom   55 type  1   force =     0.00000000    0.00000000    0.00000000
     atom   56 type  1   force =     0.00000000    0.00000000    0.00000000
     atom   57 type  1   force =     0.00000000    0.00000000    0.00000000
     atom   58 type  1   force =     0.00000000    0.00000000    0.00000000
     atom   59 type  1   force =     0.00000000    0.00000000    0.00000000
     atom   60 type  1   force =     0.00000000    0.00000000    0.00000000
     atom   61 type  1   force =     0.00000000    0.00000000    0.00000000
     atom   62 type  1   force =     0.00000000    0.00000000    0.00000000
     atom   63 type  1   force =     0.00000000    0.00000000    0.00000000
     atom   64 type  1   force =     0.00000000    0.00000000    0.00000000
     atom   65 type  1   force =     0.00000000    0.00000000    0.00000000
     atom   66 type  1   force =     0.00000000    0.00000000    0.00000000
     atom   67 type  1   force =     0.00000000    0.00000000    0.00000000
     atom   68 type  1   force =     0.00000000    0.00000000    0.00000000
     The Hubbard contrib.    to forces
     atom    1 type  1   force =     0.00000000    0.00000000    0.00000000
     atom    2 type  1   force =     0.00000000    0.00000000    0.00000000
     atom    3 type  1   force =     0.00000000    0.00000000    0.00000000
     atom    4 type  1   force =     0.00000000    0.00000000    0.00000000
     atom    5 type  1   force =     0.00000000    0.00000000    0.00000000
     atom    6 type  1   force =     0.00000000    0.00000000    0.00000000
     atom    7 type  1   force =     0.00000000    0.00000000    0.00000000
     atom    8 type  1   force =     0.00000000    0.00000000    0.00000000
     atom    9 type  1   force =     0.00000000    0.00000000    0.00000000
     atom   10 type  1   force =     0.00000000    0.00000000    0.00000000
     atom   11 type  1   force =     0.00000000    0.00000000    0.00000000
     atom   12 type  1   force =     0.00000000    0.00000000    0.00000000
     atom   13 type  1   force =     0.00000000    0.00000000    0.00000000
     atom   14 type  1   force =     0.00000000    0.00000000    0.00000000
     atom   15 type  1   force =     0.00000000    0.00000000    0.00000000
     atom   16 type  1   force =     0.00000000    0.00000000    0.00000000
     atom   17 type  1   force =     0.00000000    0.00000000    0.00000000
     atom   18 type  1   force =     0.00000000    0.00000000    0.00000000
     atom   19 type  1   force =     0.00000000    0.00000000    0.00000000
     atom   20 type  1   force =     0.00000000    0.00000000    0.00000000
     atom   21 type  1   force =     0.00000000    0.00000000    0.00000000
     atom   22 type  1   force =     0.00000000    0.00000000    0.00000000
     atom   23 type  1   force =     0.00000000    0.00000000    0.00000000
     atom   24 type  1   force =     0.00000000    0.00000000    0.00000000
     atom   25 type  1   force =     0.00000000    0.00000000    0.00000000
     atom   26 type  1   force =     0.00000000    0.00000000    0.00000000
     atom   27 type  1   force =     0.00000000    0.00000000    0.00000000
     atom   28 type  1   force =     0.00000000    0.00000000    0.00000000
     atom   29 type  1   force =     0.00000000    0.00000000    0.00000000
     atom   30 type  1   force =     0.00000000    0.00000000    0.00000000
     atom   31 type  1   force =     0.00000000    0.00000000    0.00000000
     atom   32 type  1   force =     0.00000000    0.00000000    0.00000000
     atom   33 type  1   force =     0.00000000    0.00000000    0.00000000
     atom   34 type  1   force =     0.00000000    0.00000000    0.00000000
     atom   35 type  1   force =     0.00000000    0.00000000    0.00000000
     atom   36 type  1   force =     0.00000000    0.00000000    0.00000000
     atom   37 type  1   force =     0.00000000    0.00000000    0.00000000
     atom   38 type  1   force =     0.00000000    0.00000000    0.00000000
     atom   39 type  1   force =     0.00000000    0.00000000    0.00000000
     atom   40 type  1   force =     0.00000000    0.00000000    0.00000000
     atom   41 type  1   force =     0.00000000    0.00000000    0.00000000
     atom   42 type  1   force =     0.00000000    0.00000000    0.00000000
     atom   43 type  1   force =     0.00000000    0.00000000    0.00000000
     atom   44 type  1   force =     0.00000000    0.00000000    0.00000000
     atom   45 type  1   force =     0.00000000    0.00000000    0.00000000
     atom   46 type  1   force =     0.00000000    0.00000000    0.00000000
     atom   47 type  1   force =     0.00000000    0.00000000    0.00000000
     atom   48 type  1   force =     0.00000000    0.00000000    0.00000000
     atom   49 type  1   force =     0.00000000    0.00000000    0.00000000
     atom   50 type  1   force =     0.00000000    0.00000000    0.00000000
     atom   51 type  1   force =     0.00000000    0.00000000    0.00000000
     atom   52 type  1   force =     0.00000000    0.00000000    0.00000000
     atom   53 type  1   force =     0.00000000    0.00000000    0.00000000
     atom   54 type  1   force =     0.00000000    0.00000000    0.00000000
     atom   55 type  1   force =     0.00000000    0.00000000    0.00000000
     atom   56 type  1   force =     0.00000000    0.00000000    0.00000000
     atom   57 type  1   force =     0.00000000    0.00000000    0.00000000
     atom   58 type  1   force =     0.00000000    0.00000000    0.00000000
     atom   59 type  1   force =     0.00000000    0.00000000    0.00000000
     atom   60 type  1   force =     0.00000000    0.00000000    0.00000000
     atom   61 type  1   force =     0.00000000    0.00000000    0.00000000
     atom   62 type  1   force =     0.00000000    0.00000000    0.00000000
     atom   63 type  1   force =     0.00000000    0.00000000    0.00000000
     atom   64 type  1   force =     0.00000000    0.00000000    0.00000000
     atom   65 type  1   force =     0.00000000    0.00000000    0.00000000
     atom   66 type  1   force =     0.00000000    0.00000000    0.00000000
     atom   67 type  1   force =     0.00000000    0.00000000    0.00000000
     atom   68 type  1   force =     0.00000000    0.00000000    0.00000000
     The SCF correction term to forces
     atom    1 type  1   force =     0.00000000   -0.00000001   -0.00000004
     atom    2 type  1   force =    -0.00000000   -0.00000001    0.00000003
     atom    3 type  1   force =    -0.00000000    0.00000001    0.00000003
     atom    4 type  1   force =    -0.00000001   -0.00000000    0.00000002
     atom    5 type  1   force =     0.00000000   -0.00000000    0.00000004
     atom    6 type  1   force =    -0.00000001   -0.00000000    0.00000004
     atom    7 type  1   force =    -0.00000000   -0.00000001   -0.00000000
     atom    8 type  1   force =    -0.00000000    0.00000000    0.00000004
     atom    9 type  1   force =     0.00000000   -0.00000001    0.00000005
     atom   10 type  1   force =    -0.00000000    0.00000000    0.00000002
     atom   11 type  1   force =    -0.00000000    0.00000000   -0.00000001
     atom   12 type  1   force =    -0.00000000    0.00000000   -0.00000002
     atom   13 type  1   force =    -0.00000000    0.00000000    0.00000002
     atom   14 type  1   force =    -0.00000000   -0.00000001   -0.00000001
     atom   15 type  1   force =    -0.00000000    0.00000001   -0.00000002
     atom   16 type  1   force =    -0.00000000    0.00000001   -0.00000002
     atom   17 type  1   force =    -0.00000000   -0.00000001   -0.00000002
     atom   18 type  1   force =    -0.00000000    0.00000000    0.00000003
     atom   19 type  1   force =    -0.00000000    0.00000000    0.00000004
     atom   20 type  1   force =    -0.00000000    0.00000000    0.00000004
     atom   21 type  1   force =    -0.00000000   -0.00000000    0.00000005
     atom   22 type  1   force =    -0.00000000    0.00000001    0.00000003
     atom   23 type  1   force =    -0.00000000    0.00000001    0.00000001
     atom   24 type  1   force =    -0.00000000   -0.00000001   -0.00000002
     atom   25 type  1   force =    -0.00000000   -0.00000001    0.00000002
     atom   26 type  1   force =     0.00000000   -0.00000000   -0.00000001
     atom   27 type  1   force =    -0.00000000    0.00000001   -0.00000002
     atom   28 type  1   force =    -0.00000000   -0.00000001   -0.00000002
     atom   29 type  1   force =     0.00000000    0.00000000   -0.00000003
     atom   30 type  1   force =    -0.00000000   -0.00000000   -0.00000001
     atom   31 type  1   force =    -0.00000000    0.00000000   -0.00000002
     atom   32 type  1   force =    -0.00000000    0.00000000    0.00000003
     atom   33 type  1   force =    -0.00000000   -0.00000001    0.00000003
     atom   34 type  1   force =    -0.00000001    0.00000000    0.00000002
     atom   35 type  1   force =    -0.00000000    0.00000000   -0.00000006
     atom   36 type  1   force =     0.00000000   -0.00000001    0.00000003
     atom   37 type  1   force =    -0.00000000    0.00000001    0.00000003
     atom   38 type  1   force =    -0.00000000   -0.00000000    0.00000002
     atom   39 type  1   force =     0.00000000   -0.00000000    0.00000005
     atom   40 type  1   force =     0.00000000   -0.00000000    0.00000004
     atom   41 type  1   force =     0.00000000   -0.00000001   -0.00000000
     atom   42 type  1   force =     0.00000000    0.00000000    0.00000004
     atom   43 type  1   force =     0.00000000   -0.00000001    0.00000005
     atom   44 type  1   force =     0.00000000    0.00000000    0.00000001
     atom   45 type  1   force =     0.00000000    0.00000001   -0.00000001
     atom   46 type  1   force =    -0.00000000    0.00000000   -0.00000002
     atom   47 type  1   force =     0.00000000    0.00000000    0.00000001
     atom   48 type  1   force =     0.00000001   -0.00000001   -0.00000001
     atom   49 type  1   force =    -0.00000000    0.00000001   -0.00000003
     atom   50 type  1   force =     0.00000000    0.00000001   -0.00000002
     atom   51 type  1   force =     0.00000000   -0.00000001   -0.00000002
     atom   52 type  1   force =     0.00000000    0.00000000    0.00000003
     atom   53 type  1   force =     0.00000000    0.00000000    0.00000004
     atom   54 type  1   force =    -0.00000000    0.00000001    0.00000004
     atom   55 type  1   force =     0.00000000   -0.00000000    0.00000004
     atom   56 type  1   force =     0.00000000    0.00000001    0.00000003
     atom   57 type  1   force =     0.00000000    0.00000001    0.00000001
     atom   58 type  1   force =     0.00000000   -0.00000001   -0.00000002
     atom   59 type  1   force =     0.00000000   -0.00000001    0.00000002
     atom   60 type  1   force =     0.00000000    0.00000000   -0.00000001
     atom   61 type  1   force =     0.00000000    0.00000000   -0.00000002
     atom   62 type  1   force =     0.00000000   -0.00000000   -0.00000002
     atom   63 type  1   force =    -0.00000000    0.00000000   -0.00000002
     atom   64 type  1   force =     0.00000000   -0.00000000   -0.00000001
     atom   65 type  1   force =     0.00000000    0.00000000   -0.00000002
     atom   66 type  1   force =     0.00000000   -0.00000000    0.00000004
     atom   67 type  1   force =     0.00000000   -0.00000001    0.00000003
     atom   68 type  1   force =    -0.00000000    0.00000000    0.00000002

     Total force =     0.002774     Total SCF correction =     0.000000

     Writing all to output data dir ./Li/Lithium.save/ :
     XML data file
     init_run     :     36.65s CPU     48.14s WALL (       1 calls)
     electrons    :   3952.77s CPU   5224.82s WALL (       1 calls)
     forces       :    111.00s CPU    116.09s WALL (       1 calls)

     Called by init_run:
     wfcinit      :      7.67s CPU     10.74s WALL (       1 calls)
     wfcinit:wfcr :      7.07s CPU     10.12s WALL (      13 calls)
     potinit      :      1.21s CPU      1.29s WALL (       1 calls)
     hinit0       :     12.47s CPU     20.44s WALL (       1 calls)

     Called by electrons:
     c_bands      :   3110.25s CPU   4204.64s WALL (      51 calls)
     sum_band     :    183.26s CPU    257.80s WALL (      51 calls)
     v_of_rho     :      7.27s CPU      8.38s WALL (      52 calls)
     v_h          :      0.63s CPU      0.71s WALL (      52 calls)
     v_xc         :      6.64s CPU      7.66s WALL (      52 calls)
     newd         :      4.62s CPU      6.40s WALL (      52 calls)
     PAW_pot      :      0.56s CPU      0.76s WALL (      52 calls)
     mix_rho      :     22.60s CPU     26.27s WALL (      51 calls)

     Called by c_bands:
     init_us_2    :     34.12s CPU     34.33s WALL (    1352 calls)
     cegterg      :   2908.21s CPU   3698.88s WALL (     839 calls)

     Called by sum_band:
     sum_band:wei :      0.12s CPU      0.15s WALL (      51 calls)
     sum_band:loo :    177.55s CPU    251.53s WALL (      51 calls)
     sum_band:buf :      3.78s CPU      3.89s WALL (     663 calls)
     sum_band:ini :     16.94s CPU     16.96s WALL (     663 calls)
     sum_band:cal :     34.15s CPU     36.30s WALL (     663 calls)
     sum_band:bec :      0.27s CPU      0.32s WALL (     663 calls)
     addusdens    :      4.42s CPU      4.45s WALL (      51 calls)
                                        0.00s GPU  (      51 calls)
     addusd:skk   :      1.23s CPU      1.23s WALL (      51 calls)
                                        0.00s GPU  (      51 calls)

     Called by *egterg:
     cdiaghg      :    726.96s CPU    828.30s WALL (   10794 calls)
     cegterg:over :    225.11s CPU    243.00s WALL (   10031 calls)
     cegterg:upda :    191.15s CPU    198.01s WALL (   10031 calls)
     cegterg:last :     80.14s CPU     86.44s WALL (    1102 calls)
     cdiaghg:chol :     35.06s CPU     65.89s WALL (   10794 calls)
     cdiaghg:inve :     16.34s CPU     18.10s WALL (   10794 calls)
     cdiaghg:para :    202.29s CPU    235.85s WALL (   21588 calls)
     h_psi        :   1469.89s CPU   2126.97s WALL (   10883 calls)
     s_psi        :    176.70s CPU    177.26s WALL (   10883 calls)
     g_psi        :      3.18s CPU      3.45s WALL (   10031 calls)

     Called by h_psi:
     h_psi:calbec :    207.36s CPU    224.94s WALL (   10883 calls)
     vloc_psi     :   1067.88s CPU   1705.75s WALL (   10883 calls)
                                        0.00s GPU  (   10883 calls)
     add_vuspsi   :    182.86s CPU    183.97s WALL (   10883 calls)

     General routines
     calbec       :    243.84s CPU    263.72s WALL (   11598 calls)
     fft          :      9.92s CPU     18.40s WALL (     676 calls)
     ffts         :     11.64s CPU     13.99s WALL (    6253 calls)
     fftw         :   1145.81s CPU   1832.53s WALL ( 1011571 calls)
     interpolate  :      1.52s CPU      1.65s WALL (      52 calls)

     Parallel routines

     PAW routines
     PAW_pot      :      0.56s CPU      0.76s WALL (      52 calls)

     Environ routines

     PWSCF        :      1h 8m CPU      1h29m WALL


   This run was terminated on:  22: 7:41   5Jan2025            

=------------------------------------------------------------------------------=
   JOB DONE.
=------------------------------------------------------------------------------=
