
     Program PWSCF v.7.4 starts on 21Jan2025 at 10:58:19 

     This program is part of the open-source Quantum ESPRESSO suite
     for quantum simulation of materials; please cite
         "P. Giannozzi et al., J. Phys.:Condens. Matter 21 395502 (2009);
         "P. Giannozzi et al., J. Phys.:Condens. Matter 29 465901 (2017);
         "P. Giannozzi et al., J. Chem. Phys. 152 154105 (2020);
          URL http://www.quantum-espresso.org", 
     in publications or presentations arising from this work. More details at
     http://www.quantum-espresso.org/quote

     Parallel version (MPI & OpenMP), running on     512 processor cores
     Number of MPI processes:               512
     Threads/MPI process:                     1

     MPI processes distributed on     4 nodes
     233054 MiB available memory on the printing compute node when the environment starts

     Reading input from espresso.pwi
Warning: card &CELL ignored
Warning: card    PRESS_CONV_THR   = 0.1 ignored
Warning: card    CELL_DOFREE      = 'ALL' ignored
Warning: card / ignored
Warning: card &FCP ignored
Warning: card / ignored
Warning: card &RISM ignored
Warning: card / ignored

     Current dimensions of program PWSCF are:
     Max number of different atomic species (ntypx) = 10
     Max number of k-points (npk) =  40000
     Max angular momentum in pseudopotentials (lmaxx) =  4

     IMPORTANT: XC functional enforced from input :
     Exchange-correlation= PBE
                           (   1   4   3   4   0   0   0)
     Any further DFT definition will be discarded
     Please, verify this is what you really want


     Reading input from environ.in:
     * using ionic solvent mode
     * setting boundary derivatives method to SSCS default
     * setting electrolyte-boundary derivatives method to SSCS default

Environ Warning (1001): card EOF ignored

     
     Found identity + (  0.5000 -0.0000  0.0000) symmetry
     This is a supercell, fractional translations are disabled

     K-points division:     npool     =       2
     R & G space division:  proc/nbgrp/npool/nimage =     256
     Subspace diagonalization in iterative solution of the eigenvalue problem:
     a serial algorithm will be used


     Parallelization info
     --------------------
     sticks:   dense  smooth     PW     G-vecs:    dense   smooth      PW
     Min          75      30      8                44583    11270    1514
     Max          76      31      9                44636    11296    1560
     Sum       19367    7745   2063             11420683  2888861  395615

     Using Slab Decomposition



     bravais-lattice index     =            8
     lattice parameter (alat)  =      12.9830  a.u.
     unit-cell volume          =   29886.2289 (a.u.)^3
     number of atoms/cell      =           52
     number of atomic types    =            1
     number of electrons       =       156.00
     number of Kohn-Sham states=          117
     kinetic-energy cutoff     =      80.0000  Ry
     charge density cutoff     =     800.0000  Ry
     scf convergence threshold =      1.0E-16
     mixing beta               =       0.2000
     number of iterations used =            8  local-TF  mixing
     Exchange-correlation= PBE
                           (   1   4   3   4   0   0   0)

     ================================================================================

                                  Environ Setup Summary

     ================================================================================

     Please cite

          O. Andreussi, I. Dabo and N. Marzari, J. Chem. Phys. 136, 064102 (2012)
          F. Nattino, M. Truscott, N. Marzari, and O. Andreussi, J. Chem. Phys. 150, 041722 (2019)

     in publications or presentations arising from this work.

     ================================================================================

     Parameters
     ==========

     compensation onset threshold      =               0.1000E+00
     static permittivity               =                    89.90
     surface tension in input (dyn/cm) =                    37.30
     surface tension in internal units =               0.4792E-04

     Solvent Boundary
     ================

     solvent mode                      =                    ionic
     derivatives method                =                   lowmem
     electrolyte derivatives method    =                   lowmem
     numerical core for derivatives    =                      fft
     switching function adopted        =                     SCCS
     density limit for vacuum region   =               0.5000E-02
     density limit for bulk solvent    =               0.1000E-03
     soft-sphere radius mode           =                    bondi
     soft-sphere softness              =                     0.50
     alpha                             =                     1.32

     Electrostatic Setup
     ===================

     electrostatic problem to solve    =                    modpb
     numerical solver adopted          =                   newton
     type of auxiliary density adopted =                     none
     numerical core for poisson        =                      fft
     adopting a nested solver scheme
     inner solver                      =                       cg
     inner core                        =                      fft
     type of pbc corrections           =                parabolic
     numerical core for corrections    =                      1da

     ================================================================================


     >>>>> Grand-Canonical SCF is activated <<<<<
     Initial Total Charge  =     0.000000 e
     Target Fermi Energy   =    -5.404000 eV
     Thr. of Fermi Energy  =     0.001000 eV
     Wave-shift of Kerker  =     0.400000 bohr^-1
     Wave-shift of Hartree =     1.500000 bohr^-1
     Mixing Rate of Fermi  =     0.050000

     celldm(1)=  12.983009  celldm(2)=   1.802776  celldm(3)=   7.575360
     celldm(4)=   0.000000  celldm(5)=   0.000000  celldm(6)=   0.000000

     crystal axes: (cart. coord. in units of alat)
               a(1) = (   1.000000   0.000000   0.000000 )  
               a(2) = (   0.000000   1.802776   0.000000 )  
               a(3) = (   0.000000   0.000000   7.575360 )  

     reciprocal axes: (cart. coord. in units 2 pi/alat)
               b(1) = (  1.000000  0.000000  0.000000 )  
               b(2) = (  0.000000  0.554700  0.000000 )  
               b(3) = (  0.000000  0.000000  0.132007 )  


     PseudoPot. # 1 for Li read from file:
     /work/e89/e89/ba3g18/Repos/Pseudopotentials/Pslibrary/Li.pbe-sl-kjpaw_psl.1.0.0.UPF
     MD5 check sum: 3f4d2cafebb47c6c3aa8ed472e6f074d
     Pseudo is Projector augmented-wave, Zval =  3.0
     Generated using 'atomic' code by A. Dal Corso  v.7.4
     Shape of augmentation charge: PSQ
     Using radial grid of 1017 points,  4 beta functions with: 
                l(1) =   0
                l(2) =   0
                l(3) =   1
                l(4) =   1
     Q(r) pseudized with 0 coefficients 


     atomic species   valence    mass     pseudopotential
     Li                3.00     6.94000     Li( 1.00)

      2 Sym. Ops. (no inversion) found


                                    s                        frac. trans.

      isym =  1     identity                                     

 cryst.   s( 1) = (     1          0          0      )
                  (     0          1          0      )
                  (     0          0          1      )

 cart.    s( 1) = (  1.0000000  0.0000000  0.0000000 )
                  (  0.0000000  1.0000000  0.0000000 )
                  (  0.0000000  0.0000000  1.0000000 )


      isym =  2     inv. 180 deg rotation - cart. axis [1,0,0]   

 cryst.   s( 2) = (    -1          0          0      )
                  (     0          1          0      )
                  (     0          0          1      )

 cart.    s( 2) = ( -1.0000000  0.0000000  0.0000000 )
                  (  0.0000000  1.0000000  0.0000000 )
                  (  0.0000000  0.0000000  1.0000000 )


     point group C_s (m)    
     there are  2 classes
     the character table:

       E     s    
A'     1.00  1.00
A''    1.00 -1.00

     the symmetry operations in each class and the name of the first element:

     E        1
          identity                                               
     s        2
          inv. 180 deg rotation - cart. axis [1,0,0]             

   Cartesian axes

     site n.     atom                  positions (alat units)
         1        Li     tau(   1) = (   0.0000000   1.1414345   4.5369350  )
         2        Li     tau(   2) = (   0.0000000   1.5061196   4.2899553  )
         3        Li     tau(   3) = (   0.0000000   0.3964505   4.3112090  )
         4        Li     tau(   4) = (   0.0000000   0.8269846   4.1269498  )
         5        Li     tau(   5) = (   0.0000000   1.2449357   3.8140256  )
         6        Li     tau(   6) = (   0.0000000   1.6520040   3.5900699  )
         7        Li     tau(   7) = (   0.0000000   0.1264300   3.9626114  )
         8        Li     tau(   8) = (   0.0000000   0.5723166   3.6402490  )
         9        Li     tau(   9) = (   0.0000000   0.9774369   3.3960554  )
        10        Li     tau(  10) = (   0.0000000   1.4115533   3.0996565  )
        11        Li     tau(  11) = (   0.0000000   0.3015524   3.2404730  )
        12        Li     tau(  12) = (   0.0000000   0.6024023   2.9148030  )
        13        Li     tau(  13) = (   0.0000000   0.1781964   4.7190547  )
        14        Li     tau(  14) = (   0.2500007   1.1720292   4.1793077  )
        15        Li     tau(  15) = (   0.2500001   1.5771495   3.9351158  )
        16        Li     tau(  16) = (   0.2499997   0.4974583   3.9852955  )
        17        Li     tau(  17) = (   0.2500010   0.9045323   3.7613386  )
        18        Li     tau(  18) = (   0.2500016   1.3224786   3.4484130  )
        19        Li     tau(  19) = (   0.2500004   1.7530079   3.2641518  )
        20        Li     tau(  20) = (   0.2499991   0.2202566   3.6127509  )
        21        Li     tau(  21) = (   0.2499998   0.6433440   3.2854045  )
        22        Li     tau(  22) = (   0.2500002   1.0080236   3.0384276  )
        23        Li     tau(  23) = (   0.2499999   1.5470652   4.6605535  )
        24        Li     tau(  24) = (   0.2500002   0.1684969   2.8563015  )
        25        Li     tau(  25) = (   0.2499999   0.7379004   4.4757047  )
        26        Li     tau(  26) = (   0.2499996   0.0451348   4.3348866  )
        27        Li     tau(  27) = (   0.5000000   1.1414345   4.5369361  )
        28        Li     tau(  28) = (   0.5000000   1.5061200   4.2899553  )
        29        Li     tau(  29) = (   0.5000000   0.3964501   4.3112100  )
        30        Li     tau(  30) = (   0.5000000   0.8269841   4.1269500  )
        31        Li     tau(  31) = (   0.5000000   1.2449361   3.8140253  )
        32        Li     tau(  32) = (   0.5000000   1.6520052   3.5900704  )
        33        Li     tau(  33) = (   0.5000000   0.1264304   3.9626115  )
        34        Li     tau(  34) = (   0.5000000   0.5723164   3.6402475  )
        35        Li     tau(  35) = (   0.5000000   0.9774350   3.3960560  )
        36        Li     tau(  36) = (   0.5000000   1.4115543   3.0996545  )
        37        Li     tau(  37) = (   0.5000000   0.3015520   3.2404738  )
        38        Li     tau(  38) = (   0.5000000   0.6024014   2.9148044  )
        39        Li     tau(  39) = (   0.5000000   0.1781968   4.7190571  )
        40        Li     tau(  40) = (   0.7499992   1.1720292   4.1793077  )
        41        Li     tau(  41) = (   0.7499999   1.5771495   3.9351158  )
        42        Li     tau(  42) = (   0.7500003   0.4974583   3.9852955  )
        43        Li     tau(  43) = (   0.7499990   0.9045323   3.7613386  )
        44        Li     tau(  44) = (   0.7499984   1.3224786   3.4484130  )
        45        Li     tau(  45) = (   0.7499996   1.7530079   3.2641518  )
        46        Li     tau(  46) = (   0.7500009   0.2202566   3.6127509  )
        47        Li     tau(  47) = (   0.7500002   0.6433440   3.2854045  )
        48        Li     tau(  48) = (   0.7499998   1.0080236   3.0384276  )
        49        Li     tau(  49) = (   0.7500001   1.5470652   4.6605535  )
        50        Li     tau(  50) = (   0.7499998   0.1684969   2.8563015  )
        51        Li     tau(  51) = (   0.7500001   0.7379004   4.4757047  )
        52        Li     tau(  52) = (   0.7500004   0.0451348   4.3348866  )

   Crystallographic axes

     site n.     atom                  positions (cryst. coord.)
         1        Li     tau(   1) = (  0.0000000  0.6331538  0.5989068  )
         2        Li     tau(   2) = (  0.0000000  0.8354447  0.5663038  )
         3        Li     tau(   3) = (  0.0000000  0.2199111  0.5691095  )
         4        Li     tau(   4) = (  0.0000000  0.4587284  0.5447860  )
         5        Li     tau(   5) = (  0.0000000  0.6905659  0.5034778  )
         6        Li     tau(   6) = (  0.0000000  0.9163668  0.4739141  )
         7        Li     tau(   7) = (  0.0000000  0.0701307  0.5230922  )
         8        Li     tau(   8) = (  0.0000000  0.3174641  0.4805381  )
         9        Li     tau(   9) = (  0.0000000  0.5421843  0.4483028  )
        10        Li     tau(  10) = (  0.0000000  0.7829887  0.4091761  )
        11        Li     tau(  11) = (  0.0000000  0.1672711  0.4277649  )
        12        Li     tau(  12) = (  0.0000000  0.3341526  0.3847742  )
        13        Li     tau(  13) = (  0.0000000  0.0988456  0.6229479  )
        14        Li     tau(  14) = (  0.2500007  0.6501247  0.5516976  )
        15        Li     tau(  15) = (  0.2500001  0.8748450  0.5194625  )
        16        Li     tau(  16) = (  0.2499997  0.2759401  0.5260866  )
        17        Li     tau(  17) = (  0.2500010  0.5017441  0.4965227  )
        18        Li     tau(  18) = (  0.2500016  0.7335790  0.4552144  )
        19        Li     tau(  19) = (  0.2500004  0.9723936  0.4308907  )
        20        Li     tau(  20) = (  0.2499991  0.1221764  0.4769081  )
        21        Li     tau(  21) = (  0.2499998  0.3568629  0.4336962  )
        22        Li     tau(  22) = (  0.2500002  0.5591508  0.4010935  )
        23        Li     tau(  23) = (  0.2499999  0.8581572  0.6152253  )
        24        Li     tau(  24) = (  0.2500002  0.0934653  0.3770516  )
        25        Li     tau(  25) = (  0.2499999  0.4093134  0.5908240  )
        26        Li     tau(  26) = (  0.2499996  0.0250363  0.5722351  )
        27        Li     tau(  27) = (  0.5000000  0.6331538  0.5989070  )
        28        Li     tau(  28) = (  0.5000000  0.8354449  0.5663038  )
        29        Li     tau(  29) = (  0.5000000  0.2199109  0.5691096  )
        30        Li     tau(  30) = (  0.5000000  0.4587282  0.5447860  )
        31        Li     tau(  31) = (  0.5000000  0.6905661  0.5034778  )
        32        Li     tau(  32) = (  0.5000000  0.9163674  0.4739142  )
        33        Li     tau(  33) = (  0.5000000  0.0701310  0.5230922  )
        34        Li     tau(  34) = (  0.5000000  0.3174640  0.4805379  )
        35        Li     tau(  35) = (  0.5000000  0.5421833  0.4483029  )
        36        Li     tau(  36) = (  0.5000000  0.7829893  0.4091759  )
        37        Li     tau(  37) = (  0.5000000  0.1672709  0.4277650  )
        38        Li     tau(  38) = (  0.5000000  0.3341521  0.3847744  )
        39        Li     tau(  39) = (  0.5000000  0.0988458  0.6229482  )
        40        Li     tau(  40) = (  0.7499992  0.6501247  0.5516976  )
        41        Li     tau(  41) = (  0.7499999  0.8748450  0.5194625  )
        42        Li     tau(  42) = (  0.7500003  0.2759401  0.5260866  )
        43        Li     tau(  43) = (  0.7499990  0.5017441  0.4965227  )
        44        Li     tau(  44) = (  0.7499984  0.7335790  0.4552144  )
        45        Li     tau(  45) = (  0.7499996  0.9723936  0.4308907  )
        46        Li     tau(  46) = (  0.7500009  0.1221764  0.4769081  )
        47        Li     tau(  47) = (  0.7500002  0.3568629  0.4336962  )
        48        Li     tau(  48) = (  0.7499998  0.5591508  0.4010935  )
        49        Li     tau(  49) = (  0.7500001  0.8581572  0.6152253  )
        50        Li     tau(  50) = (  0.7499998  0.0934653  0.3770516  )
        51        Li     tau(  51) = (  0.7500001  0.4093134  0.5908240  )
        52        Li     tau(  52) = (  0.7500004  0.0250363  0.5722351  )

     number of k points=    24  Marzari-Vanderbilt smearing, width (Ry)=  0.0100
                       cart. coord. in units 2pi/alat
        k(    1) = (   0.0000000   0.0000000   0.0000000), wk =   0.0333333
        k(    2) = (   0.0000000   0.0924500   0.0000000), wk =   0.0666667
        k(    3) = (   0.0000000   0.1849000   0.0000000), wk =   0.0666667
        k(    4) = (   0.0000000  -0.2773500   0.0000000), wk =   0.0333333
        k(    5) = (   0.1000000   0.0000000   0.0000000), wk =   0.0666667
        k(    6) = (   0.1000000   0.0924500   0.0000000), wk =   0.1333333
        k(    7) = (   0.1000000   0.1849000   0.0000000), wk =   0.1333333
        k(    8) = (   0.1000000  -0.2773500   0.0000000), wk =   0.0666667
        k(    9) = (   0.2000000   0.0000000   0.0000000), wk =   0.0666667
        k(   10) = (   0.2000000   0.0924500   0.0000000), wk =   0.1333333
        k(   11) = (   0.2000000   0.1849000   0.0000000), wk =   0.1333333
        k(   12) = (   0.2000000  -0.2773500   0.0000000), wk =   0.0666667
        k(   13) = (   0.3000000   0.0000000   0.0000000), wk =   0.0666667
        k(   14) = (   0.3000000   0.0924500   0.0000000), wk =   0.1333333
        k(   15) = (   0.3000000   0.1849000   0.0000000), wk =   0.1333333
        k(   16) = (   0.3000000  -0.2773500   0.0000000), wk =   0.0666667
        k(   17) = (   0.4000000   0.0000000   0.0000000), wk =   0.0666667
        k(   18) = (   0.4000000   0.0924500   0.0000000), wk =   0.1333333
        k(   19) = (   0.4000000   0.1849000   0.0000000), wk =   0.1333333
        k(   20) = (   0.4000000  -0.2773500   0.0000000), wk =   0.0666667
        k(   21) = (  -0.5000000   0.0000000   0.0000000), wk =   0.0333333
        k(   22) = (  -0.5000000   0.0924500   0.0000000), wk =   0.0666667
        k(   23) = (  -0.5000000   0.1849000   0.0000000), wk =   0.0666667
        k(   24) = (  -0.5000000  -0.2773500   0.0000000), wk =   0.0333333

                       cryst. coord.
        k(    1) = (   0.0000000   0.0000000   0.0000000), wk =   0.0333333
        k(    2) = (   0.0000000   0.1666667   0.0000000), wk =   0.0666667
        k(    3) = (   0.0000000   0.3333333   0.0000000), wk =   0.0666667
        k(    4) = (   0.0000000  -0.5000000   0.0000000), wk =   0.0333333
        k(    5) = (   0.1000000   0.0000000   0.0000000), wk =   0.0666667
        k(    6) = (   0.1000000   0.1666667   0.0000000), wk =   0.1333333
        k(    7) = (   0.1000000   0.3333333   0.0000000), wk =   0.1333333
        k(    8) = (   0.1000000  -0.5000000   0.0000000), wk =   0.0666667
        k(    9) = (   0.2000000   0.0000000   0.0000000), wk =   0.0666667
        k(   10) = (   0.2000000   0.1666667   0.0000000), wk =   0.1333333
        k(   11) = (   0.2000000   0.3333333   0.0000000), wk =   0.1333333
        k(   12) = (   0.2000000  -0.5000000   0.0000000), wk =   0.0666667
        k(   13) = (   0.3000000   0.0000000   0.0000000), wk =   0.0666667
        k(   14) = (   0.3000000   0.1666667   0.0000000), wk =   0.1333333
        k(   15) = (   0.3000000   0.3333333   0.0000000), wk =   0.1333333
        k(   16) = (   0.3000000  -0.5000000   0.0000000), wk =   0.0666667
        k(   17) = (   0.4000000   0.0000000   0.0000000), wk =   0.0666667
        k(   18) = (   0.4000000   0.1666667   0.0000000), wk =   0.1333333
        k(   19) = (   0.4000000   0.3333333   0.0000000), wk =   0.1333333
        k(   20) = (   0.4000000  -0.5000000   0.0000000), wk =   0.0666667
        k(   21) = (  -0.5000000   0.0000000   0.0000000), wk =   0.0333333
        k(   22) = (  -0.5000000   0.1666667   0.0000000), wk =   0.0666667
        k(   23) = (  -0.5000000   0.3333333   0.0000000), wk =   0.0666667
        k(   24) = (  -0.5000000  -0.5000000   0.0000000), wk =   0.0333333

     Dense  grid: 11420683 G-vectors     FFT dimensions: ( 120, 216, 900)

     Smooth grid:  2888861 G-vectors     FFT dimensions: (  75, 135, 576)

     Dynamical RAM for                 wfc:       2.52 MB

     Dynamical RAM for     wfc (w. buffer):      32.72 MB

     Dynamical RAM for           str. fact:       0.68 MB

     Dynamical RAM for           local pot:       0.00 MB

     Dynamical RAM for          nlocal pot:       8.95 MB

     Dynamical RAM for                qrad:       0.65 MB

     Dynamical RAM for          rho,v,vnew:       4.42 MB

     Dynamical RAM for               rhoin:       1.47 MB

     Dynamical RAM for            rho*nmix:      10.90 MB

     Dynamical RAM for           G-vectors:       2.64 MB

     Dynamical RAM for          h,s,v(r/c):      10.03 MB

     Dynamical RAM for          <psi|beta>:       0.74 MB

     Dynamical RAM for                 psi:      10.07 MB

     Dynamical RAM for                hpsi:      10.07 MB

     Dynamical RAM for                spsi:      10.07 MB

     Dynamical RAM for      wfcinit/wfcrot:       5.35 MB

     Dynamical RAM for           addusdens:      32.69 MB

     Dynamical RAM for          addusforce:      67.46 MB

     Estimated static dynamical RAM per process >      56.85 MB

     Estimated max dynamical RAM per process >     174.27 MB

     Estimated total dynamical RAM >      64.88 GB

     Initial potential from superposition of free atoms

     starting charge     155.7603, renormalised to     156.0000

     negative rho (up, down):  4.929E-03 0.000E+00
     Starting wfcs are random
     Checking if some PAW data can be deallocated... 

     total cpu time spent up to now is       37.0 secs

     Self-consistent Calculation

     iteration #  1     ecut=    80.00 Ry     beta= 0.20
     Davidson diagonalization with overlap

---- Real-time Memory Report at c_bands before calling an iterative solver
           816 MiB given to the printing process from OS
             0 MiB allocation reported by mallinfo(arena+hblkhd)
        216832 MiB available memory on the node where the printing process lives
------------------
     c_bands:  1 eigenvalues not converged
     c_bands:  1 eigenvalues not converged
     ethr =  1.00E-12,  avg # of iterations =132.4

     negative rho (up, down):  3.617E-03 0.000E+00

     total cpu time spent up to now is      452.8 secs

     total energy              =    -781.94304017 Ry
     estimated scf accuracy    <       0.16012871 Ry

     total charge of GC-SCF    =       0.17751146 e
     the Fermi energy          =      -4.43526837 eV
                        (error :       0.96873163 eV)
     electrostatic embedding   =       0.00000000 Ry
     cavitation energy         =       0.03594427 Ry
     electrolyte free energy   =       0.01286340 Ry
     correction to one-el term =      -0.00000000 Ry

     iteration #  2     ecut=    80.00 Ry     beta= 0.20
     Davidson diagonalization with overlap

---- Real-time Memory Report at c_bands before calling an iterative solver
           816 MiB given to the printing process from OS
             0 MiB allocation reported by mallinfo(arena+hblkhd)
        212270 MiB available memory on the node where the printing process lives
------------------
     ethr =  1.00E-05,  avg # of iterations = 11.4

     negative rho (up, down):  2.712E-03 0.000E+00

     add environment contribution to local potential

     total cpu time spent up to now is      504.0 secs

     total energy              =    -782.12014754 Ry
     estimated scf accuracy    <       0.05443244 Ry

     total charge of GC-SCF    =       0.33949641 e
     the Fermi energy          =      -4.04903042 eV
                        (error :       1.35496958 eV)
     electrostatic embedding   =       0.00145546 Ry
     cavitation energy         =       0.03594427 Ry
     electrolyte free energy   =       0.01286340 Ry
     correction to one-el term =      -0.00000000 Ry

     iteration #  3     ecut=    80.00 Ry     beta= 0.20
     Davidson diagonalization with overlap

---- Real-time Memory Report at c_bands before calling an iterative solver
           816 MiB given to the printing process from OS
             0 MiB allocation reported by mallinfo(arena+hblkhd)
        211952 MiB available memory on the node where the printing process lives
------------------
     ethr =  1.00E-05,  avg # of iterations = 23.0

     negative rho (up, down):  2.143E-03 0.000E+00

     add environment contribution to local potential

     total cpu time spent up to now is      583.3 secs

     total energy              =    -782.20732915 Ry
     estimated scf accuracy    <       0.02845617 Ry

     total charge of GC-SCF    =       0.58207661 e
     the Fermi energy          =      -3.27697557 eV
                        (error :       2.12702443 eV)
     electrostatic embedding   =      -0.04386743 Ry
     cavitation energy         =       0.03594427 Ry
     electrolyte free energy   =      -0.00839538 Ry
     correction to one-el term =     -11.51508821 Ry

     iteration #  4     ecut=    80.00 Ry     beta= 0.20
     Davidson diagonalization with overlap

---- Real-time Memory Report at c_bands before calling an iterative solver
           816 MiB given to the printing process from OS
             0 MiB allocation reported by mallinfo(arena+hblkhd)
        211739 MiB available memory on the node where the printing process lives
------------------
     ethr =  1.00E-05,  avg # of iterations = 13.2

     negative rho (up, down):  1.680E-03 0.000E+00

     add environment contribution to local potential

     total cpu time spent up to now is      638.2 secs

     total energy              =    -782.10991379 Ry
     estimated scf accuracy    <       0.02702626 Ry

     total charge of GC-SCF    =       1.08542512 e
     the Fermi energy          =      -3.68620030 eV
                        (error :       1.71779970 eV)
     electrostatic embedding   =      -0.05523694 Ry
     cavitation energy         =       0.03594427 Ry
     electrolyte free energy   =      -0.01079371 Ry
     correction to one-el term =     -17.97635894 Ry

     iteration #  5     ecut=    80.00 Ry     beta= 0.20
     Davidson diagonalization with overlap

---- Real-time Memory Report at c_bands before calling an iterative solver
           816 MiB given to the printing process from OS
             0 MiB allocation reported by mallinfo(arena+hblkhd)
        211664 MiB available memory on the node where the printing process lives
------------------
     ethr =  1.00E-05,  avg # of iterations = 15.8

     negative rho (up, down):  1.351E-03 0.000E+00

     add environment contribution to local potential

     total cpu time spent up to now is      693.1 secs

     total energy              =    -781.97423638 Ry
     estimated scf accuracy    <       0.01531407 Ry

     total charge of GC-SCF    =       2.20521691 e
     the Fermi energy          =      -3.51571744 eV
                        (error :       1.88828256 eV)
     electrostatic embedding   =      -0.13022735 Ry
     cavitation energy         =       0.03594427 Ry
     electrolyte free energy   =      -0.01055763 Ry
     correction to one-el term =     -33.59266755 Ry

     iteration #  6     ecut=    80.00 Ry     beta= 0.20
     Davidson diagonalization with overlap

---- Real-time Memory Report at c_bands before calling an iterative solver
           816 MiB given to the printing process from OS
             0 MiB allocation reported by mallinfo(arena+hblkhd)
        211702 MiB available memory on the node where the printing process lives
------------------
     ethr =  9.96E-06,  avg # of iterations = 20.1

     negative rho (up, down):  4.189E-03 0.000E+00

     add environment contribution to local potential

     total cpu time spent up to now is      772.0 secs

     total energy              =    -782.37236612 Ry
     estimated scf accuracy    <       0.00725283 Ry

     total charge of GC-SCF    =       2.93309932 e
     the Fermi energy          =      -3.27659242 eV
                        (error :       2.12740758 eV)
     electrostatic embedding   =      -0.51837077 Ry
     cavitation energy         =       0.03594427 Ry
     electrolyte free energy   =      -0.01277793 Ry
     correction to one-el term =     -67.77588358 Ry

     iteration #  7     ecut=    80.00 Ry     beta= 0.20
     Davidson diagonalization with overlap

---- Real-time Memory Report at c_bands before calling an iterative solver
           816 MiB given to the printing process from OS
             0 MiB allocation reported by mallinfo(arena+hblkhd)
        211579 MiB available memory on the node where the printing process lives
------------------
     ethr =  4.74E-06,  avg # of iterations = 14.7

     negative rho (up, down):  2.068E-03 0.000E+00

     add environment contribution to local potential

     total cpu time spent up to now is      832.8 secs

     total energy              =    -782.71197051 Ry
     estimated scf accuracy    <       0.00536499 Ry

     total charge of GC-SCF    =       2.96636169 e
     the Fermi energy          =      -3.47052331 eV
                        (error :       1.93347669 eV)
     electrostatic embedding   =      -0.91372114 Ry
     cavitation energy         =       0.03594427 Ry
     electrolyte free energy   =      -0.01854109 Ry
     correction to one-el term =     -89.28028514 Ry

     iteration #  8     ecut=    80.00 Ry     beta= 0.20
     Davidson diagonalization with overlap

---- Real-time Memory Report at c_bands before calling an iterative solver
           816 MiB given to the printing process from OS
             0 MiB allocation reported by mallinfo(arena+hblkhd)
        211537 MiB available memory on the node where the printing process lives
------------------
     ethr =  3.51E-06,  avg # of iterations = 12.9

     negative rho (up, down):  1.395E-03 0.000E+00

     add environment contribution to local potential

     total cpu time spent up to now is      882.3 secs

     total energy              =    -782.36817284 Ry
     estimated scf accuracy    <       0.00461127 Ry

     total charge of GC-SCF    =       3.72996586 e
     the Fermi energy          =      -3.55179041 eV
                        (error :       1.85220959 eV)
     electrostatic embedding   =      -0.93061358 Ry
     cavitation energy         =       0.03594427 Ry
     electrolyte free energy   =      -0.01943988 Ry
     correction to one-el term =     -90.33375552 Ry

     iteration #  9     ecut=    80.00 Ry     beta= 0.20
     Davidson diagonalization with overlap

---- Real-time Memory Report at c_bands before calling an iterative solver
           816 MiB given to the printing process from OS
             0 MiB allocation reported by mallinfo(arena+hblkhd)
        211563 MiB available memory on the node where the printing process lives
------------------
     ethr =  3.03E-06,  avg # of iterations = 30.0

     negative rho (up, down):  1.613E-01 0.000E+00

     add environment contribution to local potential

     total cpu time spent up to now is      976.0 secs

     total energy              =    -782.40215634 Ry
     estimated scf accuracy    <       0.00322780 Ry

     total charge of GC-SCF    =       4.96190477 e
     the Fermi energy          =      -4.07218073 eV
                        (error :       1.33181927 eV)
     electrostatic embedding   =      -1.46260998 Ry
     cavitation energy         =       0.03594427 Ry
     electrolyte free energy   =      -0.02998648 Ry
     correction to one-el term =    -113.40785001 Ry

     iteration # 10     ecut=    80.00 Ry     beta= 0.20
     Davidson diagonalization with overlap

---- Real-time Memory Report at c_bands before calling an iterative solver
           816 MiB given to the printing process from OS
             0 MiB allocation reported by mallinfo(arena+hblkhd)
        211391 MiB available memory on the node where the printing process lives
------------------
     ethr =  2.14E-06,  avg # of iterations = 22.2

     negative rho (up, down):  4.011E-02 0.000E+00

     add environment contribution to local potential

     total cpu time spent up to now is     1049.5 secs

     total energy              =    -782.77843941 Ry
     estimated scf accuracy    <       0.00315568 Ry

     total charge of GC-SCF    =       4.63342012 e
     the Fermi energy          =      -4.56444434 eV
                        (error :       0.83955566 eV)
     electrostatic embedding   =      -2.61210206 Ry
     cavitation energy         =       0.03594427 Ry
     electrolyte free energy   =      -0.04987287 Ry
     correction to one-el term =    -149.30541104 Ry

     iteration # 11     ecut=    80.00 Ry     beta= 0.20
     Davidson diagonalization with overlap

---- Real-time Memory Report at c_bands before calling an iterative solver
           816 MiB given to the printing process from OS
             0 MiB allocation reported by mallinfo(arena+hblkhd)
        211285 MiB available memory on the node where the printing process lives
------------------
     ethr =  2.08E-06,  avg # of iterations = 18.2

     negative rho (up, down):  2.785E-01 0.000E+00

     add environment contribution to local potential

     total cpu time spent up to now is     1115.2 secs

     total energy              =    -782.50328657 Ry
     estimated scf accuracy    <       0.01047757 Ry

     total charge of GC-SCF    =       5.52274570 e
     the Fermi energy          =      -4.02822052 eV
                        (error :       1.37577948 eV)
     electrostatic embedding   =      -2.32804932 Ry
     cavitation energy         =       0.03594427 Ry
     electrolyte free energy   =      -0.04307871 Ry
     correction to one-el term =    -141.49753319 Ry

     iteration # 12     ecut=    80.00 Ry     beta= 0.20
     Davidson diagonalization with overlap

---- Real-time Memory Report at c_bands before calling an iterative solver
           816 MiB given to the printing process from OS
             0 MiB allocation reported by mallinfo(arena+hblkhd)
        211292 MiB available memory on the node where the printing process lives
------------------
     ethr =  2.08E-06,  avg # of iterations = 18.5

     negative rho (up, down):  2.020E-01 0.000E+00

     add environment contribution to local potential

     total cpu time spent up to now is     1187.0 secs

     total energy              =    -782.57485464 Ry
     estimated scf accuracy    <       0.00288054 Ry

     total charge of GC-SCF    =       5.93200501 e
     the Fermi energy          =      -4.79748492 eV
                        (error :       0.60651508 eV)
     electrostatic embedding   =      -3.27041939 Ry
     cavitation energy         =       0.03594427 Ry
     electrolyte free energy   =      -0.06248396 Ry
     correction to one-el term =    -166.25721368 Ry

     iteration # 13     ecut=    80.00 Ry     beta= 0.20
     Davidson diagonalization with overlap

---- Real-time Memory Report at c_bands before calling an iterative solver
           816 MiB given to the printing process from OS
             0 MiB allocation reported by mallinfo(arena+hblkhd)
        211263 MiB available memory on the node where the printing process lives
------------------
     ethr =  1.92E-06,  avg # of iterations = 18.8

     negative rho (up, down):  1.693E-01 0.000E+00

     add environment contribution to local potential

     total cpu time spent up to now is     1258.0 secs

     total energy              =    -782.61251076 Ry
     estimated scf accuracy    <       0.00142602 Ry

     total charge of GC-SCF    =       5.95963217 e
     the Fermi energy          =      -5.29361316 eV
                        (error :       0.11038684 eV)
     electrostatic embedding   =      -3.80276786 Ry
     cavitation energy         =       0.03594427 Ry
     electrolyte free energy   =      -0.07355121 Ry
     correction to one-el term =    -179.43745003 Ry

     iteration # 14     ecut=    80.00 Ry     beta= 0.20
     Davidson diagonalization with overlap

---- Real-time Memory Report at c_bands before calling an iterative solver
           816 MiB given to the printing process from OS
             0 MiB allocation reported by mallinfo(arena+hblkhd)
        211246 MiB available memory on the node where the printing process lives
------------------
     ethr =  9.50E-07,  avg # of iterations = 10.4

     negative rho (up, down):  1.389E-01 0.000E+00

     add environment contribution to local potential

     total cpu time spent up to now is     1303.8 secs

     total energy              =    -782.60905666 Ry
     estimated scf accuracy    <       0.00122639 Ry

     total charge of GC-SCF    =       6.00433326 e
     the Fermi energy          =      -5.30438214 eV
                        (error :       0.09961786 eV)
     electrostatic embedding   =      -3.85162967 Ry
     cavitation energy         =       0.03594427 Ry
     electrolyte free energy   =      -0.07438144 Ry
     correction to one-el term =    -180.62904014 Ry

     iteration # 15     ecut=    80.00 Ry     beta= 0.20
     Davidson diagonalization with overlap

---- Real-time Memory Report at c_bands before calling an iterative solver
           816 MiB given to the printing process from OS
             0 MiB allocation reported by mallinfo(arena+hblkhd)
        211321 MiB available memory on the node where the printing process lives
------------------
     ethr =  8.18E-07,  avg # of iterations = 11.2

     negative rho (up, down):  1.167E-03 0.000E+00

     add environment contribution to local potential

     total cpu time spent up to now is     1352.8 secs

     total energy              =    -782.62407915 Ry
     estimated scf accuracy    <       0.00104886 Ry

     total charge of GC-SCF    =       5.59196620 e
     the Fermi energy          =      -5.35697491 eV
                        (error :       0.04702509 eV)
     electrostatic embedding   =      -3.92127553 Ry
     cavitation energy         =       0.03594427 Ry
     electrolyte free energy   =      -0.07571245 Ry
     correction to one-el term =    -182.27111018 Ry

     iteration # 16     ecut=    80.00 Ry     beta= 0.20
     Davidson diagonalization with overlap

---- Real-time Memory Report at c_bands before calling an iterative solver
           816 MiB given to the printing process from OS
             0 MiB allocation reported by mallinfo(arena+hblkhd)
        211337 MiB available memory on the node where the printing process lives
------------------
     ethr =  6.97E-07,  avg # of iterations = 10.1

     negative rho (up, down):  1.339E-03 0.000E+00

     add environment contribution to local potential

     total cpu time spent up to now is     1405.5 secs

     total energy              =    -782.60772702 Ry
     estimated scf accuracy    <       0.00024764 Ry

     total charge of GC-SCF    =       5.64831977 e
     the Fermi energy          =      -5.40222278 eV
                        (error :       0.00177722 eV)
     electrostatic embedding   =      -3.41041417 Ry
     cavitation energy         =       0.03594427 Ry
     electrolyte free energy   =      -0.06484459 Ry
     correction to one-el term =    -171.24950048 Ry

     iteration # 17     ecut=    80.00 Ry     beta= 0.20
     Davidson diagonalization with overlap

---- Real-time Memory Report at c_bands before calling an iterative solver
           816 MiB given to the printing process from OS
             0 MiB allocation reported by mallinfo(arena+hblkhd)
        211383 MiB available memory on the node where the printing process lives
------------------
     ethr =  1.65E-07,  avg # of iterations =  9.8

     negative rho (up, down):  1.722E-03 0.000E+00

     add environment contribution to local potential

     total cpu time spent up to now is     1453.6 secs

     total energy              =    -782.60738994 Ry
     estimated scf accuracy    <       0.00016251 Ry

     total charge of GC-SCF    =       5.68126467 e
     the Fermi energy          =      -5.41328664 eV
                        (error :       0.00928664 eV)
     electrostatic embedding   =      -3.48873784 Ry
     cavitation energy         =       0.03594427 Ry
     electrolyte free energy   =      -0.06628636 Ry
     correction to one-el term =    -173.09176057 Ry

     iteration # 18     ecut=    80.00 Ry     beta= 0.20
     Davidson diagonalization with overlap

---- Real-time Memory Report at c_bands before calling an iterative solver
           816 MiB given to the printing process from OS
             0 MiB allocation reported by mallinfo(arena+hblkhd)
        211383 MiB available memory on the node where the printing process lives
------------------
     ethr =  1.08E-07,  avg # of iterations = 10.8

     negative rho (up, down):  3.742E-03 0.000E+00

     add environment contribution to local potential

     total cpu time spent up to now is     1500.2 secs

     total energy              =    -782.60693274 Ry
     estimated scf accuracy    <       0.00013403 Ry

     total charge of GC-SCF    =       5.68323926 e
     the Fermi energy          =      -5.43727059 eV
                        (error :       0.03327059 eV)
     electrostatic embedding   =      -3.52902578 Ry
     cavitation energy         =       0.03594427 Ry
     electrolyte free energy   =      -0.06712744 Ry
     correction to one-el term =    -174.01370875 Ry

     iteration # 19     ecut=    80.00 Ry     beta= 0.20
     Davidson diagonalization with overlap

---- Real-time Memory Report at c_bands before calling an iterative solver
           816 MiB given to the printing process from OS
             0 MiB allocation reported by mallinfo(arena+hblkhd)
        211348 MiB available memory on the node where the printing process lives
------------------
     ethr =  8.92E-08,  avg # of iterations = 10.1

     negative rho (up, down):  4.729E-03 0.000E+00

     add environment contribution to local potential

     total cpu time spent up to now is     1554.5 secs

     total energy              =    -782.60723128 Ry
     estimated scf accuracy    <       0.00005161 Ry

     total charge of GC-SCF    =       5.69277603 e
     the Fermi energy          =      -5.44988199 eV
                        (error :       0.04588199 eV)
     electrostatic embedding   =      -3.51735768 Ry
     cavitation energy         =       0.03594427 Ry
     electrolyte free energy   =      -0.06712994 Ry
     correction to one-el term =    -173.67945150 Ry

     iteration # 20     ecut=    80.00 Ry     beta= 0.20
     Davidson diagonalization with overlap

---- Real-time Memory Report at c_bands before calling an iterative solver
           816 MiB given to the printing process from OS
             0 MiB allocation reported by mallinfo(arena+hblkhd)
        211361 MiB available memory on the node where the printing process lives
------------------
     ethr =  3.43E-08,  avg # of iterations =  7.2

     negative rho (up, down):  3.112E-03 0.000E+00

     add environment contribution to local potential

     total cpu time spent up to now is     1595.7 secs

     total energy              =    -782.60681497 Ry
     estimated scf accuracy    <       0.00003686 Ry

     total charge of GC-SCF    =       5.67784854 e
     the Fermi energy          =      -5.45125246 eV
                        (error :       0.04725246 eV)
     electrostatic embedding   =      -3.52889790 Ry
     cavitation energy         =       0.03594427 Ry
     electrolyte free energy   =      -0.06737358 Ry
     correction to one-el term =    -173.94554170 Ry

     iteration # 21     ecut=    80.00 Ry     beta= 0.20
     Davidson diagonalization with overlap

---- Real-time Memory Report at c_bands before calling an iterative solver
           816 MiB given to the printing process from OS
             0 MiB allocation reported by mallinfo(arena+hblkhd)
        211393 MiB available memory on the node where the printing process lives
------------------
     ethr =  2.45E-08,  avg # of iterations =  9.7

     negative rho (up, down):  2.359E-03 0.000E+00

     add environment contribution to local potential

     total cpu time spent up to now is     1646.5 secs

     total energy              =    -782.60707777 Ry
     estimated scf accuracy    <       0.00001301 Ry

     total charge of GC-SCF    =       5.67082243 e
     the Fermi energy          =      -5.43935680 eV
                        (error :       0.03535680 eV)
     electrostatic embedding   =      -3.51115748 Ry
     cavitation energy         =       0.03594427 Ry
     electrolyte free energy   =      -0.06699302 Ry
     correction to one-el term =    -173.55048448 Ry

     iteration # 22     ecut=    80.00 Ry     beta= 0.20
     Davidson diagonalization with overlap

---- Real-time Memory Report at c_bands before calling an iterative solver
           816 MiB given to the printing process from OS
             0 MiB allocation reported by mallinfo(arena+hblkhd)
        211374 MiB available memory on the node where the printing process lives
------------------
     ethr =  8.65E-09,  avg # of iterations = 10.0

     negative rho (up, down):  1.368E-03 0.000E+00

     add environment contribution to local potential

     total cpu time spent up to now is     1697.2 secs

     total energy              =    -782.60706204 Ry
     estimated scf accuracy    <       0.00000715 Ry

     total charge of GC-SCF    =       5.64597516 e
     the Fermi energy          =      -5.43578229 eV
                        (error :       0.03178229 eV)
     electrostatic embedding   =      -3.50307194 Ry
     cavitation energy         =       0.03594427 Ry
     electrolyte free energy   =      -0.06681588 Ry
     correction to one-el term =    -173.36733917 Ry

     iteration # 23     ecut=    80.00 Ry     beta= 0.20
     Davidson diagonalization with overlap

---- Real-time Memory Report at c_bands before calling an iterative solver
           816 MiB given to the printing process from OS
             0 MiB allocation reported by mallinfo(arena+hblkhd)
        211354 MiB available memory on the node where the printing process lives
------------------
     ethr =  4.75E-09,  avg # of iterations = 11.8

     negative rho (up, down):  1.174E-03 0.000E+00

     add environment contribution to local potential

     total cpu time spent up to now is     1756.7 secs

     total energy              =    -782.60742663 Ry
     estimated scf accuracy    <       0.00000282 Ry

     total charge of GC-SCF    =       5.64585416 e
     the Fermi energy          =      -5.42250901 eV
                        (error :       0.01850901 eV)
     electrostatic embedding   =      -3.47238051 Ry
     cavitation energy         =       0.03594427 Ry
     electrolyte free energy   =      -0.06618184 Ry
     correction to one-el term =    -172.64608656 Ry

     iteration # 24     ecut=    80.00 Ry     beta= 0.20
     Davidson diagonalization with overlap

---- Real-time Memory Report at c_bands before calling an iterative solver
           816 MiB given to the printing process from OS
             0 MiB allocation reported by mallinfo(arena+hblkhd)
        211349 MiB available memory on the node where the printing process lives
------------------
     ethr =  1.88E-09,  avg # of iterations =  6.7

     negative rho (up, down):  8.044E-04 0.000E+00

     add environment contribution to local potential

     total cpu time spent up to now is     1797.2 secs

     total energy              =    -782.60742830 Ry
     estimated scf accuracy    <       0.00000222 Ry

     total charge of GC-SCF    =       5.64094294 e
     the Fermi energy          =      -5.42035599 eV
                        (error :       0.01635599 eV)
     electrostatic embedding   =      -3.47248930 Ry
     cavitation energy         =       0.03594427 Ry
     electrolyte free energy   =      -0.06617845 Ry
     correction to one-el term =    -172.64500930 Ry

     iteration # 25     ecut=    80.00 Ry     beta= 0.20
     Davidson diagonalization with overlap

---- Real-time Memory Report at c_bands before calling an iterative solver
           816 MiB given to the printing process from OS
             0 MiB allocation reported by mallinfo(arena+hblkhd)
        211371 MiB available memory on the node where the printing process lives
------------------
     ethr =  1.48E-09,  avg # of iterations = 11.2

     negative rho (up, down):  7.019E-04 0.000E+00

     add environment contribution to local potential

     total cpu time spent up to now is     1852.6 secs

     total energy              =    -782.60751001 Ry
     estimated scf accuracy    <       0.00000108 Ry

     total charge of GC-SCF    =       5.63137553 e
     the Fermi energy          =      -5.41483290 eV
                        (error :       0.01083290 eV)
     electrostatic embedding   =      -3.46675831 Ry
     cavitation energy         =       0.03594427 Ry
     electrolyte free energy   =      -0.06605262 Ry
     correction to one-el term =    -172.50290737 Ry

     iteration # 26     ecut=    80.00 Ry     beta= 0.20
     Davidson diagonalization with overlap

---- Real-time Memory Report at c_bands before calling an iterative solver
           816 MiB given to the printing process from OS
             0 MiB allocation reported by mallinfo(arena+hblkhd)
        211380 MiB available memory on the node where the printing process lives
------------------
     ethr =  7.16E-10,  avg # of iterations = 12.6

     negative rho (up, down):  6.980E-04 0.000E+00

     add environment contribution to local potential

     total cpu time spent up to now is     1911.5 secs

     total energy              =    -782.60764542 Ry
     estimated scf accuracy    <       0.00000052 Ry

     total charge of GC-SCF    =       5.62479555 e
     the Fermi energy          =      -5.40692773 eV
                        (error :       0.00292773 eV)
     electrostatic embedding   =      -3.45495459 Ry
     cavitation energy         =       0.03594427 Ry
     electrolyte free energy   =      -0.06580848 Ry
     correction to one-el term =    -172.22188543 Ry

     iteration # 27     ecut=    80.00 Ry     beta= 0.20
     Davidson diagonalization with overlap

---- Real-time Memory Report at c_bands before calling an iterative solver
           816 MiB given to the printing process from OS
             0 MiB allocation reported by mallinfo(arena+hblkhd)
        211251 MiB available memory on the node where the printing process lives
------------------
     ethr =  3.43E-10,  avg # of iterations = 13.9

     negative rho (up, down):  6.630E-04 0.000E+00

     add environment contribution to local potential

     total cpu time spent up to now is     1970.5 secs

     total energy              =    -782.60771485 Ry
     estimated scf accuracy    <       0.00000029 Ry

     total charge of GC-SCF    =       5.62328270 e
     the Fermi energy          =      -5.40242434 eV
                        (error :       0.00157566 eV)
     electrostatic embedding   =      -3.44672589 Ry
     cavitation energy         =       0.03594427 Ry
     electrolyte free energy   =      -0.06564144 Ry
     correction to one-el term =    -172.02907176 Ry

     iteration # 28     ecut=    80.00 Ry     beta= 0.20
     Davidson diagonalization with overlap

---- Real-time Memory Report at c_bands before calling an iterative solver
           816 MiB given to the printing process from OS
             0 MiB allocation reported by mallinfo(arena+hblkhd)
        211288 MiB available memory on the node where the printing process lives
------------------
     ethr =  1.94E-10,  avg # of iterations = 10.3

     negative rho (up, down):  6.654E-04 0.000E+00

     add environment contribution to local potential

     total cpu time spent up to now is     2022.8 secs

     total energy              =    -782.60772908 Ry
     estimated scf accuracy    <       0.00000011 Ry

     total charge of GC-SCF    =       5.62341115 e
     the Fermi energy          =      -5.40150130 eV
                        (error :       0.00249870 eV)
     electrostatic embedding   =      -3.44498783 Ry
     cavitation energy         =       0.03594427 Ry
     electrolyte free energy   =      -0.06560388 Ry
     correction to one-el term =    -171.98960613 Ry

     iteration # 29     ecut=    80.00 Ry     beta= 0.20
     Davidson diagonalization with overlap

---- Real-time Memory Report at c_bands before calling an iterative solver
           816 MiB given to the printing process from OS
             0 MiB allocation reported by mallinfo(arena+hblkhd)
        211283 MiB available memory on the node where the printing process lives
------------------
     ethr =  7.01E-11,  avg # of iterations = 11.0

     negative rho (up, down):  6.715E-04 0.000E+00

     add environment contribution to local potential

     total cpu time spent up to now is     2077.3 secs

     total energy              =    -782.60772737 Ry
     estimated scf accuracy    <       0.00000006 Ry

     total charge of GC-SCF    =       5.62375496 e
     the Fermi energy          =      -5.40159694 eV
                        (error :       0.00240306 eV)
     electrostatic embedding   =      -3.44513039 Ry
     cavitation energy         =       0.03594427 Ry
     electrolyte free energy   =      -0.06560716 Ry
     correction to one-el term =    -171.99331708 Ry

     iteration # 30     ecut=    80.00 Ry     beta= 0.20
     Davidson diagonalization with overlap

---- Real-time Memory Report at c_bands before calling an iterative solver
           816 MiB given to the printing process from OS
             0 MiB allocation reported by mallinfo(arena+hblkhd)
        211265 MiB available memory on the node where the printing process lives
------------------
     ethr =  3.92E-11,  avg # of iterations =  9.2

     negative rho (up, down):  6.720E-04 0.000E+00

     add environment contribution to local potential

     total cpu time spent up to now is     2123.2 secs

     total energy              =    -782.60772494 Ry
     estimated scf accuracy    <       0.00000004 Ry

     total charge of GC-SCF    =       5.62454182 e
     the Fermi energy          =      -5.40176566 eV
                        (error :       0.00223434 eV)
     electrostatic embedding   =      -3.44551700 Ry
     cavitation energy         =       0.03594427 Ry
     electrolyte free energy   =      -0.06561573 Ry
     correction to one-el term =    -172.00231834 Ry

     iteration # 31     ecut=    80.00 Ry     beta= 0.20
     Davidson diagonalization with overlap

---- Real-time Memory Report at c_bands before calling an iterative solver
           816 MiB given to the printing process from OS
             0 MiB allocation reported by mallinfo(arena+hblkhd)
        211294 MiB available memory on the node where the printing process lives
------------------
     ethr =  2.62E-11,  avg # of iterations = 11.2

     negative rho (up, down):  6.681E-04 0.000E+00

     add environment contribution to local potential

     total cpu time spent up to now is     2176.3 secs

     total energy              =    -782.60771629 Ry
     estimated scf accuracy    <       0.00000003 Ry

     total charge of GC-SCF    =       5.62602896 e
     the Fermi energy          =      -5.40232630 eV
                        (error :       0.00167370 eV)
     electrostatic embedding   =      -3.44646366 Ry
     cavitation energy         =       0.03594427 Ry
     electrolyte free energy   =      -0.06563552 Ry
     correction to one-el term =    -172.02417241 Ry

     iteration # 32     ecut=    80.00 Ry     beta= 0.20
     Davidson diagonalization with overlap

---- Real-time Memory Report at c_bands before calling an iterative solver
           816 MiB given to the printing process from OS
             0 MiB allocation reported by mallinfo(arena+hblkhd)
        211314 MiB available memory on the node where the printing process lives
------------------
     ethr =  1.77E-11,  avg # of iterations = 14.8

     negative rho (up, down):  6.677E-04 0.000E+00

     add environment contribution to local potential

     total cpu time spent up to now is     2236.7 secs

     total energy              =    -782.60770083 Ry
     estimated scf accuracy    <          9.0E-09 Ry

     total charge of GC-SCF    =       5.62637735 e
     the Fermi energy          =      -5.40326100 eV
                        (error :       0.00073900 eV)
     electrostatic embedding   =      -3.44833624 Ry
     cavitation energy         =       0.03594427 Ry
     electrolyte free energy   =      -0.06567323 Ry
     correction to one-el term =    -172.06798281 Ry

     iteration # 33     ecut=    80.00 Ry     beta= 0.20
     Davidson diagonalization with overlap

---- Real-time Memory Report at c_bands before calling an iterative solver
           816 MiB given to the printing process from OS
             0 MiB allocation reported by mallinfo(arena+hblkhd)
        211235 MiB available memory on the node where the printing process lives
------------------
     ethr =  6.02E-12,  avg # of iterations = 11.0

     negative rho (up, down):  6.713E-04 0.000E+00

     add environment contribution to local potential

     total cpu time spent up to now is     2290.9 secs

     total energy              =    -782.60769619 Ry
     estimated scf accuracy    <          5.2E-09 Ry

     total charge of GC-SCF    =       5.62709763 e
     the Fermi energy          =      -5.40350795 eV
                        (error :       0.00049205 eV)
     electrostatic embedding   =      -3.44880050 Ry
     cavitation energy         =       0.03594427 Ry
     electrolyte free energy   =      -0.06568220 Ry
     correction to one-el term =    -172.07926999 Ry

     iteration # 34     ecut=    80.00 Ry     beta= 0.20
     Davidson diagonalization with overlap

---- Real-time Memory Report at c_bands before calling an iterative solver
           816 MiB given to the printing process from OS
             0 MiB allocation reported by mallinfo(arena+hblkhd)
        211272 MiB available memory on the node where the printing process lives
------------------
     ethr =  3.45E-12,  avg # of iterations = 12.6

     negative rho (up, down):  6.689E-04 0.000E+00

     add environment contribution to local potential

     total cpu time spent up to now is     2353.8 secs

     total energy              =    -782.60768648 Ry
     estimated scf accuracy    <          2.2E-09 Ry

     total charge of GC-SCF    =       5.62735950 e
     the Fermi energy          =      -5.40408244 eV
                        (error :       0.00008244 eV)
     electrostatic embedding   =      -3.44972886 Ry
     cavitation energy         =       0.03594427 Ry
     electrolyte free energy   =      -0.06570067 Ry
     correction to one-el term =    -172.10184396 Ry

     iteration # 35     ecut=    80.00 Ry     beta= 0.20
     Davidson diagonalization with overlap

---- Real-time Memory Report at c_bands before calling an iterative solver
           816 MiB given to the printing process from OS
             0 MiB allocation reported by mallinfo(arena+hblkhd)
        211203 MiB available memory on the node where the printing process lives
------------------
     ethr =  1.48E-12,  avg # of iterations = 11.9

     negative rho (up, down):  6.678E-04 0.000E+00

     add environment contribution to local potential

     total cpu time spent up to now is     2411.1 secs

     total energy              =    -782.60768253 Ry
     estimated scf accuracy    <          1.4E-09 Ry

     total charge of GC-SCF    =       5.62738163 e
     the Fermi energy          =      -5.40431047 eV
                        (error :       0.00031047 eV)
     electrostatic embedding   =      -3.45007881 Ry
     cavitation energy         =       0.03594427 Ry
     electrolyte free energy   =      -0.06570744 Ry
     correction to one-el term =    -172.11040811 Ry

     iteration # 36     ecut=    80.00 Ry     beta= 0.20
     Davidson diagonalization with overlap

---- Real-time Memory Report at c_bands before calling an iterative solver
           816 MiB given to the printing process from OS
             0 MiB allocation reported by mallinfo(arena+hblkhd)
        211218 MiB available memory on the node where the printing process lives
------------------
     ethr =  9.34E-13,  avg # of iterations = 13.5

     negative rho (up, down):  6.665E-04 0.000E+00

     add environment contribution to local potential

     total cpu time spent up to now is     2468.5 secs

     total energy              =    -782.60768253 Ry
     estimated scf accuracy    <          1.3E-09 Ry

     total charge of GC-SCF    =       5.62726273 e
     the Fermi energy          =      -5.40430045 eV
                        (error :       0.00030045 eV)
     electrostatic embedding   =      -3.45010761 Ry
     cavitation energy         =       0.03594427 Ry
     electrolyte free energy   =      -0.06570799 Ry
     correction to one-el term =    -172.11104584 Ry

     iteration # 37     ecut=    80.00 Ry     beta= 0.20
     Davidson diagonalization with overlap

---- Real-time Memory Report at c_bands before calling an iterative solver
           816 MiB given to the printing process from OS
             0 MiB allocation reported by mallinfo(arena+hblkhd)
        211265 MiB available memory on the node where the printing process lives
------------------
     ethr =  8.60E-13,  avg # of iterations = 15.7

     negative rho (up, down):  6.666E-04 0.000E+00

     add environment contribution to local potential

     total cpu time spent up to now is     2535.3 secs

     total energy              =    -782.60768457 Ry
     estimated scf accuracy    <          8.0E-10 Ry

     total charge of GC-SCF    =       5.62735829 e
     the Fermi energy          =      -5.40417690 eV
                        (error :       0.00017690 eV)
     electrostatic embedding   =      -3.44994876 Ry
     cavitation energy         =       0.03594427 Ry
     electrolyte free energy   =      -0.06570490 Ry
     correction to one-el term =    -172.10709183 Ry

     iteration # 38     ecut=    80.00 Ry     beta= 0.20
     Davidson diagonalization with overlap

---- Real-time Memory Report at c_bands before calling an iterative solver
           816 MiB given to the printing process from OS
             0 MiB allocation reported by mallinfo(arena+hblkhd)
        211271 MiB available memory on the node where the printing process lives
------------------
     ethr =  5.35E-13,  avg # of iterations = 19.2

     negative rho (up, down):  6.666E-04 0.000E+00

     add environment contribution to local potential

     total cpu time spent up to now is     2608.6 secs

     total energy              =    -782.60768412 Ry
     estimated scf accuracy    <          4.0E-10 Ry

     total charge of GC-SCF    =       5.62729297 e
     the Fermi energy          =      -5.40420569 eV
                        (error :       0.00020569 eV)
     electrostatic embedding   =      -3.45005826 Ry
     cavitation energy         =       0.03594427 Ry
     electrolyte free energy   =      -0.06570726 Ry
     correction to one-el term =    -172.10955246 Ry

     iteration # 39     ecut=    80.00 Ry     beta= 0.20
     Davidson diagonalization with overlap

---- Real-time Memory Report at c_bands before calling an iterative solver
           816 MiB given to the printing process from OS
             0 MiB allocation reported by mallinfo(arena+hblkhd)
        211258 MiB available memory on the node where the printing process lives
------------------
     ethr =  2.67E-13,  avg # of iterations = 18.2

     negative rho (up, down):  6.666E-04 0.000E+00

     add environment contribution to local potential

     total cpu time spent up to now is     2681.7 secs

     total energy              =    -782.60768504 Ry
     estimated scf accuracy    <          2.5E-10 Ry

     total charge of GC-SCF    =       5.62718112 e
     the Fermi energy          =      -5.40415214 eV
                        (error :       0.00015214 eV)
     electrostatic embedding   =      -3.44997247 Ry
     cavitation energy         =       0.03594427 Ry
     electrolyte free energy   =      -0.06570559 Ry
     correction to one-el term =    -172.10750556 Ry

     iteration # 40     ecut=    80.00 Ry     beta= 0.20
     Davidson diagonalization with overlap

---- Real-time Memory Report at c_bands before calling an iterative solver
           816 MiB given to the printing process from OS
             0 MiB allocation reported by mallinfo(arena+hblkhd)
        211231 MiB available memory on the node where the printing process lives
------------------
     ethr =  1.64E-13,  avg # of iterations = 19.1

     negative rho (up, down):  6.664E-04 0.000E+00

     add environment contribution to local potential

     total cpu time spent up to now is     2762.9 secs

     total energy              =    -782.60768617 Ry
     estimated scf accuracy    <          1.3E-10 Ry

     total charge of GC-SCF    =       5.62701136 e
     the Fermi energy          =      -5.40408564 eV
                        (error :       0.00008564 eV)
     electrostatic embedding   =      -3.44983234 Ry
     cavitation energy         =       0.03594427 Ry
     electrolyte free energy   =      -0.06570276 Ry
     correction to one-el term =    -172.10423131 Ry

     iteration # 41     ecut=    80.00 Ry     beta= 0.20
     Davidson diagonalization with overlap

---- Real-time Memory Report at c_bands before calling an iterative solver
           816 MiB given to the printing process from OS
             0 MiB allocation reported by mallinfo(arena+hblkhd)
        211207 MiB available memory on the node where the printing process lives
------------------
     ethr =  1.00E-13,  avg # of iterations = 22.6

     negative rho (up, down):  6.662E-04 0.000E+00

     add environment contribution to local potential

     total cpu time spent up to now is     2839.0 secs

     total energy              =    -782.60768782 Ry
     estimated scf accuracy    <          3.7E-11 Ry

     total charge of GC-SCF    =       5.62701914 e
     the Fermi energy          =      -5.40398630 eV
                        (error :       0.00001370 eV)
     electrostatic embedding   =      -3.44962031 Ry
     cavitation energy         =       0.03594427 Ry
     electrolyte free energy   =      -0.06569845 Ry
     correction to one-el term =    -172.09924009 Ry

     iteration # 42     ecut=    80.00 Ry     beta= 0.20
     Davidson diagonalization with overlap

---- Real-time Memory Report at c_bands before calling an iterative solver
           816 MiB given to the printing process from OS
             0 MiB allocation reported by mallinfo(arena+hblkhd)
        211122 MiB available memory on the node where the printing process lives
------------------
     ethr =  1.00E-13,  avg # of iterations = 16.8

     negative rho (up, down):  6.659E-04 0.000E+00

     add environment contribution to local potential

     total cpu time spent up to now is     2907.5 secs

     total energy              =    -782.60768751 Ry
     estimated scf accuracy    <          1.5E-11 Ry

     total charge of GC-SCF    =       5.62700804 e
     the Fermi energy          =      -5.40401082 eV
                        (error :       0.00001082 eV)
     electrostatic embedding   =      -3.44963163 Ry
     cavitation energy         =       0.03594427 Ry
     electrolyte free energy   =      -0.06569867 Ry
     correction to one-el term =    -172.09952747 Ry

     iteration # 43     ecut=    80.00 Ry     beta= 0.20
     Davidson diagonalization with overlap

---- Real-time Memory Report at c_bands before calling an iterative solver
           816 MiB given to the printing process from OS
             0 MiB allocation reported by mallinfo(arena+hblkhd)
        211156 MiB available memory on the node where the printing process lives
------------------
     ethr =  1.00E-13,  avg # of iterations = 13.2

     negative rho (up, down):  6.657E-04 0.000E+00

     add environment contribution to local potential

     total cpu time spent up to now is     2962.5 secs

     total energy              =    -782.60768751 Ry
     estimated scf accuracy    <          8.4E-12 Ry

     total charge of GC-SCF    =       5.62700275 e
     the Fermi energy          =      -5.40401206 eV
                        (error :       0.00001206 eV)
     electrostatic embedding   =      -3.44962007 Ry
     cavitation energy         =       0.03594427 Ry
     electrolyte free energy   =      -0.06569840 Ry
     correction to one-el term =    -172.09927132 Ry

     iteration # 44     ecut=    80.00 Ry     beta= 0.20
     Davidson diagonalization with overlap

---- Real-time Memory Report at c_bands before calling an iterative solver
           816 MiB given to the printing process from OS
             0 MiB allocation reported by mallinfo(arena+hblkhd)
        211142 MiB available memory on the node where the printing process lives
------------------
     ethr =  1.00E-13,  avg # of iterations =  8.4

     negative rho (up, down):  6.657E-04 0.000E+00

     add environment contribution to local potential

     total cpu time spent up to now is     3006.4 secs

     total energy              =    -782.60768758 Ry
     estimated scf accuracy    <          5.2E-12 Ry

     total charge of GC-SCF    =       5.62699613 e
     the Fermi energy          =      -5.40400700 eV
                        (error :       0.00000700 eV)
     electrostatic embedding   =      -3.44961373 Ry
     cavitation energy         =       0.03594427 Ry
     electrolyte free energy   =      -0.06569826 Ry
     correction to one-el term =    -172.09912213 Ry

     iteration # 45     ecut=    80.00 Ry     beta= 0.20
     Davidson diagonalization with overlap

---- Real-time Memory Report at c_bands before calling an iterative solver
           816 MiB given to the printing process from OS
             0 MiB allocation reported by mallinfo(arena+hblkhd)
        211136 MiB available memory on the node where the printing process lives
------------------
     ethr =  1.00E-13,  avg # of iterations = 11.4

     negative rho (up, down):  6.656E-04 0.000E+00

     add environment contribution to local potential

     total cpu time spent up to now is     3061.8 secs

     total energy              =    -782.60768770 Ry
     estimated scf accuracy    <          2.5E-12 Ry

     total charge of GC-SCF    =       5.62699387 e
     the Fermi energy          =      -5.40400003 eV
                        (error :       0.00000003 eV)
     electrostatic embedding   =      -3.44960494 Ry
     cavitation energy         =       0.03594427 Ry
     electrolyte free energy   =      -0.06569809 Ry
     correction to one-el term =    -172.09890412 Ry

     iteration # 46     ecut=    80.00 Ry     beta= 0.20
     Davidson diagonalization with overlap

---- Real-time Memory Report at c_bands before calling an iterative solver
           816 MiB given to the printing process from OS
             0 MiB allocation reported by mallinfo(arena+hblkhd)
        211169 MiB available memory on the node where the printing process lives
------------------
     ethr =  1.00E-13,  avg # of iterations =  3.6

     negative rho (up, down):  6.656E-04 0.000E+00

     add environment contribution to local potential

     total cpu time spent up to now is     3097.7 secs

     total energy              =    -782.60768775 Ry
     estimated scf accuracy    <          1.5E-12 Ry

     total charge of GC-SCF    =       5.62699349 e
     the Fermi energy          =      -5.40399737 eV
                        (error :       0.00000263 eV)
     electrostatic embedding   =      -3.44960184 Ry
     cavitation energy         =       0.03594427 Ry
     electrolyte free energy   =      -0.06569803 Ry
     correction to one-el term =    -172.09882815 Ry

     iteration # 47     ecut=    80.00 Ry     beta= 0.20
     Davidson diagonalization with overlap

---- Real-time Memory Report at c_bands before calling an iterative solver
           816 MiB given to the printing process from OS
             0 MiB allocation reported by mallinfo(arena+hblkhd)
        211155 MiB available memory on the node where the printing process lives
------------------
     ethr =  1.00E-13,  avg # of iterations =  2.4

     negative rho (up, down):  6.656E-04 0.000E+00

     add environment contribution to local potential

     total cpu time spent up to now is     3129.4 secs

     total energy              =    -782.60768777 Ry
     estimated scf accuracy    <          9.6E-13 Ry

     total charge of GC-SCF    =       5.62699149 e
     the Fermi energy          =      -5.40399660 eV
                        (error :       0.00000340 eV)
     electrostatic embedding   =      -3.44960100 Ry
     cavitation energy         =       0.03594427 Ry
     electrolyte free energy   =      -0.06569802 Ry
     correction to one-el term =    -172.09880544 Ry

     iteration # 48     ecut=    80.00 Ry     beta= 0.20
     Davidson diagonalization with overlap

---- Real-time Memory Report at c_bands before calling an iterative solver
           816 MiB given to the printing process from OS
             0 MiB allocation reported by mallinfo(arena+hblkhd)
        211156 MiB available memory on the node where the printing process lives
------------------
     ethr =  1.00E-13,  avg # of iterations =  2.1

     negative rho (up, down):  6.655E-04 0.000E+00

     add environment contribution to local potential

     total cpu time spent up to now is     3160.6 secs

     total energy              =    -782.60768779 Ry
     estimated scf accuracy    <          6.8E-13 Ry

     total charge of GC-SCF    =       5.62699296 e
     the Fermi energy          =      -5.40399474 eV
                        (error :       0.00000526 eV)
     electrostatic embedding   =      -3.44959841 Ry
     cavitation energy         =       0.03594427 Ry
     electrolyte free energy   =      -0.06569797 Ry
     correction to one-el term =    -172.09874375 Ry

     iteration # 49     ecut=    80.00 Ry     beta= 0.20
     Davidson diagonalization with overlap

---- Real-time Memory Report at c_bands before calling an iterative solver
           816 MiB given to the printing process from OS
             0 MiB allocation reported by mallinfo(arena+hblkhd)
        211167 MiB available memory on the node where the printing process lives
------------------
     ethr =  1.00E-13,  avg # of iterations =  1.0

     negative rho (up, down):  6.656E-04 0.000E+00

     add environment contribution to local potential

     total cpu time spent up to now is     3190.9 secs

     total energy              =    -782.60768777 Ry
     estimated scf accuracy    <          4.6E-13 Ry

     total charge of GC-SCF    =       5.62699926 e
     the Fermi energy          =      -5.40399577 eV
                        (error :       0.00000423 eV)
     electrostatic embedding   =      -3.44960040 Ry
     cavitation energy         =       0.03594427 Ry
     electrolyte free energy   =      -0.06569801 Ry
     correction to one-el term =    -172.09879186 Ry

     iteration # 50     ecut=    80.00 Ry     beta= 0.20
     Davidson diagonalization with overlap

---- Real-time Memory Report at c_bands before calling an iterative solver
           816 MiB given to the printing process from OS
             0 MiB allocation reported by mallinfo(arena+hblkhd)
        211167 MiB available memory on the node where the printing process lives
------------------
     ethr =  1.00E-13,  avg # of iterations =  7.0

     negative rho (up, down):  6.655E-04 0.000E+00

     add environment contribution to local potential

     total cpu time spent up to now is     3233.0 secs

     total energy              =    -782.60768770 Ry
     estimated scf accuracy    <          1.7E-13 Ry

     total charge of GC-SCF    =       5.62700037 e
     the Fermi energy          =      -5.40399993 eV
                        (error :       0.00000007 eV)
     electrostatic embedding   =      -3.44960818 Ry
     cavitation energy         =       0.03594427 Ry
     electrolyte free energy   =      -0.06569817 Ry
     correction to one-el term =    -172.09897558 Ry

     iteration # 51     ecut=    80.00 Ry     beta= 0.20
     Davidson diagonalization with overlap

---- Real-time Memory Report at c_bands before calling an iterative solver
           816 MiB given to the printing process from OS
             0 MiB allocation reported by mallinfo(arena+hblkhd)
        211162 MiB available memory on the node where the printing process lives
------------------
     ethr =  1.00E-13,  avg # of iterations =  1.0

     negative rho (up, down):  6.655E-04 0.000E+00

     add environment contribution to local potential

     total cpu time spent up to now is     3263.3 secs

     total energy              =    -782.60768769 Ry
     estimated scf accuracy    <          1.4E-13 Ry

     total charge of GC-SCF    =       5.62700273 e
     the Fermi energy          =      -5.40400068 eV
                        (error :       0.00000068 eV)
     electrostatic embedding   =      -3.44960956 Ry
     cavitation energy         =       0.03594427 Ry
     electrolyte free energy   =      -0.06569819 Ry
     correction to one-el term =    -172.09900815 Ry

     iteration # 52     ecut=    80.00 Ry     beta= 0.20
     Davidson diagonalization with overlap

---- Real-time Memory Report at c_bands before calling an iterative solver
           816 MiB given to the printing process from OS
             0 MiB allocation reported by mallinfo(arena+hblkhd)
        211159 MiB available memory on the node where the printing process lives
------------------
     ethr =  1.00E-13,  avg # of iterations =  1.0

     negative rho (up, down):  6.655E-04 0.000E+00

     add environment contribution to local potential

     total cpu time spent up to now is     3293.8 secs

     total energy              =    -782.60768766 Ry
     estimated scf accuracy    <          5.2E-14 Ry

     total charge of GC-SCF    =       5.62700247 e
     the Fermi energy          =      -5.40400216 eV
                        (error :       0.00000216 eV)
     electrostatic embedding   =      -3.44961249 Ry
     cavitation energy         =       0.03594427 Ry
     electrolyte free energy   =      -0.06569825 Ry
     correction to one-el term =    -172.09907784 Ry

     iteration # 53     ecut=    80.00 Ry     beta= 0.20
     Davidson diagonalization with overlap

---- Real-time Memory Report at c_bands before calling an iterative solver
           816 MiB given to the printing process from OS
             0 MiB allocation reported by mallinfo(arena+hblkhd)
        211166 MiB available memory on the node where the printing process lives
------------------
     ethr =  1.00E-13,  avg # of iterations =  1.0

     negative rho (up, down):  6.655E-04 0.000E+00

     add environment contribution to local potential

     total cpu time spent up to now is     3324.1 secs

     total energy              =    -782.60768767 Ry
     estimated scf accuracy    <          3.4E-14 Ry

     total charge of GC-SCF    =       5.62700085 e
     the Fermi energy          =      -5.40400174 eV
                        (error :       0.00000174 eV)
     electrostatic embedding   =      -3.44961216 Ry
     cavitation energy         =       0.03594427 Ry
     electrolyte free energy   =      -0.06569825 Ry
[...]
     atom   50 type  1   force =     0.00000263   -0.58929674  -12.74356472
     atom   51 type  1   force =    -0.00000012   -0.08093947   11.02711423
     atom   52 type  1   force =    -0.00000571    0.25064229    8.43282444
     The local contribution  to forces
     atom    1 type  1   force =    -0.00000000    0.54846503  -11.73889550
     atom    2 type  1   force =    -0.00000000    0.10299376   -7.78674694
     atom    3 type  1   force =    -0.00000000   -0.32084400   -8.68092339
     atom    4 type  1   force =     0.00000000    0.01822861   -5.57869635
     atom    5 type  1   force =     0.00000000    0.05053052   -0.36801476
     atom    6 type  1   force =     0.00000000    0.05960262    3.26833493
     atom    7 type  1   force =    -0.00000000   -0.05707588   -2.77435884
     atom    8 type  1   force =    -0.00000000   -0.02752777    2.27105831
     atom    9 type  1   force =    -0.00000000   -0.21227927    6.23178837
     atom   10 type  1   force =     0.00000000   -0.11601312   11.21810828
     atom   11 type  1   force =     0.00000000    0.27087608    8.49729809
     atom   12 type  1   force =     0.00000000   -0.31142893   12.65023661
     atom   13 type  1   force =     0.00000000   -0.66256012  -12.77899814
     atom   14 type  1   force =     0.00000585    0.21231422   -6.23182616
     atom   15 type  1   force =     0.00000337    0.02753309   -2.27106242
     atom   16 type  1   force =    -0.00000569   -0.05962965   -3.26830862
     atom   17 type  1   force =     0.00001119   -0.05049356    0.36800108
     atom   18 type  1   force =     0.00001016   -0.01825766    5.57870453
     atom   19 type  1   force =     0.00000653    0.32081004    8.68097800
     atom   20 type  1   force =    -0.00000324    0.05704670    2.77442193
     atom   21 type  1   force =     0.00000606   -0.10294507    7.78673841
     atom   22 type  1   force =     0.00000185   -0.54848325   11.73887417
     atom   23 type  1   force =    -0.00000062    0.31145437  -12.65023521
     atom   24 type  1   force =     0.00000398    0.66259173   12.77896679
     atom   25 type  1   force =     0.00000085    0.11593099  -11.21810532
     atom   26 type  1   force =    -0.00000504   -0.27084295   -8.49728180
     atom   27 type  1   force =     0.00000096    0.54846517  -11.73890814
     atom   28 type  1   force =     0.00000096    0.10298818   -7.78675137
     atom   29 type  1   force =     0.00000096   -0.32084289   -8.68093520
     atom   30 type  1   force =     0.00000096    0.01823559   -5.57870306
     atom   31 type  1   force =     0.00000096    0.05052681   -0.36801519
     atom   32 type  1   force =     0.00000096    0.05959483    3.26832309
     atom   33 type  1   force =     0.00000096   -0.05708102   -2.77435947
     atom   34 type  1   force =     0.00000096   -0.02751405    2.27107294
     atom   35 type  1   force =     0.00000096   -0.21228149    6.23178802
     atom   36 type  1   force =     0.00000096   -0.11600823   11.21813442
     atom   37 type  1   force =     0.00000096    0.27087376    8.49728353
     atom   38 type  1   force =     0.00000096   -0.31142841   12.65022883
     atom   39 type  1   force =     0.00000096   -0.66255684  -12.77900259
     atom   40 type  1   force =    -0.00000393    0.21231422   -6.23182616
     atom   41 type  1   force =    -0.00000145    0.02753309   -2.27106242
     atom   42 type  1   force =     0.00000761   -0.05962965   -3.26830862
     atom   43 type  1   force =    -0.00000926   -0.05049356    0.36800108
     atom   44 type  1   force =    -0.00000824   -0.01825766    5.57870453
     atom   45 type  1   force =    -0.00000460    0.32081004    8.68097800
     atom   46 type  1   force =     0.00000516    0.05704670    2.77442193
     atom   47 type  1   force =    -0.00000414   -0.10294507    7.78673841
     atom   48 type  1   force =     0.00000007   -0.54848325   11.73887417
     atom   49 type  1   force =     0.00000255    0.31145437  -12.65023521
     atom   50 type  1   force =    -0.00000206    0.66259173   12.77896679
     atom   51 type  1   force =     0.00000107    0.11593099  -11.21810532
     atom   52 type  1   force =     0.00000696   -0.27084295   -8.49728180
     The core correction contribution to forces
     atom    1 type  1   force =     0.00000000    0.00000000    0.00000000
     atom    2 type  1   force =     0.00000000    0.00000000    0.00000000
     atom    3 type  1   force =     0.00000000    0.00000000    0.00000000
     atom    4 type  1   force =     0.00000000    0.00000000    0.00000000
     atom    5 type  1   force =     0.00000000    0.00000000    0.00000000
     atom    6 type  1   force =     0.00000000    0.00000000    0.00000000
     atom    7 type  1   force =     0.00000000    0.00000000    0.00000000
     atom    8 type  1   force =     0.00000000    0.00000000    0.00000000
     atom    9 type  1   force =     0.00000000    0.00000000    0.00000000
     atom   10 type  1   force =     0.00000000    0.00000000    0.00000000
     atom   11 type  1   force =     0.00000000    0.00000000    0.00000000
     atom   12 type  1   force =     0.00000000    0.00000000    0.00000000
     atom   13 type  1   force =     0.00000000    0.00000000    0.00000000
     atom   14 type  1   force =     0.00000000    0.00000000    0.00000000
     atom   15 type  1   force =     0.00000000    0.00000000    0.00000000
     atom   16 type  1   force =     0.00000000    0.00000000    0.00000000
     atom   17 type  1   force =     0.00000000    0.00000000    0.00000000
     atom   18 type  1   force =     0.00000000    0.00000000    0.00000000
     atom   19 type  1   force =     0.00000000    0.00000000    0.00000000
     atom   20 type  1   force =     0.00000000    0.00000000    0.00000000
     atom   21 type  1   force =     0.00000000    0.00000000    0.00000000
     atom   22 type  1   force =     0.00000000    0.00000000    0.00000000
     atom   23 type  1   force =     0.00000000    0.00000000    0.00000000
     atom   24 type  1   force =     0.00000000    0.00000000    0.00000000
     atom   25 type  1   force =     0.00000000    0.00000000    0.00000000
     atom   26 type  1   force =     0.00000000    0.00000000    0.00000000
     atom   27 type  1   force =     0.00000000    0.00000000    0.00000000
     atom   28 type  1   force =     0.00000000    0.00000000    0.00000000
     atom   29 type  1   force =     0.00000000    0.00000000    0.00000000
     atom   30 type  1   force =     0.00000000    0.00000000    0.00000000
     atom   31 type  1   force =     0.00000000    0.00000000    0.00000000
     atom   32 type  1   force =     0.00000000    0.00000000    0.00000000
     atom   33 type  1   force =     0.00000000    0.00000000    0.00000000
     atom   34 type  1   force =     0.00000000    0.00000000    0.00000000
     atom   35 type  1   force =     0.00000000    0.00000000    0.00000000
     atom   36 type  1   force =     0.00000000    0.00000000    0.00000000
     atom   37 type  1   force =     0.00000000    0.00000000    0.00000000
     atom   38 type  1   force =     0.00000000    0.00000000    0.00000000
     atom   39 type  1   force =     0.00000000    0.00000000    0.00000000
     atom   40 type  1   force =     0.00000000    0.00000000    0.00000000
     atom   41 type  1   force =     0.00000000    0.00000000    0.00000000
     atom   42 type  1   force =     0.00000000    0.00000000    0.00000000
     atom   43 type  1   force =     0.00000000    0.00000000    0.00000000
     atom   44 type  1   force =     0.00000000    0.00000000    0.00000000
     atom   45 type  1   force =     0.00000000    0.00000000    0.00000000
     atom   46 type  1   force =     0.00000000    0.00000000    0.00000000
     atom   47 type  1   force =     0.00000000    0.00000000    0.00000000
     atom   48 type  1   force =     0.00000000    0.00000000    0.00000000
     atom   49 type  1   force =     0.00000000    0.00000000    0.00000000
     atom   50 type  1   force =     0.00000000    0.00000000    0.00000000
     atom   51 type  1   force =     0.00000000    0.00000000    0.00000000
     atom   52 type  1   force =     0.00000000    0.00000000    0.00000000
     The Hubbard contrib.    to forces
     atom    1 type  1   force =     0.00000000    0.00000000    0.00000000
     atom    2 type  1   force =     0.00000000    0.00000000    0.00000000
     atom    3 type  1   force =     0.00000000    0.00000000    0.00000000
     atom    4 type  1   force =     0.00000000    0.00000000    0.00000000
     atom    5 type  1   force =     0.00000000    0.00000000    0.00000000
     atom    6 type  1   force =     0.00000000    0.00000000    0.00000000
     atom    7 type  1   force =     0.00000000    0.00000000    0.00000000
     atom    8 type  1   force =     0.00000000    0.00000000    0.00000000
     atom    9 type  1   force =     0.00000000    0.00000000    0.00000000
     atom   10 type  1   force =     0.00000000    0.00000000    0.00000000
     atom   11 type  1   force =     0.00000000    0.00000000    0.00000000
     atom   12 type  1   force =     0.00000000    0.00000000    0.00000000
     atom   13 type  1   force =     0.00000000    0.00000000    0.00000000
     atom   14 type  1   force =     0.00000000    0.00000000    0.00000000
     atom   15 type  1   force =     0.00000000    0.00000000    0.00000000
     atom   16 type  1   force =     0.00000000    0.00000000    0.00000000
     atom   17 type  1   force =     0.00000000    0.00000000    0.00000000
     atom   18 type  1   force =     0.00000000    0.00000000    0.00000000
     atom   19 type  1   force =     0.00000000    0.00000000    0.00000000
     atom   20 type  1   force =     0.00000000    0.00000000    0.00000000
     atom   21 type  1   force =     0.00000000    0.00000000    0.00000000
     atom   22 type  1   force =     0.00000000    0.00000000    0.00000000
     atom   23 type  1   force =     0.00000000    0.00000000    0.00000000
     atom   24 type  1   force =     0.00000000    0.00000000    0.00000000
     atom   25 type  1   force =     0.00000000    0.00000000    0.00000000
     atom   26 type  1   force =     0.00000000    0.00000000    0.00000000
     atom   27 type  1   force =     0.00000000    0.00000000    0.00000000
     atom   28 type  1   force =     0.00000000    0.00000000    0.00000000
     atom   29 type  1   force =     0.00000000    0.00000000    0.00000000
     atom   30 type  1   force =     0.00000000    0.00000000    0.00000000
     atom   31 type  1   force =     0.00000000    0.00000000    0.00000000
     atom   32 type  1   force =     0.00000000    0.00000000    0.00000000
     atom   33 type  1   force =     0.00000000    0.00000000    0.00000000
     atom   34 type  1   force =     0.00000000    0.00000000    0.00000000
     atom   35 type  1   force =     0.00000000    0.00000000    0.00000000
     atom   36 type  1   force =     0.00000000    0.00000000    0.00000000
     atom   37 type  1   force =     0.00000000    0.00000000    0.00000000
     atom   38 type  1   force =     0.00000000    0.00000000    0.00000000
     atom   39 type  1   force =     0.00000000    0.00000000    0.00000000
     atom   40 type  1   force =     0.00000000    0.00000000    0.00000000
     atom   41 type  1   force =     0.00000000    0.00000000    0.00000000
     atom   42 type  1   force =     0.00000000    0.00000000    0.00000000
     atom   43 type  1   force =     0.00000000    0.00000000    0.00000000
     atom   44 type  1   force =     0.00000000    0.00000000    0.00000000
     atom   45 type  1   force =     0.00000000    0.00000000    0.00000000
     atom   46 type  1   force =     0.00000000    0.00000000    0.00000000
     atom   47 type  1   force =     0.00000000    0.00000000    0.00000000
     atom   48 type  1   force =     0.00000000    0.00000000    0.00000000
     atom   49 type  1   force =     0.00000000    0.00000000    0.00000000
     atom   50 type  1   force =     0.00000000    0.00000000    0.00000000
     atom   51 type  1   force =     0.00000000    0.00000000    0.00000000
     atom   52 type  1   force =     0.00000000    0.00000000    0.00000000
     The SCF correction term to forces
     atom    1 type  1   force =     0.00000000   -0.00000000    0.00000000
     atom    2 type  1   force =     0.00000000   -0.00000000    0.00000000
     atom    3 type  1   force =     0.00000000   -0.00000000    0.00000000
     atom    4 type  1   force =     0.00000000    0.00000000    0.00000000
     atom    5 type  1   force =     0.00000000   -0.00000000    0.00000000
     atom    6 type  1   force =     0.00000000    0.00000000   -0.00000000
     atom    7 type  1   force =    -0.00000000   -0.00000000    0.00000000
     atom    8 type  1   force =    -0.00000000   -0.00000000   -0.00000000
     atom    9 type  1   force =     0.00000000    0.00000000   -0.00000000
     atom   10 type  1   force =     0.00000000   -0.00000000   -0.00000000
     atom   11 type  1   force =    -0.00000000   -0.00000000   -0.00000000
     atom   12 type  1   force =     0.00000000    0.00000000   -0.00000000
     atom   13 type  1   force =     0.00000000    0.00000000   -0.00000000
     atom   14 type  1   force =    -0.00000000   -0.00000000    0.00000000
     atom   15 type  1   force =     0.00000000    0.00000000    0.00000000
     atom   16 type  1   force =    -0.00000000   -0.00000000    0.00000000
     atom   17 type  1   force =    -0.00000000    0.00000000   -0.00000000
     atom   18 type  1   force =     0.00000000   -0.00000000   -0.00000000
     atom   19 type  1   force =    -0.00000000    0.00000000   -0.00000000
     atom   20 type  1   force =     0.00000000   -0.00000000   -0.00000000
     atom   21 type  1   force =    -0.00000000    0.00000000   -0.00000000
     atom   22 type  1   force =    -0.00000000    0.00000000   -0.00000000
     atom   23 type  1   force =    -0.00000000   -0.00000000    0.00000000
     atom   24 type  1   force =    -0.00000000   -0.00000000    0.00000000
     atom   25 type  1   force =    -0.00000000    0.00000000    0.00000000
     atom   26 type  1   force =     0.00000000   -0.00000000    0.00000000
     atom   27 type  1   force =    -0.00000000   -0.00000000    0.00000000
     atom   28 type  1   force =     0.00000000   -0.00000000    0.00000000
     atom   29 type  1   force =     0.00000000   -0.00000000    0.00000000
     atom   30 type  1   force =     0.00000000    0.00000000    0.00000000
     atom   31 type  1   force =     0.00000000   -0.00000000    0.00000000
     atom   32 type  1   force =     0.00000000    0.00000000   -0.00000000
     atom   33 type  1   force =     0.00000000   -0.00000000    0.00000000
     atom   34 type  1   force =     0.00000000   -0.00000000   -0.00000000
     atom   35 type  1   force =     0.00000000    0.00000000   -0.00000000
     atom   36 type  1   force =     0.00000000   -0.00000000   -0.00000000
     atom   37 type  1   force =     0.00000000   -0.00000000   -0.00000000
     atom   38 type  1   force =     0.00000000    0.00000000   -0.00000000
     atom   39 type  1   force =    -0.00000000    0.00000000   -0.00000000
     atom   40 type  1   force =     0.00000000   -0.00000000    0.00000000
     atom   41 type  1   force =    -0.00000000    0.00000000    0.00000000
     atom   42 type  1   force =     0.00000000   -0.00000000    0.00000000
     atom   43 type  1   force =     0.00000000    0.00000000   -0.00000000
     atom   44 type  1   force =    -0.00000000   -0.00000000   -0.00000000
     atom   45 type  1   force =     0.00000000    0.00000000   -0.00000000
     atom   46 type  1   force =    -0.00000000   -0.00000000   -0.00000000
     atom   47 type  1   force =     0.00000000    0.00000000   -0.00000000
     atom   48 type  1   force =     0.00000000    0.00000000   -0.00000000
     atom   49 type  1   force =     0.00000000   -0.00000000    0.00000000
     atom   50 type  1   force =     0.00000000   -0.00000000    0.00000000
     atom   51 type  1   force =     0.00000000    0.00000000    0.00000000
     atom   52 type  1   force =    -0.00000000   -0.00000000    0.00000000

     Total force =     0.011375     Total SCF correction =     0.000000

     Writing all to output data dir ./Li/Lithium.save/ :
     XML data file
     init_run     :     27.15s CPU     36.76s WALL (       1 calls)
     electrons    :   2744.03s CPU   3637.45s WALL (       1 calls)
     forces       :     44.52s CPU     46.41s WALL (       1 calls)

     Called by init_run:
     wfcinit      :      4.62s CPU      6.44s WALL (       1 calls)
     wfcinit:wfcr :      4.27s CPU      6.08s WALL (      12 calls)
     potinit      :      0.80s CPU      0.91s WALL (       1 calls)
     hinit0       :      5.66s CPU      6.38s WALL (       1 calls)

     Called by electrons:
     c_bands      :   1877.30s CPU   2588.74s WALL (      65 calls)
     sum_band     :    139.24s CPU    198.20s WALL (      65 calls)
     v_of_rho     :      6.89s CPU      8.16s WALL (      66 calls)
     v_h          :      0.60s CPU      0.72s WALL (      66 calls)
     v_xc         :      6.28s CPU      7.44s WALL (      66 calls)
     newd         :      4.66s CPU      6.69s WALL (      66 calls)
     PAW_pot      :      0.57s CPU      0.85s WALL (      66 calls)
     mix_rho      :     22.37s CPU     26.93s WALL (      65 calls)

     Called by c_bands:
     init_us_2    :     26.10s CPU     26.31s WALL (    1584 calls)
     cegterg      :   1716.81s CPU   2189.66s WALL (     915 calls)

     Called by sum_band:
     sum_band:wei :      0.14s CPU      0.15s WALL (      65 calls)
     sum_band:loo :    134.96s CPU    191.72s WALL (      65 calls)
     sum_band:buf :      2.72s CPU      2.76s WALL (     780 calls)
     sum_band:ini :     12.89s CPU     12.93s WALL (     780 calls)
     sum_band:cal :     21.40s CPU     23.15s WALL (     780 calls)
     sum_band:bec :      0.19s CPU      0.22s WALL (     780 calls)
     addusdens    :      2.83s CPU      4.47s WALL (      65 calls)
                                        0.00s GPU  (      65 calls)
     addusd:skk   :      0.29s CPU      1.15s WALL (      65 calls)
                                        0.00s GPU  (      65 calls)

     Called by *egterg:
     cdiaghg      :    465.49s CPU    483.69s WALL (    9390 calls)
     cegterg:over :     96.91s CPU    106.76s WALL (    8541 calls)
     cegterg:upda :     74.90s CPU     77.39s WALL (    8541 calls)
     cegterg:last :     34.38s CPU     34.53s WALL (    1128 calls)
     h_psi        :    919.46s CPU   1348.52s WALL (    9468 calls)
     s_psi        :     89.37s CPU     90.58s WALL (    9468 calls)
     g_psi        :      1.02s CPU      1.16s WALL (    8541 calls)

     Called by h_psi:
     h_psi:calbec :    107.82s CPU    119.97s WALL (    9468 calls)
     vloc_psi     :    717.84s CPU   1129.36s WALL (    9468 calls)
                                        0.00s GPU  (    9468 calls)
     add_vuspsi   :     89.29s CPU     90.22s WALL (    9468 calls)

     General routines
     calbec       :    130.41s CPU    144.49s WALL (   10296 calls)
     fft          :      5.71s CPU      7.47s WALL (     858 calls)
     ffts         :     12.51s CPU     15.48s WALL (    8003 calls)
     fftw         :    788.70s CPU   1241.94s WALL (  774754 calls)
     interpolate  :      1.18s CPU      1.32s WALL (      66 calls)

     Parallel routines

     PAW routines
     PAW_pot      :      0.57s CPU      0.85s WALL (      66 calls)
     PAW_symme    :      0.03s CPU      0.04s WALL (     131 calls)

     Environ routines

     PWSCF        :  46m55.91s CPU      1h 2m WALL


   This run was terminated on:  12: 0:20  21Jan2025            

=------------------------------------------------------------------------------=
   JOB DONE.
=------------------------------------------------------------------------------=
