
     Program PWSCF v.7.4 starts on  5Jan2025 at  2: 9:57 

     This program is part of the open-source Quantum ESPRESSO suite
     for quantum simulation of materials; please cite
         "P. Giannozzi et al., J. Phys.:Condens. Matter 21 395502 (2009);
         "P. Giannozzi et al., J. Phys.:Condens. Matter 29 465901 (2017);
         "P. Giannozzi et al., J. Chem. Phys. 152 154105 (2020);
          URL http://www.quantum-espresso.org", 
     in publications or presentations arising from this work. More details at
     http://www.quantum-espresso.org/quote

     Parallel version (MPI & OpenMP), running on     256 processor cores
     Number of MPI processes:               256
     Threads/MPI process:                     1

     MPI processes distributed on     2 nodes
     490936 MiB available memory on the printing compute node when the environment starts

     Reading input from espresso.pwi
Warning: card &CELL ignored
Warning: card    PRESS_CONV_THR   = 0.1 ignored
Warning: card    CELL_DOFREE      = 'ALL' ignored
Warning: card / ignored
Warning: card &FCP ignored
Warning: card / ignored
Warning: card &RISM ignored
Warning: card / ignored

     Current dimensions of program PWSCF are:
     Max number of different atomic species (ntypx) = 10
     Max number of k-points (npk) =  40000
     Max angular momentum in pseudopotentials (lmaxx) =  4

     IMPORTANT: XC functional enforced from input :
     Exchange-correlation= PBE
                           (   1   4   3   4   0   0   0)
     Any further DFT definition will be discarded
     Please, verify this is what you really want


     Reading input from environ.in:
     * using ionic solvent mode
     * setting boundary derivatives method to SSCS default
     * setting electrolyte-boundary derivatives method to SSCS default

Environ Warning (1001): card EOF ignored

     
     Found identity + (  0.0000  0.5000  0.0000) symmetry
     This is a supercell, fractional translations are disabled

     R & G space division:  proc/nbgrp/npool/nimage =     256
     Subspace diagonalization in iterative solution of the eigenvalue problem:
     a serial algorithm will be used


     Parallelization info
     --------------------
     sticks:   dense  smooth     PW     G-vecs:    dense   smooth      PW
     Min          41      16      4                24769     6230     846
     Max          42      17      5                24868     6321     923
     Sum       10733    4281   1153              6359029  1608267  224795

     Using Slab Decomposition



     bravais-lattice index     =            6
     lattice parameter (alat)  =      12.9830  a.u.
     unit-cell volume          =   16640.2915 (a.u.)^3
     number of atoms/cell      =           32
     number of atomic types    =            1
     number of electrons       =        96.00
     number of Kohn-Sham states=           72
     kinetic-energy cutoff     =      80.0000  Ry
     charge density cutoff     =     800.0000  Ry
     scf convergence threshold =      1.0E-06
     mixing beta               =       0.2000
     number of iterations used =            8  local-TF  mixing
     energy convergence thresh.=      1.0E-05
     force convergence thresh. =      3.9E-04
     Exchange-correlation= PBE
                           (   1   4   3   4   0   0   0)
     nstep                     =          999


     ================================================================================

                                  Environ Setup Summary

     ================================================================================

     Please cite

          O. Andreussi, I. Dabo and N. Marzari, J. Chem. Phys. 136, 064102 (2012)
          F. Nattino, M. Truscott, N. Marzari, and O. Andreussi, J. Chem. Phys. 150, 041722 (2019)

     in publications or presentations arising from this work.

     ================================================================================

     Parameters
     ==========

     compensation onset threshold      =               0.1000E+00
     static permittivity               =                    89.90
     surface tension in input (dyn/cm) =                    37.30
     surface tension in internal units =               0.4792E-04

     Solvent Boundary
     ================

     solvent mode                      =                    ionic
     derivatives method                =                   lowmem
     electrolyte derivatives method    =                   lowmem
     numerical core for derivatives    =                      fft
     switching function adopted        =                     SCCS
     density limit for vacuum region   =               0.5000E-02
     density limit for bulk solvent    =               0.1000E-03
     soft-sphere radius mode           =                    bondi
     soft-sphere softness              =                     0.50
     alpha                             =                     1.32

     Electrostatic Setup
     ===================

     electrostatic problem to solve    =                    modpb
     numerical solver adopted          =                   newton
     type of auxiliary density adopted =                     none
     numerical core for poisson        =                      fft
     adopting a nested solver scheme
     inner solver                      =                       cg
     inner core                        =                      fft
     type of pbc corrections           =                parabolic
     numerical core for corrections    =                      1da

     ================================================================================


     >>>>> Grand-Canonical SCF is activated <<<<<
     Initial Total Charge  =     0.000000 e
     Target Fermi Energy   =    -1.404000 eV
     Thr. of Fermi Energy  =     0.001000 eV
     Wave-shift of Kerker  =     0.400000 bohr^-1
     Wave-shift of Hartree =     1.500000 bohr^-1
     Mixing Rate of Fermi  =     0.050000

     celldm(1)=  12.983009  celldm(2)=   0.000000  celldm(3)=   7.603873
     celldm(4)=   0.000000  celldm(5)=   0.000000  celldm(6)=   0.000000

     crystal axes: (cart. coord. in units of alat)
               a(1) = (   1.000000   0.000000   0.000000 )  
               a(2) = (   0.000000   1.000000   0.000000 )  
               a(3) = (   0.000000   0.000000   7.603873 )  

     reciprocal axes: (cart. coord. in units 2 pi/alat)
               b(1) = (  1.000000  0.000000  0.000000 )  
               b(2) = (  0.000000  1.000000  0.000000 )  
               b(3) = (  0.000000  0.000000  0.131512 )  


     PseudoPot. # 1 for Li read from file:
     /work/e89/e89/ba3g18/Repos/Pseudopotentials/Pslibrary/Li.pbe-sl-kjpaw_psl.1.0.0.UPF
     MD5 check sum: 3f4d2cafebb47c6c3aa8ed472e6f074d
     Pseudo is Projector augmented-wave, Zval =  3.0
     Generated using 'atomic' code by A. Dal Corso  v.7.4
     Shape of augmentation charge: PSQ
     Using radial grid of 1017 points,  4 beta functions with: 
                l(1) =   0
                l(2) =   0
                l(3) =   1
                l(4) =   1
     Q(r) pseudized with 0 coefficients 


     atomic species   valence    mass     pseudopotential
     Li                3.00     6.94000     Li( 1.00)

      8 Sym. Ops. (no inversion) found


                                    s                        frac. trans.

      isym =  1     identity                                     

 cryst.   s( 1) = (     1          0          0      )
                  (     0          1          0      )
                  (     0          0          1      )

 cart.    s( 1) = (  1.0000000  0.0000000  0.0000000 )
                  (  0.0000000  1.0000000  0.0000000 )
                  (  0.0000000  0.0000000  1.0000000 )


      isym =  2     180 deg rotation - cart. axis [0,0,1]        

 cryst.   s( 2) = (    -1          0          0      )
                  (     0         -1          0      )
                  (     0          0          1      )

 cart.    s( 2) = ( -1.0000000  0.0000000  0.0000000 )
                  (  0.0000000 -1.0000000  0.0000000 )
                  (  0.0000000  0.0000000  1.0000000 )


      isym =  3      90 deg rotation - cart. axis [0,0,-1]       

 cryst.   s( 3) = (     0         -1          0      )
                  (     1          0          0      )
                  (     0          0          1      )

 cart.    s( 3) = (  0.0000000  1.0000000  0.0000000 )
                  ( -1.0000000  0.0000000  0.0000000 )
                  (  0.0000000  0.0000000  1.0000000 )


      isym =  4      90 deg rotation - cart. axis [0,0,1]        

 cryst.   s( 4) = (     0          1          0      )
                  (    -1          0          0      )
                  (     0          0          1      )

 cart.    s( 4) = (  0.0000000 -1.0000000  0.0000000 )
                  (  1.0000000  0.0000000  0.0000000 )
                  (  0.0000000  0.0000000  1.0000000 )


      isym =  5     inv. 180 deg rotation - cart. axis [0,1,0]   

 cryst.   s( 5) = (     1          0          0      )
                  (     0         -1          0      )
                  (     0          0          1      )

 cart.    s( 5) = (  1.0000000  0.0000000  0.0000000 )
                  (  0.0000000 -1.0000000  0.0000000 )
                  (  0.0000000  0.0000000  1.0000000 )


      isym =  6     inv. 180 deg rotation - cart. axis [1,0,0]   

 cryst.   s( 6) = (    -1          0          0      )
                  (     0          1          0      )
                  (     0          0          1      )

 cart.    s( 6) = ( -1.0000000  0.0000000  0.0000000 )
                  (  0.0000000  1.0000000  0.0000000 )
                  (  0.0000000  0.0000000  1.0000000 )


      isym =  7     inv. 180 deg rotation - cart. axis [1,1,0]   

 cryst.   s( 7) = (     0         -1          0      )
                  (    -1          0          0      )
                  (     0          0          1      )

 cart.    s( 7) = (  0.0000000 -1.0000000  0.0000000 )
                  ( -1.0000000  0.0000000  0.0000000 )
                  (  0.0000000  0.0000000  1.0000000 )


      isym =  8     inv. 180 deg rotation - cart. axis [1,-1,0]  

 cryst.   s( 8) = (     0          1          0      )
                  (     1          0          0      )
                  (     0          0          1      )

 cart.    s( 8) = (  0.0000000  1.0000000  0.0000000 )
                  (  1.0000000  0.0000000  0.0000000 )
                  (  0.0000000  0.0000000  1.0000000 )


     point group C_4v (4mm) 
     there are  5 classes
     the character table:

       E     2C4   C2    2s_v  2s_d 
A_1    1.00  1.00  1.00  1.00  1.00
A_2    1.00  1.00  1.00 -1.00 -1.00
B_1    1.00 -1.00  1.00  1.00 -1.00
B_2    1.00 -1.00  1.00 -1.00  1.00
E      2.00  0.00 -2.00  0.00  0.00

     the symmetry operations in each class and the name of the first element:

     E        1
          identity                                               
     2C4      3    4
           90 deg rotation - cart. axis [0,0,-1]                 
     C2       2
          180 deg rotation - cart. axis [0,0,1]                  
     2s_v     5    6
          inv. 180 deg rotation - cart. axis [0,1,0]             
     2s_d     7    8
          inv. 180 deg rotation - cart. axis [1,1,0]             

   Cartesian axes

     site n.     atom                  positions (alat units)
         1        Li     tau(   1) = (  -0.0000000  -0.0000000   3.1749788  )
         2        Li     tau(   2) = (   0.2500001   0.2500001   2.9131303  )
         3        Li     tau(   3) = (  -0.0000000  -0.0000000   3.6770583  )
         4        Li     tau(   4) = (   0.2499999   0.2499999   3.4231280  )
         5        Li     tau(   5) = (  -0.0000000  -0.0000000   4.1807502  )
         6        Li     tau(   6) = (   0.2499994   0.2499994   3.9265826  )
         7        Li     tau(   7) = (  -0.0000000  -0.0000000   4.6909535  )
         8        Li     tau(   8) = (   0.2500001   0.2500001   4.4289796  )
         9        Li     tau(   9) = (  -0.0000000   0.5000000   3.1749812  )
        10        Li     tau(  10) = (   0.2500001   0.7499999   2.9131303  )
        11        Li     tau(  11) = (  -0.0000000   0.5000000   3.6770544  )
        12        Li     tau(  12) = (   0.2499999   0.7500001   3.4231280  )
        13        Li     tau(  13) = (  -0.0000000   0.5000000   4.1807589  )
        14        Li     tau(  14) = (   0.2499994   0.7500005   3.9265826  )
        15        Li     tau(  15) = (  -0.0000000   0.5000000   4.6909513  )
        16        Li     tau(  16) = (   0.2500001   0.7499998   4.4289796  )
        17        Li     tau(  17) = (   0.5000000  -0.0000000   3.1749812  )
        18        Li     tau(  18) = (   0.7499999   0.2500001   2.9131303  )
        19        Li     tau(  19) = (   0.5000000  -0.0000000   3.6770544  )
        20        Li     tau(  20) = (   0.7500001   0.2499999   3.4231280  )
        21        Li     tau(  21) = (   0.5000000  -0.0000000   4.1807589  )
        22        Li     tau(  22) = (   0.7500005   0.2499994   3.9265826  )
        23        Li     tau(  23) = (   0.5000000  -0.0000000   4.6909513  )
        24        Li     tau(  24) = (   0.7499998   0.2500001   4.4289796  )
        25        Li     tau(  25) = (   0.5000000   0.5000000   3.1749804  )
        26        Li     tau(  26) = (   0.7499999   0.7499999   2.9131303  )
        27        Li     tau(  27) = (   0.5000000   0.5000000   3.6770523  )
        28        Li     tau(  28) = (   0.7500001   0.7500001   3.4231280  )
        29        Li     tau(  29) = (   0.5000000   0.5000000   4.1807550  )
        30        Li     tau(  30) = (   0.7500005   0.7500005   3.9265826  )
        31        Li     tau(  31) = (   0.5000000   0.5000000   4.6909519  )
        32        Li     tau(  32) = (   0.7499998   0.7499998   4.4289796  )

   Crystallographic axes

     site n.     atom                  positions (cryst. coord.)
         1        Li     tau(   1) = ( -0.0000000 -0.0000000  0.4175476  )
         2        Li     tau(   2) = (  0.2500001  0.2500001  0.3831114  )
         3        Li     tau(   3) = ( -0.0000000 -0.0000000  0.4835770  )
         4        Li     tau(   4) = (  0.2499999  0.2499999  0.4501822  )
         5        Li     tau(   5) = ( -0.0000000 -0.0000000  0.5498185  )
         6        Li     tau(   6) = (  0.2499994  0.2499994  0.5163925  )
         7        Li     tau(   7) = ( -0.0000000 -0.0000000  0.6169163  )
         8        Li     tau(   8) = (  0.2500001  0.2500001  0.5824636  )
         9        Li     tau(   9) = ( -0.0000000  0.5000000  0.4175479  )
        10        Li     tau(  10) = (  0.2500001  0.7499999  0.3831114  )
        11        Li     tau(  11) = ( -0.0000000  0.5000000  0.4835765  )
        12        Li     tau(  12) = (  0.2499999  0.7500001  0.4501822  )
        13        Li     tau(  13) = ( -0.0000000  0.5000000  0.5498197  )
        14        Li     tau(  14) = (  0.2499994  0.7500005  0.5163925  )
        15        Li     tau(  15) = ( -0.0000000  0.5000000  0.6169161  )
        16        Li     tau(  16) = (  0.2500001  0.7499998  0.5824636  )
        17        Li     tau(  17) = (  0.5000000 -0.0000000  0.4175479  )
        18        Li     tau(  18) = (  0.7499999  0.2500001  0.3831114  )
        19        Li     tau(  19) = (  0.5000000 -0.0000000  0.4835765  )
        20        Li     tau(  20) = (  0.7500001  0.2499999  0.4501822  )
        21        Li     tau(  21) = (  0.5000000 -0.0000000  0.5498197  )
        22        Li     tau(  22) = (  0.7500005  0.2499994  0.5163925  )
        23        Li     tau(  23) = (  0.5000000 -0.0000000  0.6169161  )
        24        Li     tau(  24) = (  0.7499998  0.2500001  0.5824636  )
        25        Li     tau(  25) = (  0.5000000  0.5000000  0.4175478  )
        26        Li     tau(  26) = (  0.7499999  0.7499999  0.3831114  )
        27        Li     tau(  27) = (  0.5000000  0.5000000  0.4835762  )
        28        Li     tau(  28) = (  0.7500001  0.7500001  0.4501822  )
        29        Li     tau(  29) = (  0.5000000  0.5000000  0.5498192  )
        30        Li     tau(  30) = (  0.7500005  0.7500005  0.5163925  )
        31        Li     tau(  31) = (  0.5000000  0.5000000  0.6169161  )
        32        Li     tau(  32) = (  0.7499998  0.7499998  0.5824636  )

     number of k points=    21  Marzari-Vanderbilt smearing, width (Ry)=  0.0100
                       cart. coord. in units 2pi/alat
        k(    1) = (   0.0000000   0.0000000   0.0000000), wk =   0.0200000
        k(    2) = (   0.0000000   0.1000000   0.0000000), wk =   0.0800000
        k(    3) = (   0.0000000   0.2000000   0.0000000), wk =   0.0800000
        k(    4) = (   0.0000000   0.3000000   0.0000000), wk =   0.0800000
        k(    5) = (   0.0000000   0.4000000   0.0000000), wk =   0.0800000
        k(    6) = (   0.0000000  -0.5000000   0.0000000), wk =   0.0400000
        k(    7) = (   0.1000000   0.1000000   0.0000000), wk =   0.0800000
        k(    8) = (   0.1000000   0.2000000   0.0000000), wk =   0.1600000
        k(    9) = (   0.1000000   0.3000000   0.0000000), wk =   0.1600000
        k(   10) = (   0.1000000   0.4000000   0.0000000), wk =   0.1600000
        k(   11) = (   0.1000000  -0.5000000   0.0000000), wk =   0.0800000
        k(   12) = (   0.2000000   0.2000000   0.0000000), wk =   0.0800000
        k(   13) = (   0.2000000   0.3000000   0.0000000), wk =   0.1600000
        k(   14) = (   0.2000000   0.4000000   0.0000000), wk =   0.1600000
        k(   15) = (   0.2000000  -0.5000000   0.0000000), wk =   0.0800000
        k(   16) = (   0.3000000   0.3000000   0.0000000), wk =   0.0800000
        k(   17) = (   0.3000000   0.4000000   0.0000000), wk =   0.1600000
        k(   18) = (   0.3000000  -0.5000000   0.0000000), wk =   0.0800000
        k(   19) = (   0.4000000   0.4000000   0.0000000), wk =   0.0800000
        k(   20) = (   0.4000000  -0.5000000   0.0000000), wk =   0.0800000
        k(   21) = (  -0.5000000  -0.5000000   0.0000000), wk =   0.0200000

                       cryst. coord.
        k(    1) = (   0.0000000   0.0000000   0.0000000), wk =   0.0200000
        k(    2) = (   0.0000000   0.1000000   0.0000000), wk =   0.0800000
        k(    3) = (   0.0000000   0.2000000   0.0000000), wk =   0.0800000
        k(    4) = (   0.0000000   0.3000000   0.0000000), wk =   0.0800000
        k(    5) = (   0.0000000   0.4000000   0.0000000), wk =   0.0800000
        k(    6) = (   0.0000000  -0.5000000   0.0000000), wk =   0.0400000
        k(    7) = (   0.1000000   0.1000000   0.0000000), wk =   0.0800000
        k(    8) = (   0.1000000   0.2000000   0.0000000), wk =   0.1600000
        k(    9) = (   0.1000000   0.3000000   0.0000000), wk =   0.1600000
        k(   10) = (   0.1000000   0.4000000   0.0000000), wk =   0.1600000
        k(   11) = (   0.1000000  -0.5000000   0.0000000), wk =   0.0800000
        k(   12) = (   0.2000000   0.2000000   0.0000000), wk =   0.0800000
        k(   13) = (   0.2000000   0.3000000   0.0000000), wk =   0.1600000
        k(   14) = (   0.2000000   0.4000000   0.0000000), wk =   0.1600000
        k(   15) = (   0.2000000  -0.5000000   0.0000000), wk =   0.0800000
        k(   16) = (   0.3000000   0.3000000   0.0000000), wk =   0.0800000
        k(   17) = (   0.3000000   0.4000000   0.0000000), wk =   0.1600000
        k(   18) = (   0.3000000  -0.5000000   0.0000000), wk =   0.0800000
        k(   19) = (   0.4000000   0.4000000   0.0000000), wk =   0.0800000
        k(   20) = (   0.4000000  -0.5000000   0.0000000), wk =   0.0800000
        k(   21) = (  -0.5000000  -0.5000000   0.0000000), wk =   0.0200000

     Dense  grid:  6359029 G-vectors     FFT dimensions: ( 120, 120, 900)

     Smooth grid:  1608267 G-vectors     FFT dimensions: (  75,  75, 576)

     Dynamical RAM for                 wfc:       0.86 MB

     Dynamical RAM for     wfc (w. buffer):      18.97 MB

     Dynamical RAM for           str. fact:       0.38 MB

     Dynamical RAM for           local pot:       0.00 MB

     Dynamical RAM for          nlocal pot:       3.07 MB

     Dynamical RAM for                qrad:       0.65 MB

     Dynamical RAM for          rho,v,vnew:       2.46 MB

     Dynamical RAM for               rhoin:       0.82 MB

     Dynamical RAM for            rho*nmix:       6.07 MB

     Dynamical RAM for           G-vectors:       1.47 MB

     Dynamical RAM for          h,s,v(r/c):       3.80 MB

     Dynamical RAM for          <psi|beta>:       0.28 MB

     Dynamical RAM for                 psi:       3.45 MB

     Dynamical RAM for                hpsi:       3.45 MB

     Dynamical RAM for                spsi:       3.45 MB

     Dynamical RAM for      wfcinit/wfcrot:       1.84 MB

     Dynamical RAM for           addusdens:      28.45 MB

     Dynamical RAM for          addusforce:      52.18 MB

     Estimated static dynamical RAM per process >      30.77 MB

     Estimated max dynamical RAM per process >      97.03 MB

     Estimated total dynamical RAM >      22.26 GB

     Initial potential from superposition of free atoms

     starting charge      95.8525, renormalised to      96.0000

     negative rho (up, down):  2.906E-03 0.000E+00
     Starting wfcs are random
     Checking if some PAW data can be deallocated... 

     total cpu time spent up to now is       22.8 secs

     Self-consistent Calculation

     iteration #  1     ecut=    80.00 Ry     beta= 0.20
     Davidson diagonalization with overlap

---- Real-time Memory Report at c_bands before calling an iterative solver
           379 MiB given to the printing process from OS
             0 MiB allocation reported by mallinfo(arena+hblkhd)
        480075 MiB available memory on the node where the printing process lives
------------------
     c_bands:  1 eigenvalues not converged
     c_bands:  1 eigenvalues not converged
     c_bands:  1 eigenvalues not converged
     c_bands:  1 eigenvalues not converged
     c_bands:  2 eigenvalues not converged
     ethr =  1.00E-12,  avg # of iterations =119.7

     negative rho (up, down):  2.201E-03 0.000E+00

     total cpu time spent up to now is      217.2 secs

     total energy              =    -481.26586741 Ry
     estimated scf accuracy    <       0.11038852 Ry

     total charge of GC-SCF    =      -0.03108591 e
     the Fermi energy          =      -4.22927738 eV
                        (error :       2.82527738 eV)
     electrostatic embedding   =       0.00000000 Ry
     cavitation energy         =       0.01925773 Ry
     electrolyte free energy   =       0.00716218 Ry
     correction to one-el term =      -0.00000000 Ry

     iteration #  2     ecut=    80.00 Ry     beta= 0.20
     Davidson diagonalization with overlap

---- Real-time Memory Report at c_bands before calling an iterative solver
           379 MiB given to the printing process from OS
             0 MiB allocation reported by mallinfo(arena+hblkhd)
        477589 MiB available memory on the node where the printing process lives
------------------
     ethr =  1.00E-05,  avg # of iterations = 10.7

     negative rho (up, down):  1.755E-03 0.000E+00

     add environment contribution to local potential

     total cpu time spent up to now is      241.1 secs

     total energy              =    -481.32749091 Ry
     estimated scf accuracy    <       0.04339796 Ry

     total charge of GC-SCF    =      -0.04924407 e
     the Fermi energy          =      -2.82969982 eV
                        (error :       1.42569982 eV)
     electrostatic embedding   =      -0.00028170 Ry
     cavitation energy         =       0.01925773 Ry
     electrolyte free energy   =       0.00716218 Ry
     correction to one-el term =      -0.00000000 Ry

     iteration #  3     ecut=    80.00 Ry     beta= 0.20
     Davidson diagonalization with overlap

---- Real-time Memory Report at c_bands before calling an iterative solver
           379 MiB given to the printing process from OS
             0 MiB allocation reported by mallinfo(arena+hblkhd)
        477563 MiB available memory on the node where the printing process lives
------------------
     ethr =  1.00E-05,  avg # of iterations = 20.2

     negative rho (up, down):  1.433E-03 0.000E+00

     add environment contribution to local potential

     total cpu time spent up to now is      274.5 secs

     total energy              =    -481.23142731 Ry
     estimated scf accuracy    <       0.03756683 Ry

     total charge of GC-SCF    =      -0.15883786 e
     the Fermi energy          =      -2.79816762 eV
                        (error :       1.39416762 eV)
     electrostatic embedding   =      -0.02360692 Ry
     cavitation energy         =       0.01925773 Ry
     electrolyte free energy   =      -0.00233861 Ry
     correction to one-el term =       2.03730161 Ry

     iteration #  4     ecut=    80.00 Ry     beta= 0.20
     Davidson diagonalization with overlap

---- Real-time Memory Report at c_bands before calling an iterative solver
           379 MiB given to the printing process from OS
             0 MiB allocation reported by mallinfo(arena+hblkhd)
        477580 MiB available memory on the node where the printing process lives
------------------
     ethr =  1.00E-05,  avg # of iterations =  9.8

     negative rho (up, down):  1.152E-03 0.000E+00

     add environment contribution to local potential

     total cpu time spent up to now is      297.3 secs

     total energy              =    -481.21904953 Ry
     estimated scf accuracy    <       0.01240748 Ry

     total charge of GC-SCF    =      -0.30252046 e
     the Fermi energy          =      -3.06808706 eV
                        (error :       1.66408706 eV)
     electrostatic embedding   =      -0.03305877 Ry
     cavitation energy         =       0.01925773 Ry
     electrolyte free energy   =      -0.00309237 Ry
     correction to one-el term =       6.75568926 Ry

     iteration #  5     ecut=    80.00 Ry     beta= 0.20
     Davidson diagonalization with overlap

---- Real-time Memory Report at c_bands before calling an iterative solver
           379 MiB given to the printing process from OS
             0 MiB allocation reported by mallinfo(arena+hblkhd)
        477524 MiB available memory on the node where the printing process lives
------------------
     ethr =  1.00E-05,  avg # of iterations = 14.1

     negative rho (up, down):  9.452E-04 0.000E+00

     add environment contribution to local potential

     total cpu time spent up to now is      325.1 secs

     total energy              =    -481.19531478 Ry
     estimated scf accuracy    <       0.00420271 Ry

     total charge of GC-SCF    =      -0.59505753 e
     the Fermi energy          =      -2.47680442 eV
                        (error :       1.07280442 eV)
     electrostatic embedding   =      -0.04887002 Ry
     cavitation energy         =       0.01925773 Ry
     electrolyte free energy   =      -0.00026621 Ry
     correction to one-el term =      12.53164662 Ry

     iteration #  6     ecut=    80.00 Ry     beta= 0.20
     Davidson diagonalization with overlap

---- Real-time Memory Report at c_bands before calling an iterative solver
           379 MiB given to the printing process from OS
             0 MiB allocation reported by mallinfo(arena+hblkhd)
        477500 MiB available memory on the node where the printing process lives
------------------
     ethr =  4.35E-06,  avg # of iterations = 19.0

     negative rho (up, down):  7.885E-04 0.000E+00

     add environment contribution to local potential

     total cpu time spent up to now is      353.8 secs

     total energy              =    -481.27492523 Ry
     estimated scf accuracy    <       0.02372776 Ry

     total charge of GC-SCF    =      -0.77256558 e
     the Fermi energy          =      -1.86980315 eV
                        (error :       0.46580315 eV)
     electrostatic embedding   =      -0.11244848 Ry
     cavitation energy         =       0.01925773 Ry
     electrolyte free energy   =      -0.00215597 Ry
     correction to one-el term =      25.18120549 Ry

     iteration #  7     ecut=    80.00 Ry     beta= 0.20
     Davidson diagonalization with overlap

---- Real-time Memory Report at c_bands before calling an iterative solver
           379 MiB given to the printing process from OS
             0 MiB allocation reported by mallinfo(arena+hblkhd)
        477478 MiB available memory on the node where the printing process lives
------------------
     ethr =  4.35E-06,  avg # of iterations =  5.3

     negative rho (up, down):  6.818E-04 0.000E+00

     add environment contribution to local potential

     total cpu time spent up to now is      369.6 secs

     total energy              =    -481.26893915 Ry
     estimated scf accuracy    <       0.01945339 Ry

     total charge of GC-SCF    =      -0.93400835 e
     the Fermi energy          =      -1.90779459 eV
                        (error :       0.50379459 eV)
     electrostatic embedding   =      -0.17023585 Ry
     cavitation energy         =       0.01925773 Ry
     electrolyte free energy   =      -0.00237209 Ry
     correction to one-el term =      31.05246158 Ry

     iteration #  8     ecut=    80.00 Ry     beta= 0.20
     Davidson diagonalization with overlap

---- Real-time Memory Report at c_bands before calling an iterative solver
           379 MiB given to the printing process from OS
             0 MiB allocation reported by mallinfo(arena+hblkhd)
        477443 MiB available memory on the node where the printing process lives
------------------
     ethr =  4.35E-06,  avg # of iterations =  7.6

     negative rho (up, down):  6.155E-04 0.000E+00

     add environment contribution to local potential

     total cpu time spent up to now is      387.7 secs

     total energy              =    -481.30738906 Ry
     estimated scf accuracy    <       0.00988356 Ry

     total charge of GC-SCF    =      -1.10410400 e
     the Fermi energy          =      -1.99085092 eV
                        (error :       0.58685092 eV)
     electrostatic embedding   =      -0.23513559 Ry
     cavitation energy         =       0.01925773 Ry
     electrolyte free energy   =      -0.00243985 Ry
     correction to one-el term =      36.46545367 Ry

     iteration #  9     ecut=    80.00 Ry     beta= 0.20
     Davidson diagonalization with overlap

---- Real-time Memory Report at c_bands before calling an iterative solver
           379 MiB given to the printing process from OS
             0 MiB allocation reported by mallinfo(arena+hblkhd)
        477418 MiB available memory on the node where the printing process lives
------------------
     ethr =  4.35E-06,  avg # of iterations =  6.3

     negative rho (up, down):  5.640E-04 0.000E+00

     add environment contribution to local potential

     total cpu time spent up to now is      405.0 secs

     total energy              =    -481.25572017 Ry
     estimated scf accuracy    <       0.01766941 Ry

     total charge of GC-SCF    =      -1.41089733 e
     the Fermi energy          =      -1.88262485 eV
                        (error :       0.47862485 eV)
     electrostatic embedding   =      -0.30886866 Ry
     cavitation energy         =       0.01925773 Ry
     electrolyte free energy   =      -0.00348136 Ry
     correction to one-el term =      41.75332832 Ry

     iteration # 10     ecut=    80.00 Ry     beta= 0.20
     Davidson diagonalization with overlap

---- Real-time Memory Report at c_bands before calling an iterative solver
           379 MiB given to the printing process from OS
             0 MiB allocation reported by mallinfo(arena+hblkhd)
        477383 MiB available memory on the node where the printing process lives
------------------
     ethr =  4.35E-06,  avg # of iterations =  7.0

     negative rho (up, down):  5.321E-04 0.000E+00

     add environment contribution to local potential

     total cpu time spent up to now is      423.6 secs

     total energy              =    -481.30556895 Ry
     estimated scf accuracy    <       0.00732112 Ry

     total charge of GC-SCF    =      -1.97014570 e
     the Fermi energy          =      -1.99765175 eV
                        (error :       0.59365175 eV)
     electrostatic embedding   =      -0.47603215 Ry
     cavitation energy         =       0.01925773 Ry
     electrolyte free energy   =      -0.00421202 Ry
     correction to one-el term =      51.29094696 Ry

     iteration # 11     ecut=    80.00 Ry     beta= 0.20
     Davidson diagonalization with overlap

---- Real-time Memory Report at c_bands before calling an iterative solver
           379 MiB given to the printing process from OS
             0 MiB allocation reported by mallinfo(arena+hblkhd)
        477362 MiB available memory on the node where the printing process lives
------------------
     ethr =  4.35E-06,  avg # of iterations =  9.5

     negative rho (up, down):  5.095E-04 0.000E+00

     add environment contribution to local potential

     total cpu time spent up to now is      447.7 secs

     total energy              =    -481.41530255 Ry
     estimated scf accuracy    <       0.03245442 Ry

     total charge of GC-SCF    =      -2.34225018 e
     the Fermi energy          =      -1.69514158 eV
                        (error :       0.29114158 eV)
     electrostatic embedding   =      -0.84803085 Ry
     cavitation energy         =       0.01925773 Ry
     electrolyte free energy   =      -0.00953972 Ry
     correction to one-el term =      67.60515379 Ry

     iteration # 12     ecut=    80.00 Ry     beta= 0.20
     Davidson diagonalization with overlap

---- Real-time Memory Report at c_bands before calling an iterative solver
           379 MiB given to the printing process from OS
             0 MiB allocation reported by mallinfo(arena+hblkhd)
        477340 MiB available memory on the node where the printing process lives
------------------
     ethr =  4.35E-06,  avg # of iterations = 14.1

     negative rho (up, down):  4.798E-04 0.000E+00

     add environment contribution to local potential

     total cpu time spent up to now is      474.7 secs

     total energy              =    -481.54383396 Ry
     estimated scf accuracy    <       0.05747519 Ry

     total charge of GC-SCF    =      -2.33010499 e
     the Fermi energy          =      -1.52073188 eV
                        (error :       0.11673188 eV)
     electrostatic embedding   =      -1.15882233 Ry
     cavitation energy         =       0.01925773 Ry
     electrolyte free energy   =      -0.01428315 Ry
     correction to one-el term =      78.56658670 Ry

     iteration # 13     ecut=    80.00 Ry     beta= 0.20
     Davidson diagonalization with overlap

---- Real-time Memory Report at c_bands before calling an iterative solver
           379 MiB given to the printing process from OS
             0 MiB allocation reported by mallinfo(arena+hblkhd)
        477348 MiB available memory on the node where the printing process lives
------------------
     ethr =  4.35E-06,  avg # of iterations =  1.0

     negative rho (up, down):  4.343E-04 0.000E+00

     add environment contribution to local potential

     total cpu time spent up to now is      486.7 secs

     total energy              =    -481.36711580 Ry
     estimated scf accuracy    <       0.05909293 Ry

     total charge of GC-SCF    =      -2.18970808 e
     the Fermi energy          =      -1.51410318 eV
                        (error :       0.11010318 eV)
     electrostatic embedding   =      -1.14806595 Ry
     cavitation energy         =       0.01925773 Ry
     electrolyte free energy   =      -0.01412785 Ry
     correction to one-el term =      78.25186574 Ry

     iteration # 14     ecut=    80.00 Ry     beta= 0.20
     Davidson diagonalization with overlap

---- Real-time Memory Report at c_bands before calling an iterative solver
           379 MiB given to the printing process from OS
             0 MiB allocation reported by mallinfo(arena+hblkhd)
        477350 MiB available memory on the node where the printing process lives
------------------
     ethr =  4.35E-06,  avg # of iterations = 12.2

     negative rho (up, down):  4.451E-04 0.000E+00

     add environment contribution to local potential

     total cpu time spent up to now is      511.5 secs

     total energy              =    -481.44630593 Ry
     estimated scf accuracy    <       0.00486853 Ry

     total charge of GC-SCF    =      -2.01415375 e
     the Fermi energy          =      -1.96928185 eV
                        (error :       0.56528185 eV)
     electrostatic embedding   =      -1.04548098 Ry
     cavitation energy         =       0.01925773 Ry
     electrolyte free energy   =      -0.01083554 Ry
     correction to one-el term =      74.71886288 Ry

     iteration # 15     ecut=    80.00 Ry     beta= 0.20
     Davidson diagonalization with overlap

---- Real-time Memory Report at c_bands before calling an iterative solver
           379 MiB given to the printing process from OS
             0 MiB allocation reported by mallinfo(arena+hblkhd)
        477346 MiB available memory on the node where the printing process lives
------------------
     ethr =  4.35E-06,  avg # of iterations =  6.3

     negative rho (up, down):  4.113E-04 0.000E+00

     add environment contribution to local potential

     total cpu time spent up to now is      528.7 secs

     total energy              =    -481.33948871 Ry
     estimated scf accuracy    <       0.00206756 Ry

     total charge of GC-SCF    =      -2.35503019 e
     the Fermi energy          =      -2.04964742 eV
                        (error :       0.64564742 eV)
     electrostatic embedding   =      -0.89791314 Ry
     cavitation energy         =       0.01925773 Ry
     electrolyte free energy   =      -0.00846051 Ry
     correction to one-el term =      69.25435273 Ry

     iteration # 16     ecut=    80.00 Ry     beta= 0.20
     Davidson diagonalization with overlap

---- Real-time Memory Report at c_bands before calling an iterative solver
           379 MiB given to the printing process from OS
             0 MiB allocation reported by mallinfo(arena+hblkhd)
        477348 MiB available memory on the node where the printing process lives
------------------
     ethr =  2.10E-06,  avg # of iterations =  6.1

     negative rho (up, down):  3.767E-04 0.000E+00

     add environment contribution to local potential

     total cpu time spent up to now is      546.5 secs

     total energy              =    -481.39693875 Ry
     estimated scf accuracy    <       0.00073480 Ry

     total charge of GC-SCF    =      -2.46778281 e
     the Fermi energy          =      -2.07141138 eV
                        (error :       0.66741138 eV)
     electrostatic embedding   =      -1.20154479 Ry
     cavitation energy         =       0.01925773 Ry
     electrolyte free energy   =      -0.01258985 Ry
     correction to one-el term =      79.70161982 Ry

     iteration # 17     ecut=    80.00 Ry     beta= 0.20
     Davidson diagonalization with overlap

---- Real-time Memory Report at c_bands before calling an iterative solver
           379 MiB given to the printing process from OS
             0 MiB allocation reported by mallinfo(arena+hblkhd)
        477342 MiB available memory on the node where the printing process lives
------------------
     ethr =  7.46E-07,  avg # of iterations =  7.0

     negative rho (up, down):  3.360E-04 0.000E+00

     add environment contribution to local potential

     total cpu time spent up to now is      565.5 secs

     total energy              =    -481.41250465 Ry
     estimated scf accuracy    <       0.00076878 Ry

     total charge of GC-SCF    =      -3.55742396 e
     the Fermi energy          =      -2.04319881 eV
                        (error :       0.63919881 eV)
     electrostatic embedding   =      -1.30458699 Ry
     cavitation energy         =       0.01925773 Ry
     electrolyte free energy   =      -0.01436923 Ry
     correction to one-el term =      82.87834967 Ry

     iteration # 18     ecut=    80.00 Ry     beta= 0.20
     Davidson diagonalization with overlap

---- Real-time Memory Report at c_bands before calling an iterative solver
           379 MiB given to the printing process from OS
             0 MiB allocation reported by mallinfo(arena+hblkhd)
        477309 MiB available memory on the node where the printing process lives
------------------
     ethr =  7.46E-07,  avg # of iterations = 10.3

     negative rho (up, down):  3.000E-04 0.000E+00

     add environment contribution to local potential

     total cpu time spent up to now is      591.2 secs

     total energy              =    -481.43547718 Ry
     estimated scf accuracy    <       0.00052795 Ry

     total charge of GC-SCF    =      -3.93668620 e
     the Fermi energy          =      -1.77170122 eV
                        (error :       0.36770122 eV)
     electrostatic embedding   =      -2.51336648 Ry
     cavitation energy         =       0.01925773 Ry
     electrolyte free energy   =      -0.04181718 Ry
     correction to one-el term =     113.27840166 Ry

     iteration # 19     ecut=    80.00 Ry     beta= 0.20
     Davidson diagonalization with overlap

---- Real-time Memory Report at c_bands before calling an iterative solver
           379 MiB given to the printing process from OS
             0 MiB allocation reported by mallinfo(arena+hblkhd)
        477348 MiB available memory on the node where the printing process lives
------------------
     ethr =  5.28E-07,  avg # of iterations =  6.4

     negative rho (up, down):  3.293E-04 0.000E+00

     add environment contribution to local potential

     total cpu time spent up to now is      612.4 secs

     total energy              =    -481.46784619 Ry
     estimated scf accuracy    <       0.00026321 Ry

     total charge of GC-SCF    =      -3.91182769 e
     the Fermi energy          =      -1.73144909 eV
                        (error :       0.32744909 eV)
     electrostatic embedding   =      -3.04868069 Ry
     cavitation energy         =       0.01925773 Ry
     electrolyte free energy   =      -0.05642565 Ry
     correction to one-el term =     124.59826780 Ry

     iteration # 20     ecut=    80.00 Ry     beta= 0.20
     Davidson diagonalization with overlap

---- Real-time Memory Report at c_bands before calling an iterative solver
           379 MiB given to the printing process from OS
             0 MiB allocation reported by mallinfo(arena+hblkhd)
        477305 MiB available memory on the node where the printing process lives
------------------
     ethr =  2.63E-07,  avg # of iterations =  8.9

     negative rho (up, down):  2.907E-04 0.000E+00

     add environment contribution to local potential

     total cpu time spent up to now is      637.2 secs

     total energy              =    -481.46565334 Ry
     estimated scf accuracy    <       0.00028574 Ry

     total charge of GC-SCF    =      -3.89510431 e
     the Fermi energy          =      -1.67763735 eV
                        (error :       0.27363735 eV)
     electrostatic embedding   =      -2.99232076 Ry
     cavitation energy         =       0.01925773 Ry
     electrolyte free energy   =      -0.05553318 Ry
     correction to one-el term =     122.98667227 Ry

     iteration # 21     ecut=    80.00 Ry     beta= 0.20
     Davidson diagonalization with overlap

---- Real-time Memory Report at c_bands before calling an iterative solver
           379 MiB given to the printing process from OS
             0 MiB allocation reported by mallinfo(arena+hblkhd)
        477307 MiB available memory on the node where the printing process lives
------------------
     ethr =  2.63E-07,  avg # of iterations =  6.0

     negative rho (up, down):  3.065E-04 0.000E+00

     add environment contribution to local potential

     total cpu time spent up to now is      656.1 secs

     total energy              =    -481.47017800 Ry
     estimated scf accuracy    <       0.00042606 Ry

     total charge of GC-SCF    =      -4.49404994 e
     the Fermi energy          =      -1.66245019 eV
                        (error :       0.25845019 eV)
     electrostatic embedding   =      -2.97900363 Ry
     cavitation energy         =       0.01925773 Ry
     electrolyte free energy   =      -0.05501674 Ry
     correction to one-el term =     123.18473953 Ry

     iteration # 22     ecut=    80.00 Ry     beta= 0.20
     Davidson diagonalization with overlap

---- Real-time Memory Report at c_bands before calling an iterative solver
           379 MiB given to the printing process from OS
             0 MiB allocation reported by mallinfo(arena+hblkhd)
        477307 MiB available memory on the node where the printing process lives
------------------
     ethr =  2.63E-07,  avg # of iterations = 11.4

     negative rho (up, down):  2.954E-04 0.000E+00

     add environment contribution to local potential

     total cpu time spent up to now is      682.5 secs

     total energy              =    -481.47543780 Ry
     estimated scf accuracy    <       0.00030664 Ry

     total charge of GC-SCF    =      -4.41546928 e
     the Fermi energy          =      -1.49130170 eV
                        (error :       0.08730170 eV)
     electrostatic embedding   =      -3.84718880 Ry
     cavitation energy         =       0.01925773 Ry
     electrolyte free energy   =      -0.08470992 Ry
     correction to one-el term =     138.38452022 Ry

     iteration # 23     ecut=    80.00 Ry     beta= 0.20
     Davidson diagonalization with overlap

---- Real-time Memory Report at c_bands before calling an iterative solver
           379 MiB given to the printing process from OS
             0 MiB allocation reported by mallinfo(arena+hblkhd)
        477276 MiB available memory on the node where the printing process lives
------------------
     ethr =  2.63E-07,  avg # of iterations =  6.0

     negative rho (up, down):  2.922E-04 0.000E+00

     add environment contribution to local potential

     total cpu time spent up to now is      700.9 secs

     total energy              =    -481.47443844 Ry
     estimated scf accuracy    <       0.00019201 Ry

     total charge of GC-SCF    =      -4.34406964 e
     the Fermi energy          =      -1.53274916 eV
                        (error :       0.12874916 eV)
     electrostatic embedding   =      -3.72385966 Ry
     cavitation energy         =       0.01925773 Ry
     electrolyte free energy   =      -0.08010508 Ry
     correction to one-el term =     136.16558310 Ry

     iteration # 24     ecut=    80.00 Ry     beta= 0.20
     Davidson diagonalization with overlap

---- Real-time Memory Report at c_bands before calling an iterative solver
           379 MiB given to the printing process from OS
             0 MiB allocation reported by mallinfo(arena+hblkhd)
        477293 MiB available memory on the node where the printing process lives
------------------
     ethr =  1.91E-07,  avg # of iterations =  7.1

     negative rho (up, down):  2.719E-04 0.000E+00

     add environment contribution to local potential

     total cpu time spent up to now is      722.3 secs

     total energy              =    -481.48144402 Ry
     estimated scf accuracy    <       0.00007046 Ry

     total charge of GC-SCF    =      -4.80153327 e
     the Fermi energy          =      -1.58824596 eV
                        (error :       0.18424596 eV)
     electrostatic embedding   =      -3.60465254 Ry
     cavitation energy         =       0.01925773 Ry
     electrolyte free energy   =      -0.07593094 Ry
     correction to one-el term =     133.62829750 Ry

     iteration # 25     ecut=    80.00 Ry     beta= 0.20
     Davidson diagonalization with overlap

---- Real-time Memory Report at c_bands before calling an iterative solver
           379 MiB given to the printing process from OS
             0 MiB allocation reported by mallinfo(arena+hblkhd)
        477311 MiB available memory on the node where the printing process lives
------------------
     ethr =  6.99E-08,  avg # of iterations = 11.1

     negative rho (up, down):  2.682E-04 0.000E+00

     add environment contribution to local potential

     total cpu time spent up to now is      749.0 secs

     total energy              =    -481.48112939 Ry
     estimated scf accuracy    <       0.00010838 Ry

     total charge of GC-SCF    =      -4.60342627 e
     the Fermi energy          =      -1.41663238 eV
                        (error :       0.01263238 eV)
     electrostatic embedding   =      -4.31566608 Ry
     cavitation energy         =       0.01925773 Ry
     electrolyte free energy   =      -0.10473442 Ry
     correction to one-el term =     145.53559185 Ry

     iteration # 26     ecut=    80.00 Ry     beta= 0.20
     Davidson diagonalization with overlap

---- Real-time Memory Report at c_bands before calling an iterative solver
           379 MiB given to the printing process from OS
             0 MiB allocation reported by mallinfo(arena+hblkhd)
        477304 MiB available memory on the node where the printing process lives
------------------
     ethr =  6.99E-08,  avg # of iterations =  8.0

     negative rho (up, down):  2.734E-04 0.000E+00

     add environment contribution to local potential

     total cpu time spent up to now is      774.5 secs

     total energy              =    -481.48713800 Ry
     estimated scf accuracy    <       0.00005255 Ry

     total charge of GC-SCF    =      -5.04227015 e
     the Fermi energy          =      -1.50562107 eV
                        (error :       0.10162107 eV)
     electrostatic embedding   =      -3.98161667 Ry
     cavitation energy         =       0.01925773 Ry
     electrolyte free energy   =      -0.09099891 Ry
     correction to one-el term =     139.59487040 Ry

     iteration # 27     ecut=    80.00 Ry     beta= 0.20
     Davidson diagonalization with overlap

---- Real-time Memory Report at c_bands before calling an iterative solver
           379 MiB given to the printing process from OS
             0 MiB allocation reported by mallinfo(arena+hblkhd)
        477296 MiB available memory on the node where the printing process lives
------------------
     ethr =  5.20E-08,  avg # of iterations = 11.6

     negative rho (up, down):  2.601E-04 0.000E+00

     add environment contribution to local potential

     total cpu time spent up to now is      801.6 secs

     total energy              =    -481.49981037 Ry
     estimated scf accuracy    <       0.00002936 Ry

     total charge of GC-SCF    =      -4.60087837 e
     the Fermi energy          =      -1.35643201 eV
                        (error :       0.04756799 eV)
     electrostatic embedding   =      -4.63679193 Ry
     cavitation energy         =       0.01925773 Ry
     electrolyte free energy   =      -0.12661378 Ry
     correction to one-el term =     148.90018398 Ry

     iteration # 28     ecut=    80.00 Ry     beta= 0.20
     Davidson diagonalization with overlap

---- Real-time Memory Report at c_bands before calling an iterative solver
           379 MiB given to the printing process from OS
             0 MiB allocation reported by mallinfo(arena+hblkhd)
        477282 MiB available memory on the node where the printing process lives
------------------
     ethr =  2.92E-08,  avg # of iterations = 12.7

     negative rho (up, down):  2.533E-04 0.000E+00

     add environment contribution to local potential

     total cpu time spent up to now is      830.9 secs

     total energy              =    -481.47837566 Ry
     estimated scf accuracy    <       0.00002275 Ry

     total charge of GC-SCF    =      -4.93300774 e
     the Fermi energy          =      -1.54566715 eV
                        (error :       0.14166715 eV)
     electrostatic embedding   =      -3.90990065 Ry
     cavitation energy         =       0.01925773 Ry
     electrolyte free energy   =      -0.09035340 Ry
     correction to one-el term =     136.82502116 Ry

     iteration # 29     ecut=    80.00 Ry     beta= 0.20
     Davidson diagonalization with overlap

---- Real-time Memory Report at c_bands before calling an iterative solver
           379 MiB given to the printing process from OS
             0 MiB allocation reported by mallinfo(arena+hblkhd)
        477275 MiB available memory on the node where the printing process lives
------------------
     ethr =  2.25E-08,  avg # of iterations = 12.0

     negative rho (up, down):  2.307E-04 0.000E+00

     add environment contribution to local potential

     total cpu time spent up to now is      859.0 secs

     total energy              =    -481.47404380 Ry
     estimated scf accuracy    <       0.00000619 Ry

     total charge of GC-SCF    =      -4.99162137 e
     the Fermi energy          =      -1.42068445 eV
                        (error :       0.01668445 eV)
     electrostatic embedding   =      -4.42930719 Ry
     cavitation energy         =       0.01925773 Ry
     electrolyte free energy   =      -0.11488750 Ry
     correction to one-el term =     145.02820019 Ry

     iteration # 30     ecut=    80.00 Ry     beta= 0.20
     Davidson diagonalization with overlap

---- Real-time Memory Report at c_bands before calling an iterative solver
           379 MiB given to the printing process from OS
             0 MiB allocation reported by mallinfo(arena+hblkhd)
        477283 MiB available memory on the node where the printing process lives
------------------
     ethr =  6.12E-09,  avg # of iterations = 11.6

     negative rho (up, down):  2.259E-04 0.000E+00

     add environment contribution to local potential

     total cpu time spent up to now is      885.8 secs

     total energy              =    -481.47386766 Ry
     estimated scf accuracy    <       0.00000329 Ry

     total charge of GC-SCF    =      -4.98749488 e
     the Fermi energy          =      -1.40138862 eV
                        (error :       0.00261138 eV)
     electrostatic embedding   =      -4.50224141 Ry
     cavitation energy         =       0.01925773 Ry
     electrolyte free energy   =      -0.12046173 Ry
     correction to one-el term =     145.68193122 Ry

     iteration # 31     ecut=    80.00 Ry     beta= 0.20
     Davidson diagonalization with overlap

---- Real-time Memory Report at c_bands before calling an iterative solver
           379 MiB given to the printing process from OS
             0 MiB allocation reported by mallinfo(arena+hblkhd)
        477291 MiB available memory on the node where the printing process lives
------------------
     ethr =  3.26E-09,  avg # of iterations =  8.7

     negative rho (up, down):  2.251E-04 0.000E+00

     add environment contribution to local potential

     total cpu time spent up to now is      910.8 secs

     total energy              =    -481.47413008 Ry
     estimated scf accuracy    <       0.00000131 Ry

     total charge of GC-SCF    =      -4.95911893 e
     the Fermi energy          =      -1.40935837 eV
                        (error :       0.00535837 eV)
     electrostatic embedding   =      -4.48664896 Ry
     cavitation energy         =       0.01925773 Ry
     electrolyte free energy   =      -0.11997725 Ry
     correction to one-el term =     145.19701244 Ry

     iteration # 32     ecut=    80.00 Ry     beta= 0.20
     Davidson diagonalization with overlap

---- Real-time Memory Report at c_bands before calling an iterative solver
           379 MiB given to the printing process from OS
             0 MiB allocation reported by mallinfo(arena+hblkhd)
        477260 MiB available memory on the node where the printing process lives
------------------
     ethr =  1.30E-09,  avg # of iterations =  8.8

     negative rho (up, down):  2.247E-04 0.000E+00

     add environment contribution to local potential

     total cpu time spent up to now is      936.8 secs

     total energy              =    -481.47404559 Ry
     estimated scf accuracy    <       0.00000101 Ry

     total charge of GC-SCF    =      -4.99475103 e
     the Fermi energy          =      -1.42138194 eV
                        (error :       0.01738194 eV)
     electrostatic embedding   =      -4.44179178 Ry
     cavitation energy         =       0.01925773 Ry
     electrolyte free energy   =      -0.11716073 Ry
     correction to one-el term =     144.53455910 Ry

     iteration # 33     ecut=    80.00 Ry     beta= 0.20
     Davidson diagonalization with overlap

---- Real-time Memory Report at c_bands before calling an iterative solver
           379 MiB given to the printing process from OS
             0 MiB allocation reported by mallinfo(arena+hblkhd)
        477250 MiB available memory on the node where the printing process lives
------------------
     ethr =  9.96E-10,  avg # of iterations =  9.2

     negative rho (up, down):  2.232E-04 0.000E+00

     total cpu time spent up to now is      957.2 secs

     End of self-consistent calculation

          k = 0.0000 0.0000 0.0000 (201165 PWs)   bands (ev):

   -48.3675 -48.3664 -48.3659 -48.3659 -48.3648 -48.3648 -48.3645 -48.3634
   -47.9588 -47.9547 -47.9523 -47.9506 -47.9506 -47.9492 -47.9492 -47.9491
   -47.9477 -47.9460 -47.9460 -47.9450 -47.9450 -47.9445 -47.9435 -47.9414
   -47.9290 -47.9290 -47.9275 -47.9271 -47.9271 -47.9256 -47.9253 -47.9232
    -4.8933  -4.5860  -4.1457  -3.6200  -3.0369  -2.4723  -2.4723  -2.4723
    -2.4723  -2.3455  -2.1727  -2.1727  -2.1727  -2.1727  -1.7683  -1.7683
    -1.7682  -1.7682  -1.4845  -1.3845  -1.3845  -1.3841  -1.3841  -1.0151
    -1.0151  -0.7328  -0.5634  -0.5634  -0.2564  -0.1459  -0.1459  -0.1450
    -0.1450  -0.0246   0.1075   0.1415   0.1415   0.3868   0.3988   0.8905

     occupation numbers 
     1.0000   1.0000   1.0000   1.0000   1.0000   1.0000   1.0000   1.0000
     1.0000   1.0000   1.0000   1.0000   1.0000   1.0000   1.0000   1.0000
     1.0000   1.0000   1.0000   1.0000   1.0000   1.0000   1.0000   1.0000
     1.0000   1.0000   1.0000   1.0000   1.0000   1.0000   1.0000   1.0000
     1.0000   1.0000   1.0000   1.0000   1.0000   1.0000   1.0000   1.0000
     1.0000   1.0000   1.0000   1.0000   1.0000   1.0000   1.0056   1.0056
     1.0056   1.0056   0.8263   0.3061   0.3061   0.3042   0.3042   0.0000
     0.0000   0.0000   0.0000   0.0000   0.0000   0.0000   0.0000   0.0000
     0.0000   0.0000   0.0000   0.0000   0.0000   0.0000   0.0000   0.0000

          k = 0.0000 0.1000 0.0000 (201189 PWs)   bands (ev):

   -48.3674 -48.3663 -48.3659 -48.3659 -48.3648 -48.3648 -48.3645 -48.3634
   -47.9587 -47.9546 -47.9522 -47.9507 -47.9505 -47.9493 -47.9491 -47.9491
   -47.9477 -47.9470 -47.9459 -47.9450 -47.9445 -47.9442 -47.9435 -47.9414
   -47.9290 -47.9289 -47.9275 -47.9271 -47.9270 -47.9257 -47.9254 -47.9233
    -4.8694  -4.5618  -4.1206  -3.5936  -3.0099  -2.9368  -2.6258  -2.4496
    -2.4496  -2.3191  -2.1820  -2.1484  -2.1484  -1.9587  -1.7411  -1.7410
    -1.6922  -1.6851  -1.4593  -1.3542  -1.3538  -1.3424  -1.2998  -1.0819
    -1.0819  -0.7061  -0.6426  -0.6426  -0.2279  -0.1954  -0.1805  -0.1179
    -0.1170   0.0070   0.0329   0.0329   0.1382   0.4155   0.4295   0.8756

     occupation numbers 
     1.0000   1.0000   1.0000   1.0000   1.0000   1.0000   1.0000   1.0000
     1.0000   1.0000   1.0000   1.0000   1.0000   1.0000   1.0000   1.0000
     1.0000   1.0000   1.0000   1.0000   1.0000   1.0000   1.0000   1.0000
     1.0000   1.0000   1.0000   1.0000   1.0000   1.0000   1.0000   1.0000
     1.0000   1.0000   1.0000   1.0000   1.0000   1.0000   1.0000   1.0000
     1.0000   1.0000   1.0000   1.0000   1.0000   1.0000   1.0114   1.0114
     1.0318   1.0359   0.6970   0.1891   0.1877   0.1531   0.0635   0.0000
     0.0000   0.0000   0.0000   0.0000   0.0000   0.0000   0.0000   0.0000
     0.0000   0.0000   0.0000   0.0000   0.0000   0.0000   0.0000   0.0000

          k = 0.0000 0.2000 0.0000 (201103 PWs)   bands (ev):

   -48.3673 -48.3662 -48.3661 -48.3658 -48.3650 -48.3647 -48.3646 -48.3635
   -47.9581 -47.9542 -47.9520 -47.9511 -47.9504 -47.9497 -47.9492 -47.9490
   -47.9483 -47.9478 -47.9458 -47.9449 -47.9446 -47.9436 -47.9433 -47.9414
   -47.9288 -47.9285 -47.9276 -47.9270 -47.9267 -47.9258 -47.9256 -47.9236
    -4.7978  -4.4890  -4.0452  -3.5147  -3.3510  -3.0352  -2.9290  -2.5763
    -2.3820  -2.3819  -2.2402  -2.0758  -2.0758  -2.0350  -1.6598  -1.6598
    -1.5100  -1.3976  -1.3843  -1.2633  -1.2629  -1.2540  -1.2540  -1.1377
    -1.0937  -0.8416  -0.8416  -0.6268  -0.2586  -0.2243  -0.2243  -0.2048
    -0.1435  -0.0340  -0.0331   0.1020   0.2299   0.4804   0.4807   0.5005

     occupation numbers 
     1.0000   1.0000   1.0000   1.0000   1.0000   1.0000   1.0000   1.0000
     1.0000   1.0000   1.0000   1.0000   1.0000   1.0000   1.0000   1.0000
     1.0000   1.0000   1.0000   1.0000   1.0000   1.0000   1.0000   1.0000
     1.0000   1.0000   1.0000   1.0000   1.0000   1.0000   1.0000   1.0000
     1.0000   1.0000   1.0000   1.0000   1.0000   1.0000   1.0000   1.0000
     1.0000   1.0000   1.0000   1.0000   1.0000   1.0000   1.0525   1.0526
     0.9355   0.3668   0.3049   0.0258   0.0255   0.0201   0.0200   0.0004
     0.0001   0.0000   0.0000   0.0000   0.0000   0.0000   0.0000   0.0000
     0.0000   0.0000   0.0000   0.0000   0.0000   0.0000   0.0000   0.0000

          k = 0.0000 0.3000 0.0000 (201139 PWs)   bands (ev):

   -48.3671 -48.3662 -48.3660 -48.3656 -48.3651 -48.3648 -48.3645 -48.3637
   -47.9572 -47.9537 -47.9519 -47.9516 -47.9506 -47.9503 -47.9494 -47.9494
   -47.9489 -47.9480 -47.9457 -47.9448 -47.9447 -47.9438 -47.9426 -47.9415
   -47.9287 -47.9280 -47.9278 -47.9268 -47.9262 -47.9259 -47.9259 -47.9239
    -4.6783  -4.3676  -3.9198  -3.7151  -3.3978  -3.3837  -2.9348  -2.7951
    -2.3787  -2.2707  -2.2706  -2.1097  -1.9563  -1.9563  -1.7950  -1.5255
    -1.5255  -1.4776  -1.4776  -1.2616  -1.2028  -1.1122  -1.1118  -1.0931
    -1.0931  -0.7689  -0.7080  -0.5313  -0.5312  -0.4990  -0.2118  -0.1209
    -0.0074   0.0691   0.0695   0.1047   0.1055   0.2601   0.3806   0.6378

     occupation numbers 
     1.0000   1.0000   1.0000   1.0000   1.0000   1.0000   1.0000   1.0000
     1.0000   1.0000   1.0000   1.0000   1.0000   1.0000   1.0000   1.0000
     1.0000   1.0000   1.0000   1.0000   1.0000   1.0000   1.0000   1.0000
     1.0000   1.0000   1.0000   1.0000   1.0000   1.0000   1.0000   1.0000
     1.0000   1.0000   1.0000   1.0000   1.0000   1.0000   1.0000   1.0000
     1.0000   1.0000   1.0000   1.0000   1.0000   1.0000   1.0026   0.9878
     0.9876   0.7928   0.7927   0.0246   0.0043   0.0001   0.0001   0.0001
     0.0001   0.0000   0.0000   0.0000   0.0000   0.0000   0.0000   0.0000
     0.0000   0.0000   0.0000   0.0000   0.0000   0.0000   0.0000   0.0000

          k = 0.0000 0.4000 0.0000 (201125 PWs)   bands (ev):

   -48.3669 -48.3664 -48.3658 -48.3654 -48.3653 -48.3650 -48.3643 -48.3639
   -47.9560 -47.9531 -47.9531 -47.9515 -47.9512 -47.9501 -47.9500 -47.9496
   -47.9486 -47.9482 -47.9455 -47.9450 -47.9445 -47.9440 -47.9421 -47.9416
   -47.9285 -47.9280 -47.9275 -47.9266 -47.9263 -47.9262 -47.9256 -47.9245
    -4.5106  -4.1978  -4.0294  -3.7451  -3.7127  -3.2510  -3.2019  -2.6947
    -2.6095  -2.1182  -2.1182  -2.0986  -1.9297  -1.7922  -1.7922  -1.7109
    -1.7109  -1.4484  -1.3502  -1.3502  -1.3403  -1.3402  -1.0959  -0.9014
    -0.9009  -0.8339  -0.8339  -0.7040  -0.3329  -0.3068  -0.3063  -0.1518
    -0.0012   0.0964   0.1653   0.2963   0.2972   0.4807   0.5806   0.8087

     occupation numbers 
     1.0000   1.0000   1.0000   1.0000   1.0000   1.0000   1.0000   1.0000
     1.0000   1.0000   1.0000   1.0000   1.0000   1.0000   1.0000   1.0000
     1.0000   1.0000   1.0000   1.0000   1.0000   1.0000   1.0000   1.0000
     1.0000   1.0000   1.0000   1.0000   1.0000   1.0000   1.0000   1.0000
     1.0000   1.0000   1.0000   1.0000   1.0000   1.0000   1.0000   1.0000
     1.0000   1.0000   1.0000   1.0000   1.0000   1.0028   1.0028   1.0222
     1.0222   0.6375   0.1763   0.1763   0.1471   0.1469   0.0001   0.0000
     0.0000   0.0000   0.0000   0.0000   0.0000   0.0000   0.0000   0.0000
     0.0000   0.0000   0.0000   0.0000   0.0000   0.0000   0.0000   0.0000

          k = 0.0000-0.5000 0.0000 (201080 PWs)   bands (ev):

   -48.3667 -48.3667 -48.3656 -48.3656 -48.3652 -48.3652 -48.3641 -48.3641
   -47.9546 -47.9546 -47.9523 -47.9523 -47.9506 -47.9506 -47.9498 -47.9498
   -47.9484 -47.9484 -47.9452 -47.9452 -47.9443 -47.9442 -47.9418 -47.9418
   -47.9282 -47.9282 -47.9269 -47.9269 -47.9264 -47.9264 -47.9250 -47.9250
    -4.2944  -4.2944  -3.9794  -3.9794  -3.5218  -3.5217  -2.9711  -2.9711
    -2.3752  -2.3752  -1.9290  -1.9290  -1.9290  -1.9290  -1.7051  -1.7051
    -1.5877  -1.5877  -1.5877  -1.5877  -1.1076  -1.1076  -1.1076  -1.1076
    -0.8984  -0.8984  -0.6321  -0.6321  -0.6316  -0.6316  -0.1577  -0.1577
     0.2972   0.2972   0.5373   0.5373   0.5382   0.5382   0.5468   0.5468

     occupation numbers 
     1.0000   1.0000   1.0000   1.0000   1.0000   1.0000   1.0000   1.0000
     1.0000   1.0000   1.0000   1.0000   1.0000   1.0000   1.0000   1.0000
     1.0000   1.0000   1.0000   1.0000   1.0000   1.0000   1.0000   1.0000
     1.0000   1.0000   1.0000   1.0000   1.0000   1.0000   1.0000   1.0000
     1.0000   1.0000   1.0000   1.0000   1.0000   1.0000   1.0000   1.0000
     1.0000   1.0000   1.0000   1.0000   1.0000   1.0000   1.0250   1.0250
     1.0821   1.0821   1.0821   1.0821   0.0001   0.0001   0.0001   0.0001
     0.0000   0.0000   0.0000   0.0000   0.0000   0.0000   0.0000   0.0000
     0.0000   0.0000   0.0000   0.0000   0.0000   0.0000   0.0000   0.0000

          k = 0.1000 0.1000 0.0000 (201192 PWs)   bands (ev):

   -48.3674 -48.3663 -48.3659 -48.3659 -48.3648 -48.3648 -48.3646 -48.3635
   -47.9585 -47.9545 -47.9521 -47.9507 -47.9507 -47.9493 -47.9493 -47.9491
   -47.9477 -47.9469 -47.9469 -47.9446 -47.9442 -47.9442 -47.9435 -47.9414
   -47.9289 -47.9288 -47.9276 -47.9270 -47.9270 -47.9257 -47.9255 -47.9234
    -4.8455  -4.5375  -4.0954  -3.5672  -2.9828  -2.9137  -2.9137  -2.6016
    -2.6016  -2.2926  -2.1557  -2.1557  -1.9365  -1.9365  -1.6630  -1.6630
    -1.6605  -1.6605  -1.4340  -1.3141  -1.3141  -1.3123  -1.2689  -1.2689
    -0.9528  -0.8977  -0.6792  -0.5011  -0.2714  -0.1993  -0.1677  -0.1677
    -0.1520  -0.1520   0.0387   0.1690   0.2038   0.4442   0.4602   0.4929

     occupation numbers 
     1.0000   1.0000   1.0000   1.0000   1.0000   1.0000   1.0000   1.0000
     1.0000   1.0000   1.0000   1.0000   1.0000   1.0000   1.0000   1.0000
     1.0000   1.0000   1.0000   1.0000   1.0000   1.0000   1.0000   1.0000
     1.0000   1.0000   1.0000   1.0000   1.0000   1.0000   1.0000   1.0000
     1.0000   1.0000   1.0000   1.0000   1.0000   1.0000   1.0000   1.0000
     1.0000   1.0000   1.0000   1.0000   1.0000   1.0000   1.0503   1.0503
     1.0521   1.0521   0.5576   0.0870   0.0870   0.0838   0.0299   0.0299
     0.0000   0.0000   0.0000   0.0000   0.0000   0.0000   0.0000   0.0000
     0.0000   0.0000   0.0000   0.0000   0.0000   0.0000   0.0000   0.0000

          k = 0.1000 0.2000 0.0000 (201095 PWs)   bands (ev):

   -48.3673 -48.3662 -48.3660 -48.3658 -48.3649 -48.3647 -48.3647 -48.3636
   -47.9579 -47.9541 -47.9519 -47.9510 -47.9505 -47.9497 -47.9493 -47.9491
   -47.9483 -47.9479 -47.9468 -47.9448 -47.9441 -47.9435 -47.9433 -47.9414
   -47.9287 -47.9285 -47.9277 -47.9269 -47.9267 -47.9258 -47.9257 -47.9236
    -4.7739  -4.4647  -4.0200  -3.4882  -3.3276  -3.0109  -2.9019  -2.8447
    -2.5504  -2.5290  -2.2135  -2.0769  -2.0069  -1.8705  -1.5891  -1.5871
    -1.5758  -1.4799  -1.3759  -1.3587  -1.2293  -1.1984  -1.1760  -1.1125
    -1.0633  -0.9599  -0.6153  -0.5997  -0.5227  -0.2316  -0.1756  -0.1147
    -0.0848  -0.0668   0.0808   0.1337   0.1467   0.2607   0.5296   0.5519

     occupation numbers 
     1.0000   1.0000   1.0000   1.0000   1.0000   1.0000   1.0000   1.0000
     1.0000   1.0000   1.0000   1.0000   1.0000   1.0000   1.0000   1.0000
     1.0000   1.0000   1.0000   1.0000   1.0000   1.0000   1.0000   1.0000
     1.0000   1.0000   1.0000   1.0000   1.0000   1.0000   1.0000   1.0000
     1.0000   1.0000   1.0000   1.0000   1.0000   1.0000   1.0000   1.0000
     1.0000   1.0000   1.0000   1.0000   1.0000   1.0002   1.0825   1.0820
     1.0766   0.8039   0.2694   0.2041   0.0099   0.0037   0.0017   0.0001
     0.0000   0.0000   0.0000   0.0000   0.0000   0.0000   0.0000   0.0000
     0.0000   0.0000   0.0000   0.0000   0.0000   0.0000   0.0000   0.0000

          k = 0.1000 0.3000 0.0000 (201150 PWs)   bands (ev):

   -48.3671 -48.3662 -48.3660 -48.3657 -48.3651 -48.3648 -48.3645 -48.3637
   -47.9570 -47.9536 -47.9518 -47.9516 -47.9505 -47.9504 -47.9494 -47.9493
   -47.9490 -47.9480 -47.9465 -47.9451 -47.9440 -47.9436 -47.9426 -47.9415
   -47.9286 -47.9280 -47.9278 -47.9267 -47.9262 -47.9260 -47.9260 -47.9240
    -4.6544  -4.3433  -3.8946  -3.6915  -3.3735  -3.3572  -2.9092  -2.7678
    -2.7306  -2.4090  -2.3512  -2.0827  -1.9465  -1.8719  -1.7659  -1.7630
    -1.5014  -1.4670  -1.4308  -1.2354  -1.1726  -1.0895  -1.0794  -1.0212
    -0.9534  -0.7481  -0.6795  -0.6756  -0.4714  -0.3093  -0.1855  -0.0919
    -0.0911   0.0220   0.0518   0.0743   0.2158   0.2919   0.4115   0.6677

     occupation numbers 
     1.0000   1.0000   1.0000   1.0000   1.0000   1.0000   1.0000   1.0000
     1.0000   1.0000   1.0000   1.0000   1.0000   1.0000   1.0000   1.0000
     1.0000   1.0000   1.0000   1.0000   1.0000   1.0000   1.0000   1.0000
     1.0000   1.0000   1.0000   1.0000   1.0000   1.0000   1.0000   1.0000
     1.0000   1.0000   1.0000   1.0000   1.0000   1.0000   1.0000   1.0000
     1.0000   1.0000   1.0000   1.0000   1.0000   1.0002   1.0060   1.0065
     0.9020   0.7382   0.5404   0.0118   0.0015   0.0001   0.0000   0.0000
     0.0000   0.0000   0.0000   0.0000   0.0000   0.0000   0.0000   0.0000
     0.0000   0.0000   0.0000   0.0000   0.0000   0.0000   0.0000   0.0000

          k = 0.1000 0.4000 0.0000 (201132 PWs)   bands (ev):

   -48.3669 -48.3664 -48.3658 -48.3655 -48.3653 -48.3650 -48.3644 -48.3639
   -47.9558 -47.9530 -47.9530 -47.9515 -47.9511 -47.9501 -47.9500 -47.9497
   -47.9487 -47.9483 -47.9462 -47.9455 -47.9439 -47.9437 -47.9421 -47.9416
   -47.9284 -47.9280 -47.9275 -47.9266 -47.9264 -47.9261 -47.9257 -47.9245
    -4.4868  -4.1734  -4.0057  -3.7198  -3.6884  -3.2256  -3.1752  -2.6676
    -2.5819  -2.5727  -2.2428  -2.1377  -2.0702  -1.9022  -1.7837  -1.7658
    -1.6183  -1.4193  -1.3043  -1.2643  -1.2559  -1.2293  -1.0690  -0.8970
    -0.8876  -0.8044  -0.6743  -0.6643  -0.3798  -0.3044  -0.1854  -0.1282
     0.0258   0.1233   0.1957   0.2390   0.2696   0.5126   0.6118   0.7332

     occupation numbers 
     1.0000   1.0000   1.0000   1.0000   1.0000   1.0000   1.0000   1.0000
     1.0000   1.0000   1.0000   1.0000   1.0000   1.0000   1.0000   1.0000
     1.0000   1.0000   1.0000   1.0000   1.0000   1.0000   1.0000   1.0000
     1.0000   1.0000   1.0000   1.0000   1.0000   1.0000   1.0000   1.0000
     1.0000   1.0000   1.0000   1.0000   1.0000   1.0000   1.0000   1.0000
     1.0000   1.0000   1.0000   1.0000   1.0000   1.0001   1.0036   1.0060
     1.0782   0.4776   0.0702   0.0265   0.0211   0.0098   0.0000   0.0000
     0.0000   0.0000   0.0000   0.0000   0.0000   0.0000   0.0000   0.0000
     0.0000   0.0000   0.0000   0.0000   0.0000   0.0000   0.0000   0.0000

          k = 0.1000-0.5000 0.0000 (201002 PWs)   bands (ev):

   -48.3667 -48.3666 -48.3655 -48.3655 -48.3652 -48.3652 -48.3641 -48.3641
   -47.9544 -47.9544 -47.9523 -47.9523 -47.9506 -47.9506 -47.9499 -47.9499
   -47.9485 -47.9485 -47.9459 -47.9459 -47.9438 -47.9438 -47.9418 -47.9418
   -47.9282 -47.9282 -47.9269 -47.9269 -47.9263 -47.9263 -47.9251 -47.9251
    -4.2706  -4.2706  -3.9551  -3.9551  -3.4964  -3.4964  -2.9443  -2.9443
    -2.3737  -2.3737  -2.3473  -2.3473  -2.0331  -2.0331  -1.6769  -1.6769
    -1.5371  -1.5371  -1.4444  -1.4444  -1.1064  -1.1064  -0.9727  -0.9727
    -0.8703  -0.8703  -0.6568  -0.6568  -0.5257  -0.5257  -0.1278  -0.1278
     0.3286   0.3286   0.4705   0.4705   0.5154   0.5154   0.5688   0.5688

     occupation numbers 
     1.0000   1.0000   1.0000   1.0000   1.0000   1.0000   1.0000   1.0000
     1.0000   1.0000   1.0000   1.0000   1.0000   1.0000   1.0000   1.0000
     1.0000   1.0000   1.0000   1.0000   1.0000   1.0000   1.0000   1.0000
     1.0000   1.0000   1.0000   1.0000   1.0000   1.0000   1.0000   1.0000
     1.0000   1.0000   1.0000   1.0000   1.0000   1.0000   1.0000   1.0000
     1.0000   1.0000   1.0000   1.0000   1.0000   1.0000   1.0410   1.0410
     1.0189   1.0189   0.6153   0.6153   0.0001   0.0001   0.0000   0.0000
     0.0000   0.0000   0.0000   0.0000   0.0000   0.0000   0.0000   0.0000
     0.0000   0.0000   0.0000   0.0000   0.0000   0.0000   0.0000   0.0000

          k = 0.2000 0.2000 0.0000 (201180 PWs)   bands (ev):

   -48.3672 -48.3661 -48.3659 -48.3659 -48.3648 -48.3648 -48.3648 -48.3637
   -47.9574 -47.9538 -47.9517 -47.9509 -47.9509 -47.9496 -47.9495 -47.9494
   -47.9481 -47.9481 -47.9480 -47.9452 -47.9434 -47.9432 -47.9432 -47.9415
   -47.9285 -47.9284 -47.9277 -47.9266 -47.9266 -47.9259 -47.9258 -47.9238
    -4.7023  -4.3918  -3.9445  -3.4091  -3.2577  -3.2577  -2.9382  -2.9382
    -2.8207  -2.4729  -2.4729  -2.1338  -1.9258  -1.9227  -1.9227  -1.5524
    -1.3896  -1.3896  -1.3119  -1.3119  -1.2825  -1.0377  -1.0377  -0.9960
    -0.9721  -0.9721  -0.7659  -0.5194  -0.3201  -0.3143  -0.1512  -0.1512
    -0.0884  -0.0884  -0.0291   0.2288   0.3526   0.3592   0.3903   0.6163

     occupation numbers 
     1.0000   1.0000   1.0000   1.0000   1.0000   1.0000   1.0000   1.0000
     1.0000   1.0000   1.0000   1.0000   1.0000   1.0000   1.0000   1.0000
     1.0000   1.0000   1.0000   1.0000   1.0000   1.0000   1.0000   1.0000
     1.0000   1.0000   1.0000   1.0000   1.0000   1.0000   1.0000   1.0000
     1.0000   1.0000   1.0000   1.0000   1.0000   1.0000   1.0000   1.0000
     1.0000   1.0000   1.0000   1.0000   1.0000   1.0000   1.0000   1.0498
     0.3290   0.3290   0.0831   0.0831   0.0421   0.0000   0.0000   0.0000
     0.0000   0.0000   0.0000   0.0000   0.0000   0.0000   0.0000   0.0000
     0.0000   0.0000   0.0000   0.0000   0.0000   0.0000   0.0000   0.0000

          k = 0.2000 0.3000 0.0000 (201109 PWs)   bands (ev):

   -48.3670 -48.3661 -48.3659 -48.3658 -48.3650 -48.3649 -48.3647 -48.3638
   -47.9565 -47.9534 -47.9516 -47.9514 -47.9507 -47.9503 -47.9496 -47.9493
   -47.9491 -47.9482 -47.9478 -47.9458 -47.9432 -47.9432 -47.9426 -47.9415
   -47.9284 -47.9280 -47.9278 -47.9265 -47.9262 -47.9261 -47.9260 -47.9242
    -4.5828  -4.2704  -3.8190  -3.6209  -3.3007  -3.2778  -3.1416  -2.8324
    -2.8175  -2.6860  -2.3443  -2.2689  -2.2425  -2.0020  -1.8830  -1.7830
    -1.6786  -1.3491  -1.2397  -1.2094  -1.1576  -1.0820  -0.9163  -0.8204
    -0.7173  -0.7006  -0.6874  -0.5949  -0.3895  -0.2877  -0.1074  -0.0440
    -0.0201  -0.0054   0.0561   0.1092   0.3025   0.3871   0.5038   0.7364

     occupation numbers 
     1.0000   1.0000   1.0000   1.0000   1.0000   1.0000   1.0000   1.0000
     1.0000   1.0000   1.0000   1.0000   1.0000   1.0000   1.0000   1.0000
     1.0000   1.0000   1.0000   1.0000   1.0000   1.0000   1.0000   1.0000
     1.0000   1.0000   1.0000   1.0000   1.0000   1.0000   1.0000   1.0000
     1.0000   1.0000   1.0000   1.0000   1.0000   1.0000   1.0000   1.0000
     1.0000   1.0000   1.0000   1.0000   1.0000   1.0000   1.0001   1.0037
     1.0400   0.1727   0.0134   0.0053   0.0009   0.0000   0.0000   0.0000
     0.0000   0.0000   0.0000   0.0000   0.0000   0.0000   0.0000   0.0000
     0.0000   0.0000   0.0000   0.0000   0.0000   0.0000   0.0000   0.0000

          k = 0.2000 0.4000 0.0000 (201067 PWs)   bands (ev):

   -48.3668 -48.3663 -48.3657 -48.3656 -48.3652 -48.3651 -48.3645 -48.3640
   -47.9554 -47.9527 -47.9527 -47.9512 -47.9509 -47.9504 -47.9499 -47.9498
   -47.9491 -47.9485 -47.9474 -47.9463 -47.9431 -47.9431 -47.9421 -47.9416
   -47.9282 -47.9279 -47.9275 -47.9265 -47.9264 -47.9261 -47.9257 -47.9246
    -4.4153  -4.1005  -3.9347  -3.6440  -3.6155  -3.1492  -3.0955  -2.9801
    -2.6498  -2.5866  -2.5276  -2.4994  -2.1797  -2.1657  -1.9852  -1.8200
    -1.6651  -1.5888  -1.3322  -1.0761  -1.0446  -1.0310  -0.9886  -0.7905
    -0.7546  -0.6091  -0.5855  -0.4634  -0.3612  -0.2196  -0.0622  -0.0223
     0.1086   0.1559   0.2021   0.2563   0.2862   0.5731   0.6080   0.7051

     occupation numbers 
     1.0000   1.0000   1.0000   1.0000   1.0000   1.0000   1.0000   1.0000
     1.0000   1.0000   1.0000   1.0000   1.0000   1.0000   1.0000   1.0000
     1.0000   1.0000   1.0000   1.0000   1.0000   1.0000   1.0000   1.0000
     1.0000   1.0000   1.0000   1.0000   1.0000   1.0000   1.0000   1.0000
     1.0000   1.0000   1.0000   1.0000   1.0000   1.0000   1.0000   1.0000
     1.0000   1.0000   1.0000   1.0000   1.0000   1.0000   1.0000   1.0012
     1.0489   1.0824   0.1259   0.0000   0.0000   0.0000   0.0000   0.0000
     0.0000   0.0000   0.0000   0.0000   0.0000   0.0000   0.0000   0.0000
     0.0000   0.0000   0.0000   0.0000   0.0000   0.0000   0.0000   0.0000

          k = 0.2000-0.5000 0.0000 (201048 PWs)   bands (ev):

   -48.3666 -48.3665 -48.3654 -48.3654 -48.3654 -48.3653 -48.3642 -48.3642
   -47.9541 -47.9541 -47.9520 -47.9520 -47.9504 -47.9504 -47.9501 -47.9501
   -47.9488 -47.9488 -47.9469 -47.9469 -47.9431 -47.9431 -47.9418 -47.9418
   -47.9281 -47.9281 -47.9270 -47.9270 -47.9262 -47.9262 -47.9252 -47.9252
    -4.1993  -4.1993  -3.8822  -3.8822  -3.4204  -3.4204  -2.8640  -2.8640
    -2.7747  -2.7747  -2.4365  -2.4365  -2.2637  -2.2637  -1.9385  -1.9385
    -1.5926  -1.5926  -1.3418  -1.3418  -0.9270  -0.9270  -0.7864  -0.7864
    -0.7662  -0.7662  -0.5649  -0.5649  -0.3404  -0.3404  -0.0383  -0.0383
     0.3637   0.3638   0.4229   0.4229   0.5088   0.5088   0.6289   0.6289

     occupation numbers 
     1.0000   1.0000   1.0000   1.0000   1.0000   1.0000   1.0000   1.0000
     1.0000   1.0000   1.0000   1.0000   1.0000   1.0000   1.0000   1.0000
     1.0000   1.0000   1.0000   1.0000   1.0000   1.0000   1.0000   1.0000
     1.0000   1.0000   1.0000   1.0000   1.0000   1.0000   1.0000   1.0000
     1.0000   1.0000   1.0000   1.0000   1.0000   1.0000   1.0000   1.0000
     1.0000   1.0000   1.0000   1.0000   1.0000   1.0000   1.0000   1.0000
     1.0831   1.0831   0.1512   0.1512   0.0000   0.0000   0.0000   0.0000
     0.0000   0.0000   0.0000   0.0000   0.0000   0.0000   0.0000   0.0000
     0.0000   0.0000   0.0000   0.0000   0.0000   0.0000   0.0000   0.0000

          k = 0.3000 0.3000 0.0000 (201060 PWs)   bands (ev):

   -48.3668 -48.3659 -48.3659 -48.3657 -48.3651 -48.3648 -48.3648 -48.3640
   -47.9557 -47.9529 -47.9513 -47.9513 -47.9510 -47.9500 -47.9500 -47.9498
   -47.9488 -47.9488 -47.9485 -47.9465 -47.9429 -47.9426 -47.9426 -47.9416
   -47.9280 -47.9280 -47.9278 -47.9264 -47.9262 -47.9262 -47.9260 -47.9245
    -4.4635  -4.1490  -3.6933  -3.5034  -3.5034  -3.1796  -3.1796  -3.1461
    -2.7048  -2.7048  -2.5790  -2.5505  -2.2288  -2.1324  -2.1324  -1.8684
    -1.7089  -1.5336  -1.5336  -1.0747  -1.0299  -0.9315  -0.9315  -0.5932
    -0.5932  -0.4572  -0.4572  -0.4548  -0.4157  -0.2564  -0.0035   0.0197
     0.0197   0.1367   0.1367   0.2444   0.2510   0.5457   0.6559   0.7008

     occupation numbers 
     1.0000   1.0000   1.0000   1.0000   1.0000   1.0000   1.0000   1.0000
     1.0000   1.0000   1.0000   1.0000   1.0000   1.0000   1.0000   1.0000
     1.0000   1.0000   1.0000   1.0000   1.0000   1.0000   1.0000   1.0000
     1.0000   1.0000   1.0000   1.0000   1.0000   1.0000   1.0000   1.0000
     1.0000   1.0000   1.0000   1.0000   1.0000   1.0000   1.0000   1.0000
[...]
     atom   24 type  1   force =     0.00000029   -0.00000029   -0.00042111
     atom   25 type  1   force =     0.00000000    0.00000000    0.00042471
     atom   26 type  1   force =    -0.00000003   -0.00000003   -0.00009221
     atom   27 type  1   force =     0.00000000    0.00000000    0.00000996
     atom   28 type  1   force =     0.00000024    0.00000024   -0.00028220
     atom   29 type  1   force =     0.00000000    0.00000000    0.00025922
     atom   30 type  1   force =    -0.00000053   -0.00000053    0.00002940
     atom   31 type  1   force =     0.00000000    0.00000000    0.00007316
     atom   32 type  1   force =     0.00000029    0.00000029   -0.00042111
     The non-local contrib.  to forces
     atom    1 type  1   force =     0.00000000    0.00000000   -0.00193989
     atom    2 type  1   force =     0.00000004    0.00000004   -0.03336770
     atom    3 type  1   force =     0.00000000    0.00000000    0.00369480
     atom    4 type  1   force =    -0.00000042   -0.00000042    0.00000303
     atom    5 type  1   force =     0.00000000    0.00000000   -0.00001149
     atom    6 type  1   force =     0.00000089    0.00000089   -0.00363787
     atom    7 type  1   force =     0.00000000    0.00000000    0.03334705
     atom    8 type  1   force =    -0.00000049   -0.00000049    0.00191177
     atom    9 type  1   force =     0.00000000    0.00000000   -0.00194032
     atom   10 type  1   force =     0.00000004   -0.00000004   -0.03336770
     atom   11 type  1   force =     0.00000000    0.00000000    0.00369794
     atom   12 type  1   force =    -0.00000042    0.00000042    0.00000303
     atom   13 type  1   force =     0.00000000    0.00000000   -0.00001444
     atom   14 type  1   force =     0.00000089   -0.00000089   -0.00363787
     atom   15 type  1   force =     0.00000000    0.00000000    0.03334921
     atom   16 type  1   force =    -0.00000049    0.00000049    0.00191177
     atom   17 type  1   force =     0.00000000    0.00000000   -0.00194032
     atom   18 type  1   force =    -0.00000004    0.00000004   -0.03336770
     atom   19 type  1   force =     0.00000000    0.00000000    0.00369794
     atom   20 type  1   force =     0.00000042   -0.00000042    0.00000303
     atom   21 type  1   force =     0.00000000    0.00000000   -0.00001444
     atom   22 type  1   force =    -0.00000089    0.00000089   -0.00363787
     atom   23 type  1   force =     0.00000000    0.00000000    0.03334921
     atom   24 type  1   force =     0.00000049   -0.00000049    0.00191177
     atom   25 type  1   force =     0.00000000    0.00000000   -0.00194065
     atom   26 type  1   force =    -0.00000004   -0.00000004   -0.03336770
     atom   27 type  1   force =     0.00000000    0.00000000    0.00369723
     atom   28 type  1   force =     0.00000042    0.00000042    0.00000303
     atom   29 type  1   force =     0.00000000    0.00000000   -0.00001410
     atom   30 type  1   force =    -0.00000089   -0.00000089   -0.00363787
     atom   31 type  1   force =     0.00000000    0.00000000    0.03334807
     atom   32 type  1   force =     0.00000049    0.00000049    0.00191177
     The ionic contribution  to forces
     atom    1 type  1   force =    -0.00000001   -0.00000001   -9.85218329
     atom    2 type  1   force =     0.00000021    0.00000021  -13.49109991
     atom    3 type  1   force =    -0.00000001   -0.00000001   -1.96240208
     atom    4 type  1   force =    -0.00000630   -0.00000630   -5.93418921
     atom    5 type  1   force =    -0.00000000   -0.00000000    5.93474660
     atom    6 type  1   force =     0.00001634    0.00001634    1.96322079
     atom    7 type  1   force =    -0.00000001   -0.00000001   13.49029686
     atom    8 type  1   force =    -0.00000821   -0.00000821    9.85157375
     atom    9 type  1   force =    -0.00000001    0.00000001   -9.85216149
     atom   10 type  1   force =     0.00000021   -0.00000021  -13.49109988
     atom   11 type  1   force =    -0.00000001    0.00000001   -1.96241807
     atom   12 type  1   force =    -0.00000630    0.00000631   -5.93418923
     atom   13 type  1   force =    -0.00000000   -0.00000000    5.93481949
     atom   14 type  1   force =     0.00001634   -0.00001634    1.96322079
     atom   15 type  1   force =    -0.00000001    0.00000001   13.49029318
     atom   16 type  1   force =    -0.00000821    0.00000822    9.85157377
     atom   17 type  1   force =     0.00000001   -0.00000001   -9.85216149
     atom   18 type  1   force =    -0.00000021    0.00000021  -13.49109988
     atom   19 type  1   force =     0.00000001   -0.00000001   -1.96241807
     atom   20 type  1   force =     0.00000631   -0.00000630   -5.93418923
     atom   21 type  1   force =    -0.00000000   -0.00000000    5.93481949
     atom   22 type  1   force =    -0.00001634    0.00001634    1.96322079
     atom   23 type  1   force =     0.00000001   -0.00000001   13.49029318
     atom   24 type  1   force =     0.00000822   -0.00000821    9.85157377
     atom   25 type  1   force =     0.00000001    0.00000001   -9.85217145
     atom   26 type  1   force =    -0.00000021   -0.00000021  -13.49109986
     atom   27 type  1   force =     0.00000001    0.00000001   -1.96243744
     atom   28 type  1   force =     0.00000631    0.00000631   -5.93418923
     atom   29 type  1   force =    -0.00000000   -0.00000000    5.93476610
     atom   30 type  1   force =    -0.00001634   -0.00001634    1.96322078
     atom   31 type  1   force =     0.00000001    0.00000001   13.49029669
     atom   32 type  1   force =     0.00000822    0.00000822    9.85157379
     The local contribution  to forces
     atom    1 type  1   force =     0.00000407    0.00000407    9.67461342
     atom    2 type  1   force =     0.00000443    0.00000443   13.31006388
     atom    3 type  1   force =     0.00000407    0.00000407    1.92357823
     atom    4 type  1   force =     0.00001114    0.00001114    5.82706176
     atom    5 type  1   force =     0.00000407    0.00000407   -5.82726670
     atom    6 type  1   force =    -0.00001222   -0.00001222   -1.92410079
     atom    7 type  1   force =     0.00000349    0.00000349  -13.30886451
     atom    8 type  1   force =     0.00001282    0.00001282   -9.67359368
     atom    9 type  1   force =     0.00000407    0.00000499    9.67459209
     atom   10 type  1   force =     0.00000443    0.00000499   13.31006269
     atom   11 type  1   force =     0.00000407    0.00000441    1.92359190
     atom   12 type  1   force =     0.00001114   -0.00000175    5.82706237
     atom   13 type  1   force =     0.00000407    0.00000383   -5.82733776
     atom   14 type  1   force =    -0.00001222    0.00002104   -1.92410079
     atom   15 type  1   force =     0.00000349    0.00000442  -13.30886120
     atom   16 type  1   force =     0.00001282   -0.00000400   -9.67359428
     atom   17 type  1   force =     0.00000499    0.00000407    9.67459209
     atom   18 type  1   force =     0.00000499    0.00000443   13.31006269
     atom   19 type  1   force =     0.00000441    0.00000407    1.92359190
     atom   20 type  1   force =    -0.00000175    0.00001114    5.82706237
     atom   21 type  1   force =     0.00000383    0.00000407   -5.82733776
     atom   22 type  1   force =     0.00002104   -0.00001222   -1.92410079
     atom   23 type  1   force =     0.00000442    0.00000349  -13.30886120
     atom   24 type  1   force =    -0.00000400    0.00001282   -9.67359428
     atom   25 type  1   force =     0.00000499    0.00000499    9.67460246
     atom   26 type  1   force =     0.00000499    0.00000499   13.31006209
     atom   27 type  1   force =     0.00000441    0.00000441    1.92361192
     atom   28 type  1   force =    -0.00000175   -0.00000175    5.82706237
     atom   29 type  1   force =     0.00000383    0.00000383   -5.82728441
     atom   30 type  1   force =     0.00002104    0.00002104   -1.92410079
     atom   31 type  1   force =     0.00000442    0.00000442  -13.30886398
     atom   32 type  1   force =    -0.00000400   -0.00000400   -9.67359428
     The core correction contribution to forces
     atom    1 type  1   force =     0.00000000    0.00000000    0.00000000
     atom    2 type  1   force =     0.00000000    0.00000000    0.00000000
     atom    3 type  1   force =     0.00000000    0.00000000    0.00000000
     atom    4 type  1   force =     0.00000000    0.00000000    0.00000000
     atom    5 type  1   force =     0.00000000    0.00000000    0.00000000
     atom    6 type  1   force =     0.00000000    0.00000000    0.00000000
     atom    7 type  1   force =     0.00000000    0.00000000    0.00000000
     atom    8 type  1   force =     0.00000000    0.00000000    0.00000000
     atom    9 type  1   force =     0.00000000    0.00000000    0.00000000
     atom   10 type  1   force =     0.00000000    0.00000000    0.00000000
     atom   11 type  1   force =     0.00000000    0.00000000    0.00000000
     atom   12 type  1   force =     0.00000000    0.00000000    0.00000000
     atom   13 type  1   force =     0.00000000    0.00000000    0.00000000
     atom   14 type  1   force =     0.00000000    0.00000000    0.00000000
     atom   15 type  1   force =     0.00000000    0.00000000    0.00000000
     atom   16 type  1   force =     0.00000000    0.00000000    0.00000000
     atom   17 type  1   force =     0.00000000    0.00000000    0.00000000
     atom   18 type  1   force =     0.00000000    0.00000000    0.00000000
     atom   19 type  1   force =     0.00000000    0.00000000    0.00000000
     atom   20 type  1   force =     0.00000000    0.00000000    0.00000000
     atom   21 type  1   force =     0.00000000    0.00000000    0.00000000
     atom   22 type  1   force =     0.00000000    0.00000000    0.00000000
     atom   23 type  1   force =     0.00000000    0.00000000    0.00000000
     atom   24 type  1   force =     0.00000000    0.00000000    0.00000000
     atom   25 type  1   force =     0.00000000    0.00000000    0.00000000
     atom   26 type  1   force =     0.00000000    0.00000000    0.00000000
     atom   27 type  1   force =     0.00000000    0.00000000    0.00000000
     atom   28 type  1   force =     0.00000000    0.00000000    0.00000000
     atom   29 type  1   force =     0.00000000    0.00000000    0.00000000
     atom   30 type  1   force =     0.00000000    0.00000000    0.00000000
     atom   31 type  1   force =     0.00000000    0.00000000    0.00000000
     atom   32 type  1   force =     0.00000000    0.00000000    0.00000000
     The Hubbard contrib.    to forces
     atom    1 type  1   force =     0.00000000    0.00000000    0.00000000
     atom    2 type  1   force =     0.00000000    0.00000000    0.00000000
     atom    3 type  1   force =     0.00000000    0.00000000    0.00000000
     atom    4 type  1   force =     0.00000000    0.00000000    0.00000000
     atom    5 type  1   force =     0.00000000    0.00000000    0.00000000
     atom    6 type  1   force =     0.00000000    0.00000000    0.00000000
     atom    7 type  1   force =     0.00000000    0.00000000    0.00000000
     atom    8 type  1   force =     0.00000000    0.00000000    0.00000000
     atom    9 type  1   force =     0.00000000    0.00000000    0.00000000
     atom   10 type  1   force =     0.00000000    0.00000000    0.00000000
     atom   11 type  1   force =     0.00000000    0.00000000    0.00000000
     atom   12 type  1   force =     0.00000000    0.00000000    0.00000000
     atom   13 type  1   force =     0.00000000    0.00000000    0.00000000
     atom   14 type  1   force =     0.00000000    0.00000000    0.00000000
     atom   15 type  1   force =     0.00000000    0.00000000    0.00000000
     atom   16 type  1   force =     0.00000000    0.00000000    0.00000000
     atom   17 type  1   force =     0.00000000    0.00000000    0.00000000
     atom   18 type  1   force =     0.00000000    0.00000000    0.00000000
     atom   19 type  1   force =     0.00000000    0.00000000    0.00000000
     atom   20 type  1   force =     0.00000000    0.00000000    0.00000000
     atom   21 type  1   force =     0.00000000    0.00000000    0.00000000
     atom   22 type  1   force =     0.00000000    0.00000000    0.00000000
     atom   23 type  1   force =     0.00000000    0.00000000    0.00000000
     atom   24 type  1   force =     0.00000000    0.00000000    0.00000000
     atom   25 type  1   force =     0.00000000    0.00000000    0.00000000
     atom   26 type  1   force =     0.00000000    0.00000000    0.00000000
     atom   27 type  1   force =     0.00000000    0.00000000    0.00000000
     atom   28 type  1   force =     0.00000000    0.00000000    0.00000000
     atom   29 type  1   force =     0.00000000    0.00000000    0.00000000
     atom   30 type  1   force =     0.00000000    0.00000000    0.00000000
     atom   31 type  1   force =     0.00000000    0.00000000    0.00000000
     atom   32 type  1   force =     0.00000000    0.00000000    0.00000000
     The SCF correction term to forces
     atom    1 type  1   force =     0.00000000   -0.00000000   -0.00000054
     atom    2 type  1   force =     0.00000000    0.00000000    0.00000011
     atom    3 type  1   force =     0.00000000   -0.00000000   -0.00000011
     atom    4 type  1   force =     0.00000000    0.00000000   -0.00000026
     atom    5 type  1   force =    -0.00000000    0.00000000    0.00000003
     atom    6 type  1   force =    -0.00000000   -0.00000000   -0.00000011
     atom    7 type  1   force =    -0.00000000    0.00000000   -0.00000012
     atom    8 type  1   force =     0.00000001    0.00000001    0.00000035
     atom    9 type  1   force =     0.00000000   -0.00000000   -0.00000052
     atom   10 type  1   force =     0.00000000   -0.00000000    0.00000011
     atom   11 type  1   force =    -0.00000000    0.00000000   -0.00000014
     atom   12 type  1   force =     0.00000000   -0.00000000   -0.00000026
     atom   13 type  1   force =    -0.00000000   -0.00000000    0.00000004
     atom   14 type  1   force =    -0.00000000    0.00000000   -0.00000011
     atom   15 type  1   force =    -0.00000000    0.00000000   -0.00000013
     atom   16 type  1   force =     0.00000001   -0.00000001    0.00000035
     atom   17 type  1   force =     0.00000000   -0.00000000   -0.00000052
     atom   18 type  1   force =    -0.00000000    0.00000000    0.00000011
     atom   19 type  1   force =    -0.00000000    0.00000000   -0.00000014
     atom   20 type  1   force =    -0.00000000    0.00000000   -0.00000026
     atom   21 type  1   force =     0.00000000   -0.00000000    0.00000004
     atom   22 type  1   force =     0.00000000   -0.00000000   -0.00000011
     atom   23 type  1   force =    -0.00000000    0.00000000   -0.00000013
     atom   24 type  1   force =    -0.00000001    0.00000001    0.00000035
     atom   25 type  1   force =     0.00000000   -0.00000000   -0.00000055
     atom   26 type  1   force =    -0.00000000   -0.00000000    0.00000011
     atom   27 type  1   force =     0.00000000   -0.00000000   -0.00000016
     atom   28 type  1   force =    -0.00000000   -0.00000000   -0.00000026
     atom   29 type  1   force =    -0.00000000    0.00000000    0.00000006
     atom   30 type  1   force =     0.00000000    0.00000000   -0.00000011
     atom   31 type  1   force =     0.00000000    0.00000000   -0.00000014
     atom   32 type  1   force =    -0.00000001   -0.00000001    0.00000035

     Total force =     0.001441     Total SCF correction =     0.000001
     Energy error            =      3.5E-06 Ry
     Gradient error          =      4.3E-04 Ry/Bohr

     number of scf cycles    =   5
     number of bfgs steps    =   2

     energy             old  =    -481.4739330857 Ry
     energy             new  =    -481.4739296222 Ry

     CASE: energy            _new > energy            _old

     new trust radius        =       0.0000925648 bohr

     trust_radius < trust_radius_min

     resetting bfgs history

     Message from routine bfgs:
     history already reset at previous step: stopping
     new conv_thr            =            1.2E-12 Ry


ATOMIC_POSITIONS (angstrom)
Li              -0.0000000700       -0.0000000700       21.8140045256
Li               1.7175789896        1.7175789896       20.0143449627
Li              -0.0000000700       -0.0000000700       25.2626429217
Li               1.7175773032        1.7175773032       23.5178718467
Li              -0.0000000700       -0.0000000700       28.7230631197
Li               1.7175752646        1.7175752646       26.9766718759
Li              -0.0000000600       -0.0000000600       32.2282101029
Li               1.7175792126        1.7175792126       30.4276004594
Li              -0.0000000700        3.4351561600       21.8140203872
Li               1.7175789896        5.1527333404       20.0143449827
Li              -0.0000000700        3.4351561700       25.2626202657
Li               1.7175773032        5.1527350268       23.5178718367
Li              -0.0000000700        3.4351561800       28.7231192928
Li               1.7175752646        5.1527370754       26.9766718759
Li              -0.0000000600        3.4351561700       32.2281954326
Li               1.7175792126        5.1527331274       30.4276004694
Li               3.4351561600       -0.0000000700       21.8140203872
Li               5.1527333404        1.7175789896       20.0143449827
Li               3.4351561700       -0.0000000700       25.2626202657
Li               5.1527350268        1.7175773032       23.5178718367
Li               3.4351561800       -0.0000000700       28.7231192928
Li               5.1527370754        1.7175752646       26.9766718759
Li               3.4351561700       -0.0000000600       32.2281954326
Li               5.1527331274        1.7175792126       30.4276004694
Li               3.4351561600        3.4351561600       21.8140154302
Li               5.1527333404        5.1527333404       20.0143449927
Li               3.4351561700        3.4351561700       25.2626060037
Li               5.1527350268        5.1527350268       23.5178718367
Li               3.4351561800        3.4351561800       28.7230931861
Li               5.1527370754        5.1527370754       26.9766718759
Li               3.4351561700        3.4351561700       32.2281993503
Li               5.1527331274        5.1527331274       30.4276004694



     Writing config-only to output data dir ./Li/Lithium.save/ :
     XML data file     NEW-OLD atomic charge density approx. for the potential

     negative rho (up, down):  2.230E-04 0.000E+00

     add environment contribution to local potential

     total cpu time spent up to now is     1997.7 secs

     Self-consistent Calculation

     iteration #  1     ecut=    80.00 Ry     beta= 0.20
     Davidson diagonalization with overlap

---- Real-time Memory Report at c_bands before calling an iterative solver
           486 MiB given to the printing process from OS
             0 MiB allocation reported by mallinfo(arena+hblkhd)
        476374 MiB available memory on the node where the printing process lives
------------------
     ethr =  1.00E-06,  avg # of iterations =  1.0

     Threshold (ethr) on eigenvalues was too large:
     Diagonalizing with lowered threshold

     Davidson diagonalization with overlap

---- Real-time Memory Report at c_bands before calling an iterative solver
           486 MiB given to the printing process from OS
             0 MiB allocation reported by mallinfo(arena+hblkhd)
        476301 MiB available memory on the node where the printing process lives
------------------

 %%%%%%%%%%%%%%%%%%%%%%%%%%%%%%%%%%%%%%%%%%%%%%%%%%%%%%%%%%%%%%%%%%%%%%%%%%%%%%
     Error in routine cdiaghg (381):
     S matrix not positive definite
 %%%%%%%%%%%%%%%%%%%%%%%%%%%%%%%%%%%%%%%%%%%%%%%%%%%%%%%%%%%%%%%%%%%%%%%%%%%%%%

     stopping ...
