
     Program PWSCF v.7.4 starts on 24Jan2025 at  1:57:13 

     This program is part of the open-source Quantum ESPRESSO suite
     for quantum simulation of materials; please cite
         "P. Giannozzi et al., J. Phys.:Condens. Matter 21 395502 (2009);
         "P. Giannozzi et al., J. Phys.:Condens. Matter 29 465901 (2017);
         "P. Giannozzi et al., J. Chem. Phys. 152 154105 (2020);
          URL http://www.quantum-espresso.org", 
     in publications or presentations arising from this work. More details at
     http://www.quantum-espresso.org/quote

     Parallel version (MPI & OpenMP), running on     384 processor cores
     Number of MPI processes:               384
     Threads/MPI process:                     1

     MPI processes distributed on     3 nodes
     234540 MiB available memory on the printing compute node when the environment starts

     Reading input from espresso.pwi
Warning: card &CELL ignored
Warning: card    PRESS_CONV_THR   = 0.1 ignored
Warning: card    CELL_DOFREE      = 'ALL' ignored
Warning: card / ignored
Warning: card &FCP ignored
Warning: card / ignored
Warning: card &RISM ignored
Warning: card / ignored

     Current dimensions of program PWSCF are:
     Max number of different atomic species (ntypx) = 10
     Max number of k-points (npk) =  40000
     Max angular momentum in pseudopotentials (lmaxx) =  4

     IMPORTANT: XC functional enforced from input :
     Exchange-correlation= PBE
                           (   1   4   3   4   0   0   0)
     Any further DFT definition will be discarded
     Please, verify this is what you really want


     Reading input from environ.in:
     * using ionic solvent mode
     * setting boundary derivatives method to SSCS default
     * setting electrolyte-boundary derivatives method to SSCS default

Environ Warning (1001): card EOF ignored

     

     K-points division:     npool     =       2
     R & G space division:  proc/nbgrp/npool/nimage =     192
     Subspace diagonalization in iterative solution of the eigenvalue problem:
     a serial algorithm will be used


     Parallelization info
     --------------------
     sticks:   dense  smooth     PW     G-vecs:    dense   smooth      PW
     Min          96      38     10                56184    14194    1882
     Max          97      39     11                56261    14243    1918
     Sum       18577    7447   1945             10795351  2731157  365513

     Using Slab Decomposition



     bravais-lattice index     =            4
     lattice parameter (alat)  =      18.3607  a.u.
     unit-cell volume          =   28251.3786 (a.u.)^3
     number of atoms/cell      =           48
     number of atomic types    =            1
     number of electrons       =       144.00
     number of Kohn-Sham states=          108
     kinetic-energy cutoff     =      80.0000  Ry
     charge density cutoff     =     800.0000  Ry
     scf convergence threshold =      1.0E-06
     mixing beta               =       0.2000
     number of iterations used =            8  local-TF  mixing
     energy convergence thresh.=      1.0E-05
     force convergence thresh. =      3.9E-04
     Exchange-correlation= PBE
                           (   1   4   3   4   0   0   0)
     nstep                     =          999


     ================================================================================

                                  Environ Setup Summary

     ================================================================================

     Please cite

          O. Andreussi, I. Dabo and N. Marzari, J. Chem. Phys. 136, 064102 (2012)
          F. Nattino, M. Truscott, N. Marzari, and O. Andreussi, J. Chem. Phys. 150, 041722 (2019)

     in publications or presentations arising from this work.

     ================================================================================

     Parameters
     ==========

     compensation onset threshold      =               0.1000E+00
     static permittivity               =                    89.90
     surface tension in input (dyn/cm) =                    37.30
     surface tension in internal units =               0.4792E-04

     Solvent Boundary
     ================

     solvent mode                      =                    ionic
     derivatives method                =                   lowmem
     electrolyte derivatives method    =                   lowmem
     numerical core for derivatives    =                      fft
     switching function adopted        =                     SCCS
     density limit for vacuum region   =               0.5000E-02
     density limit for bulk solvent    =               0.1000E-03
     soft-sphere radius mode           =                    bondi
     soft-sphere softness              =                     0.50
     alpha                             =                     1.32

     Electrostatic Setup
     ===================

     electrostatic problem to solve    =                    modpb
     numerical solver adopted          =                   newton
     type of auxiliary density adopted =                     none
     numerical core for poisson        =                      fft
     adopting a nested solver scheme
     inner solver                      =                       cg
     inner core                        =                      fft
     type of pbc corrections           =                parabolic
     numerical core for corrections    =                      1da

     ================================================================================


     >>>>> Grand-Canonical SCF is activated <<<<<
     Initial Total Charge  =     0.000000 e
     Target Fermi Energy   =    -1.654000 eV
     Thr. of Fermi Energy  =     0.001000 eV
     Wave-shift of Kerker  =     0.400000 bohr^-1
     Wave-shift of Hartree =     1.500000 bohr^-1
     Mixing Rate of Fermi  =     0.050000

     celldm(1)=  18.360747  celldm(2)=   0.000000  celldm(3)=   5.270332
     celldm(4)=   0.000000  celldm(5)=   0.000000  celldm(6)=   0.000000

     crystal axes: (cart. coord. in units of alat)
               a(1) = (   1.000000   0.000000   0.000000 )  
               a(2) = (  -0.500000   0.866025   0.000000 )  
               a(3) = (   0.000000   0.000000   5.270332 )  

     reciprocal axes: (cart. coord. in units 2 pi/alat)
               b(1) = (  1.000000  0.577350 -0.000000 )  
               b(2) = (  0.000000  1.154701  0.000000 )  
               b(3) = (  0.000000 -0.000000  0.189741 )  


     PseudoPot. # 1 for Li read from file:
     /work/e89/e89/ba3g18/Repos/Pseudopotentials/Pslibrary/Li.pbe-sl-kjpaw_psl.1.0.0.UPF
     MD5 check sum: 3f4d2cafebb47c6c3aa8ed472e6f074d
     Pseudo is Projector augmented-wave, Zval =  3.0
     Generated using 'atomic' code by A. Dal Corso  v.7.4
     Shape of augmentation charge: PSQ
     Using radial grid of 1017 points,  4 beta functions with: 
                l(1) =   0
                l(2) =   0
                l(3) =   1
                l(4) =   1
     Q(r) pseudized with 0 coefficients 


     atomic species   valence    mass     pseudopotential
     Li                3.00     6.94000     Li( 1.00)

      4 Sym. Ops., with inversion, found ( 2 have fractional translation)


                                    s                        frac. trans.

      isym =  1     identity                                     

 cryst.   s( 1) = (     1          0          0      )
                  (     0          1          0      )
                  (     0          0          1      )

 cart.    s( 1) = (  1.0000000  0.0000000  0.0000000 )
                  (  0.0000000  1.0000000  0.0000000 )
                  (  0.0000000  0.0000000  1.0000000 )


      isym =  2     180 deg rotation - cart. axis [1,0,0]        

 cryst.   s( 2) = (     1          0          0      )    f =(  0.3333335 )
                  (    -1         -1          0      )       ( -0.3333329 )
                  (     0          0         -1      )       ( -0.0000013 )

 cart.    s( 2) = (  1.0000000  0.0000000  0.0000000 )    f =(  0.5000000 )
                  (  0.0000000 -1.0000000  0.0000000 )       ( -0.2886748 )
                  (  0.0000000  0.0000000 -1.0000000 )       ( -0.0000068 )


      isym =  3     inversion                                    

 cryst.   s( 3) = (    -1          0          0      )    f =(  0.3333335 )
                  (     0         -1          0      )       ( -0.3333329 )
                  (     0          0         -1      )       ( -0.0000013 )

 cart.    s( 3) = ( -1.0000000  0.0000000  0.0000000 )    f =(  0.5000000 )
                  (  0.0000000 -1.0000000  0.0000000 )       ( -0.2886748 )
                  (  0.0000000  0.0000000 -1.0000000 )       ( -0.0000068 )


      isym =  4     inv. 180 deg rotation - cart. axis [1,0,0]   

 cryst.   s( 4) = (    -1          0          0      )
                  (     1          1          0      )
                  (     0          0          1      )

 cart.    s( 4) = ( -1.0000000  0.0000000  0.0000000 )
                  (  0.0000000  1.0000000  0.0000000 )
                  (  0.0000000  0.0000000  1.0000000 )


     point group C_2h (2/m) 
     there are  4 classes
     the character table:

       E     C2    i     s_h  
A_g    1.00  1.00  1.00  1.00
B_g    1.00 -1.00  1.00 -1.00
A_u    1.00  1.00 -1.00 -1.00
B_u    1.00 -1.00 -1.00  1.00

     the symmetry operations in each class and the name of the first element:

     E        1
          identity                                               
     C2       2
          180 deg rotation - cart. axis [1,0,0]                  
     i        3
          inversion                                              
     s_h      4
          inv. 180 deg rotation - cart. axis [1,0,0]             

   Cartesian axes

     site n.     atom                  positions (alat units)
         1        Li     tau(   1) = (  -0.0000000  -0.0000472   2.5748267  )
         2        Li     tau(   2) = (   0.2500616   0.1443620   2.1877848  )
         3        Li     tau(   3) = (   0.5000000   0.2886943   2.3885717  )
         4        Li     tau(   4) = (   0.0000000   0.0000148   2.2647426  )
         5        Li     tau(   5) = (   0.2500121   0.1443475   2.4841245  )
         6        Li     tau(   6) = (   0.5000000   0.2887584   2.0868206  )
         7        Li     tau(   7) = (   0.0000000  -0.0000856   3.1835088  )
         8        Li     tau(   8) = (   0.2499891   0.1443264   2.7862095  )
         9        Li     tau(   9) = (   0.5000000   0.2886600   3.0056011  )
        10        Li     tau(  10) = (  -0.0000000  -0.0000166   2.8817640  )
        11        Li     tau(  11) = (   0.2499406   0.1443132   3.0825442  )
        12        Li     tau(  12) = (   0.5000000   0.2887220   2.6955121  )
        13        Li     tau(  13) = (   0.2500593   0.4330078   2.5749381  )
        14        Li     tau(  14) = (   0.5000000   0.5773311   2.1879329  )
        15        Li     tau(  15) = (   0.7499516   0.7217070   2.3884434  )
        16        Li     tau(  16) = (   0.2499997   0.4330306   2.2648095  )
        17        Li     tau(  17) = (   0.5000000   0.5773190   2.4841776  )
        18        Li     tau(  18) = (   0.7498533   0.7217288   2.0866484  )
        19        Li     tau(  19) = (   0.2501442   0.4329763   3.1836798  )
        20        Li     tau(  20) = (   0.5000000   0.5773809   2.7861535  )
        21        Li     tau(  21) = (   0.7500013   0.7216715   3.0055168  )
        22        Li     tau(  22) = (   0.2500477   0.4329900   2.8818920  )
        23        Li     tau(  23) = (   0.5000000   0.5773712   3.0823919  )
        24        Li     tau(  24) = (   0.7499397   0.7216930   2.6953937  )
        25        Li     tau(  25) = (   0.5000000   0.0000606   2.5749881  )
        26        Li     tau(  26) = (   0.7499384   0.1443619   2.1877848  )
        27        Li     tau(  27) = (   1.0000000   0.2886671   2.3883800  )
        28        Li     tau(  28) = (   0.5000000  -0.0000005   2.2648324  )
        29        Li     tau(  29) = (   0.7499879   0.1443475   2.4841245  )
        30        Li     tau(  30) = (   1.0000000   0.2885827   2.0865528  )
        31        Li     tau(  31) = (   0.5000000   0.0000841   3.1837729  )
        32        Li     tau(  32) = (   0.7500108   0.1443264   2.7862095  )
        33        Li     tau(  33) = (   1.0000000   0.2886716   3.0055114  )
        34        Li     tau(  34) = (   0.5000000   0.0000139   2.8819552  )
        35        Li     tau(  35) = (   0.7500593   0.1443132   3.0825442  )
        36        Li     tau(  36) = (   1.0000000   0.2886127   2.6953527  )
        37        Li     tau(  37) = (   0.7499406   0.4330078   2.5749381  )
        38        Li     tau(  38) = (   1.0000000   0.5773881   2.1875349  )
        39        Li     tau(  39) = (   1.2500484   0.7217070   2.3884434  )
        40        Li     tau(  40) = (   0.7500002   0.4330306   2.2648095  )
        41        Li     tau(  41) = (   1.0000000   0.5773814   2.4840350  )
        42        Li     tau(  42) = (   1.2501467   0.7217288   2.0866484  )
        43        Li     tau(  43) = (   0.7498558   0.4329763   3.1836798  )
        44        Li     tau(  44) = (   1.0000000   0.5773234   2.7862906  )
        45        Li     tau(  45) = (   1.2499987   0.7216715   3.0055168  )
        46        Li     tau(  46) = (   0.7499523   0.4329900   2.8818920  )
        47        Li     tau(  47) = (   1.0000000   0.5773125   3.0827808  )
        48        Li     tau(  48) = (   1.2500603   0.7216930   2.6953937  )

   Crystallographic axes

     site n.     atom                  positions (cryst. coord.)
         1        Li     tau(   1) = ( -0.0000273 -0.0000545  0.4885511  )
         2        Li     tau(   2) = (  0.3334091  0.1666948  0.4151133  )
         3        Li     tau(   3) = (  0.6666777  0.3333554  0.4532109  )
         4        Li     tau(   4) = (  0.0000085  0.0000171  0.4297154  )
         5        Li     tau(   5) = (  0.3333511  0.1666781  0.4713412  )
         6        Li     tau(   6) = (  0.6667147  0.3334295  0.3959562  )
         7        Li     tau(   7) = ( -0.0000494 -0.0000988  0.6040433  )
         8        Li     tau(   8) = (  0.3333161  0.1666538  0.5286592  )
         9        Li     tau(   9) = (  0.6666579  0.3333158  0.5702869  )
        10        Li     tau(  10) = ( -0.0000096 -0.0000192  0.5467898  )
        11        Li     tau(  11) = (  0.3332599  0.1666385  0.5848862  )
        12        Li     tau(  12) = (  0.6666937  0.3333875  0.5114501  )
        13        Li     tau(  13) = (  0.5000565  0.4999943  0.4885723  )
        14        Li     tau(  14) = (  0.8333223  0.6666446  0.4151414  )
        15        Li     tau(  15) = (  1.1666294  0.8333555  0.4531865  )
        16        Li     tau(  16) = (  0.5000101  0.5000207  0.4297280  )
        17        Li     tau(  17) = (  0.8333153  0.6666306  0.4713513  )
        18        Li     tau(  18) = (  1.1665436  0.8333806  0.3959235  )
        19        Li     tau(  19) = (  0.5001232  0.4999580  0.6040758  )
        20        Li     tau(  20) = (  0.8333510  0.6667020  0.5286486  )
        21        Li     tau(  21) = (  1.1666585  0.8333145  0.5702709  )
        22        Li     tau(  22) = (  0.5000346  0.4999738  0.5468141  )
        23        Li     tau(  23) = (  0.8333454  0.6666908  0.5848573  )
        24        Li     tau(  24) = (  1.1666093  0.8333393  0.5114277  )
        25        Li     tau(  25) = (  0.5000350  0.0000700  0.4885818  )
        26        Li     tau(  26) = (  0.8332858  0.1666948  0.4151133  )
        27        Li     tau(  27) = (  1.1666620  0.3333240  0.4531745  )
        28        Li     tau(  28) = (  0.4999997 -0.0000006  0.4297324  )
        29        Li     tau(  29) = (  0.8333270  0.1666781  0.4713412  )
        30        Li     tau(  30) = (  1.1666133  0.3332267  0.3959054  )
        31        Li     tau(  31) = (  0.5000485  0.0000971  0.6040934  )
        32        Li     tau(  32) = (  0.8333377  0.1666538  0.5286592  )
        33        Li     tau(  33) = (  1.1666646  0.3333292  0.5702698  )
        34        Li     tau(  34) = (  0.5000080  0.0000160  0.5468261  )
        35        Li     tau(  35) = (  0.8333786  0.1666385  0.5848862  )
        36        Li     tau(  36) = (  1.1666306  0.3332612  0.5114199  )
        37        Li     tau(  37) = (  0.9999378  0.4999943  0.4885723  )
        38        Li     tau(  38) = (  1.3333552  0.6667104  0.4150659  )
        39        Li     tau(  39) = (  1.6667261  0.8333555  0.4531865  )
        40        Li     tau(  40) = (  1.0000106  0.5000207  0.4297280  )
        41        Li     tau(  41) = (  1.3333513  0.6667026  0.4713242  )
        42        Li     tau(  42) = (  1.6668370  0.8333806  0.3959235  )
        43        Li     tau(  43) = (  0.9998347  0.4999580  0.6040758  )
        44        Li     tau(  44) = (  1.3333178  0.6666357  0.5286746  )
        45        Li     tau(  45) = (  1.6666560  0.8333145  0.5702709  )
        46        Li     tau(  46) = (  0.9999392  0.4999738  0.5468141  )
        47        Li     tau(  47) = (  1.3333115  0.6666231  0.5849310  )
        48        Li     tau(  48) = (  1.6667300  0.8333393  0.5114277  )

     number of k points=    16  Marzari-Vanderbilt smearing, width (Ry)=  0.0100
                       cart. coord. in units 2pi/alat
        k(    1) = (   0.0000000   0.0000000   0.0000000), wk =   0.0408163
        k(    2) = (   0.0000000   0.1649572   0.0000000), wk =   0.0816327
        k(    3) = (   0.0000000   0.3299144   0.0000000), wk =   0.0816327
        k(    4) = (   0.0000000   0.4948717   0.0000000), wk =   0.0816327
        k(    5) = (   0.1428571   0.2474358   0.0000000), wk =   0.1632653
        k(    6) = (   0.1428571   0.4123930   0.0000000), wk =   0.1632653
        k(    7) = (   0.1428571   0.5773503   0.0000000), wk =   0.0816327
        k(    8) = (   0.2857143   0.4948717   0.0000000), wk =   0.1632653
        k(    9) = (  -0.1428571   0.0824786   0.0000000), wk =   0.1632653
        k(   10) = (  -0.2857143   0.1649572   0.0000000), wk =   0.1632653
        k(   11) = (  -0.4285714   0.2474358   0.0000000), wk =   0.1632653
        k(   12) = (   0.2857143  -0.0000000   0.0000000), wk =   0.0816327
        k(   13) = (  -0.2857143   0.3299144   0.0000000), wk =   0.1632653
        k(   14) = (   0.4285714   0.0824786   0.0000000), wk =   0.1632653
        k(   15) = (  -0.4285714   0.4123930   0.0000000), wk =   0.1632653
        k(   16) = (   0.5714286  -0.0000000   0.0000000), wk =   0.0816327

                       cryst. coord.
        k(    1) = (   0.0000000   0.0000000   0.0000000), wk =   0.0408163
        k(    2) = (   0.0000000   0.1428571   0.0000000), wk =   0.0816327
        k(    3) = (   0.0000000   0.2857143   0.0000000), wk =   0.0816327
        k(    4) = (   0.0000000   0.4285714   0.0000000), wk =   0.0816327
        k(    5) = (   0.1428571   0.1428571   0.0000000), wk =   0.1632653
        k(    6) = (   0.1428571   0.2857143   0.0000000), wk =   0.1632653
        k(    7) = (   0.1428571   0.4285714   0.0000000), wk =   0.0816327
        k(    8) = (   0.2857143   0.2857143   0.0000000), wk =   0.1632653
        k(    9) = (  -0.1428571   0.1428571   0.0000000), wk =   0.1632653
        k(   10) = (  -0.2857143   0.2857143   0.0000000), wk =   0.1632653
        k(   11) = (  -0.4285714   0.4285714   0.0000000), wk =   0.1632653
        k(   12) = (   0.2857143  -0.1428571   0.0000000), wk =   0.0816327
        k(   13) = (  -0.2857143   0.4285714   0.0000000), wk =   0.1632653
        k(   14) = (   0.4285714  -0.1428571   0.0000000), wk =   0.1632653
        k(   15) = (  -0.4285714   0.5714286   0.0000000), wk =   0.1632653
        k(   16) = (   0.5714286  -0.2857143   0.0000000), wk =   0.0816327

     Dense  grid: 10795351 G-vectors     FFT dimensions: ( 180, 180, 900)

     Smooth grid:  2731157 G-vectors     FFT dimensions: ( 108, 108, 576)

     Dynamical RAM for                 wfc:       2.93 MB

     Dynamical RAM for     wfc (w. buffer):      26.36 MB

     Dynamical RAM for           str. fact:       0.86 MB

     Dynamical RAM for           local pot:       0.00 MB

     Dynamical RAM for          nlocal pot:      10.41 MB

     Dynamical RAM for                qrad:       0.65 MB

     Dynamical RAM for          rho,v,vnew:       6.28 MB

     Dynamical RAM for               rhoin:       2.09 MB

     Dynamical RAM for            rho*nmix:      13.73 MB

     Dynamical RAM for           G-vectors:       3.33 MB

     Dynamical RAM for          h,s,v(r/c):       8.54 MB

     Dynamical RAM for          <psi|beta>:       0.63 MB

     Dynamical RAM for                 psi:      11.71 MB

     Dynamical RAM for                hpsi:      11.71 MB

     Dynamical RAM for                spsi:      11.71 MB

     Dynamical RAM for      wfcinit/wfcrot:       6.12 MB

     Dynamical RAM for           addusdens:      39.47 MB

     Dynamical RAM for          addusforce:      79.84 MB

     Estimated static dynamical RAM per process >      57.87 MB

     Estimated max dynamical RAM per process >     164.72 MB

     Estimated total dynamical RAM >      54.21 GB

     Initial potential from superposition of free atoms

     starting charge     143.7788, renormalised to     144.0000

     negative rho (up, down):  4.854E-03 0.000E+00
     Starting wfcs are random
     Checking if some PAW data can be deallocated... 

     total cpu time spent up to now is       36.7 secs

     Self-consistent Calculation

     iteration #  1     ecut=    80.00 Ry     beta= 0.20
     Davidson diagonalization with overlap

---- Real-time Memory Report at c_bands before calling an iterative solver
          1124 MiB given to the printing process from OS
             0 MiB allocation reported by mallinfo(arena+hblkhd)
        216022 MiB available memory on the node where the printing process lives
------------------
     c_bands:  2 eigenvalues not converged
     c_bands:  1 eigenvalues not converged
     c_bands:  1 eigenvalues not converged
     c_bands:  1 eigenvalues not converged
     ethr =  1.00E-12,  avg # of iterations =152.9

     negative rho (up, down):  3.621E-03 0.000E+00

     total cpu time spent up to now is      274.8 secs

     total energy              =    -721.86302194 Ry
     estimated scf accuracy    <       0.17967961 Ry

     total charge of GC-SCF    =       0.00416293 e
     the Fermi energy          =      -4.50044938 eV
                        (error :       2.84644938 eV)
     electrostatic embedding   =       0.00000000 Ry
     cavitation energy         =       0.03568424 Ry
     electrolyte free energy   =       0.01215974 Ry
     correction to one-el term =      -0.00000000 Ry

     iteration #  2     ecut=    80.00 Ry     beta= 0.20
     Davidson diagonalization with overlap

---- Real-time Memory Report at c_bands before calling an iterative solver
          1124 MiB given to the printing process from OS
             0 MiB allocation reported by mallinfo(arena+hblkhd)
        208493 MiB available memory on the node where the printing process lives
------------------
     ethr =  1.00E-05,  avg # of iterations = 11.7

     negative rho (up, down):  2.832E-03 0.000E+00

     add environment contribution to local potential

     total cpu time spent up to now is      311.4 secs

     total energy              =    -721.89861450 Ry
     estimated scf accuracy    <       0.06379457 Ry

     total charge of GC-SCF    =      -0.02836839 e
     the Fermi energy          =      -3.35140525 eV
                        (error :       1.69740525 eV)
     electrostatic embedding   =       0.00003333 Ry
     cavitation energy         =       0.03568424 Ry
     electrolyte free energy   =       0.01215974 Ry
     correction to one-el term =      -0.00000000 Ry

     iteration #  3     ecut=    80.00 Ry     beta= 0.20
     Davidson diagonalization with overlap

---- Real-time Memory Report at c_bands before calling an iterative solver
          1124 MiB given to the printing process from OS
             0 MiB allocation reported by mallinfo(arena+hblkhd)
        207904 MiB available memory on the node where the printing process lives
------------------
     ethr =  1.00E-05,  avg # of iterations = 30.3

     negative rho (up, down):  2.382E-03 0.000E+00

     add environment contribution to local potential

     total cpu time spent up to now is      362.9 secs

     total energy              =    -721.74782027 Ry
     estimated scf accuracy    <       0.04924269 Ry

     total charge of GC-SCF    =      -0.19662450 e
     the Fermi energy          =      -2.99720021 eV
                        (error :       1.34320021 eV)
     electrostatic embedding   =      -0.03947275 Ry
     cavitation energy         =       0.03568424 Ry
     electrolyte free energy   =      -0.00389073 Ry
     correction to one-el term =       1.28726766 Ry

     iteration #  4     ecut=    80.00 Ry     beta= 0.20
     Davidson diagonalization with overlap

---- Real-time Memory Report at c_bands before calling an iterative solver
          1124 MiB given to the printing process from OS
             0 MiB allocation reported by mallinfo(arena+hblkhd)
        207751 MiB available memory on the node where the printing process lives
------------------
     ethr =  1.00E-05,  avg # of iterations = 15.6

     negative rho (up, down):  1.941E-03 0.000E+00

     add environment contribution to local potential

     total cpu time spent up to now is      405.3 secs

     total energy              =    -721.77748329 Ry
     estimated scf accuracy    <       0.03140376 Ry

     total charge of GC-SCF    =      -0.35589126 e
     the Fermi energy          =      -3.39344314 eV
                        (error :       1.73944314 eV)
     electrostatic embedding   =      -0.05199353 Ry
     cavitation energy         =       0.03568424 Ry
     electrolyte free energy   =      -0.00514814 Ry
     correction to one-el term =       9.25611481 Ry

     iteration #  5     ecut=    80.00 Ry     beta= 0.20
     Davidson diagonalization with overlap

---- Real-time Memory Report at c_bands before calling an iterative solver
          1124 MiB given to the printing process from OS
             0 MiB allocation reported by mallinfo(arena+hblkhd)
        207677 MiB available memory on the node where the printing process lives
------------------
     ethr =  1.00E-05,  avg # of iterations = 21.8

     negative rho (up, down):  1.668E-03 0.000E+00

     add environment contribution to local potential

     total cpu time spent up to now is      453.8 secs

     total energy              =    -721.53299182 Ry
     estimated scf accuracy    <       0.00706878 Ry

     total charge of GC-SCF    =      -0.94110250 e
     the Fermi energy          =      -2.87701180 eV
                        (error :       1.22301180 eV)
     electrostatic embedding   =      -0.06744879 Ry
     cavitation energy         =       0.03568424 Ry
     electrolyte free energy   =      -0.00269530 Ry
     correction to one-el term =      15.58693344 Ry

     iteration #  6     ecut=    80.00 Ry     beta= 0.20
     Davidson diagonalization with overlap

---- Real-time Memory Report at c_bands before calling an iterative solver
          1124 MiB given to the printing process from OS
             0 MiB allocation reported by mallinfo(arena+hblkhd)
        207585 MiB available memory on the node where the printing process lives
------------------
     ethr =  4.88E-06,  avg # of iterations = 25.9

     negative rho (up, down):  1.481E-03 0.000E+00

     add environment contribution to local potential

     total cpu time spent up to now is      503.1 secs

     total energy              =    -721.81548889 Ry
     estimated scf accuracy    <       0.01922409 Ry

     total charge of GC-SCF    =      -1.26258029 e
     the Fermi energy          =      -2.21316706 eV
                        (error :       0.55916706 eV)
     electrostatic embedding   =      -0.20442408 Ry
     cavitation energy         =       0.03568424 Ry
     electrolyte free energy   =      -0.00150852 Ry
     correction to one-el term =      41.77301375 Ry

     iteration #  7     ecut=    80.00 Ry     beta= 0.20
     Davidson diagonalization with overlap

---- Real-time Memory Report at c_bands before calling an iterative solver
          1124 MiB given to the printing process from OS
             0 MiB allocation reported by mallinfo(arena+hblkhd)
        207440 MiB available memory on the node where the printing process lives
------------------
     ethr =  4.88E-06,  avg # of iterations = 11.5

     negative rho (up, down):  1.428E-03 0.000E+00

     add environment contribution to local potential

     total cpu time spent up to now is      540.1 secs

     total energy              =    -721.68665181 Ry
     estimated scf accuracy    <       0.02357998 Ry

     total charge of GC-SCF    =      -2.13543145 e
     the Fermi energy          =      -2.05889080 eV
                        (error :       0.40489080 eV)
     electrostatic embedding   =      -0.32535229 Ry
     cavitation energy         =       0.03568424 Ry
     electrolyte free energy   =      -0.00290158 Ry
     correction to one-el term =      54.55091582 Ry

     iteration #  8     ecut=    80.00 Ry     beta= 0.20
     Davidson diagonalization with overlap

---- Real-time Memory Report at c_bands before calling an iterative solver
          1124 MiB given to the printing process from OS
             0 MiB allocation reported by mallinfo(arena+hblkhd)
        207385 MiB available memory on the node where the printing process lives
------------------
     ethr =  4.88E-06,  avg # of iterations = 11.2

     negative rho (up, down):  1.308E-03 0.000E+00

     add environment contribution to local potential

     total cpu time spent up to now is      578.5 secs

     total energy              =    -721.88970116 Ry
     estimated scf accuracy    <       0.00200720 Ry

     total charge of GC-SCF    =      -2.31955694 e
     the Fermi energy          =      -2.38935711 eV
                        (error :       0.73535711 eV)
     electrostatic embedding   =      -0.78157484 Ry
     cavitation energy         =       0.03568424 Ry
     electrolyte free energy   =      -0.00460980 Ry
     correction to one-el term =      84.69590571 Ry

     iteration #  9     ecut=    80.00 Ry     beta= 0.20
     Davidson diagonalization with overlap

---- Real-time Memory Report at c_bands before calling an iterative solver
          1124 MiB given to the printing process from OS
             0 MiB allocation reported by mallinfo(arena+hblkhd)
        207311 MiB available memory on the node where the printing process lives
------------------
     ethr =  1.37E-06,  avg # of iterations =  8.2

     negative rho (up, down):  1.161E-03 0.000E+00

     add environment contribution to local potential

     total cpu time spent up to now is      609.1 secs

     total energy              =    -721.84621293 Ry
     estimated scf accuracy    <       0.00134198 Ry

     total charge of GC-SCF    =      -2.76907240 e
     the Fermi energy          =      -2.40973052 eV
                        (error :       0.75573052 eV)
     electrostatic embedding   =      -0.89930932 Ry
     cavitation energy         =       0.03568424 Ry
     electrolyte free energy   =      -0.00547695 Ry
     correction to one-el term =      90.86156678 Ry

     iteration # 10     ecut=    80.00 Ry     beta= 0.20
     Davidson diagonalization with overlap

---- Real-time Memory Report at c_bands before calling an iterative solver
          1124 MiB given to the printing process from OS
             0 MiB allocation reported by mallinfo(arena+hblkhd)
        207332 MiB available memory on the node where the printing process lives
------------------
     ethr =  9.14E-07,  avg # of iterations = 13.7

     negative rho (up, down):  1.010E-03 0.000E+00

     add environment contribution to local potential

     total cpu time spent up to now is      652.5 secs

     total energy              =    -721.91297313 Ry
     estimated scf accuracy    <       0.00194028 Ry

     total charge of GC-SCF    =      -3.10354515 e
     the Fermi energy          =      -2.21083338 eV
                        (error :       0.55683338 eV)
     electrostatic embedding   =      -1.20541711 Ry
     cavitation energy         =       0.03568424 Ry
     electrolyte free energy   =      -0.00842463 Ry
     correction to one-el term =     106.94170277 Ry

     iteration # 11     ecut=    80.00 Ry     beta= 0.20
     Davidson diagonalization with overlap

---- Real-time Memory Report at c_bands before calling an iterative solver
          1124 MiB given to the printing process from OS
             0 MiB allocation reported by mallinfo(arena+hblkhd)
        207082 MiB available memory on the node where the printing process lives
------------------
     ethr =  9.14E-07,  avg # of iterations = 21.5

     negative rho (up, down):  9.531E-04 0.000E+00

     add environment contribution to local potential

     total cpu time spent up to now is      701.4 secs

     total energy              =    -721.90631627 Ry
     estimated scf accuracy    <       0.02401736 Ry

     total charge of GC-SCF    =      -3.28276465 e
     the Fermi energy          =      -1.83848295 eV
                        (error :       0.18448295 eV)
     electrostatic embedding   =      -1.45202750 Ry
     cavitation energy         =       0.03568424 Ry
     electrolyte free energy   =      -0.01281447 Ry
     correction to one-el term =     118.18910150 Ry

     iteration # 12     ecut=    80.00 Ry     beta= 0.20
     Davidson diagonalization with overlap

---- Real-time Memory Report at c_bands before calling an iterative solver
          1124 MiB given to the printing process from OS
             0 MiB allocation reported by mallinfo(arena+hblkhd)
        207105 MiB available memory on the node where the printing process lives
------------------
     ethr =  9.14E-07,  avg # of iterations = 12.8

     negative rho (up, down):  7.729E-04 0.000E+00

     add environment contribution to local potential

     total cpu time spent up to now is      744.8 secs

     total energy              =    -721.88061673 Ry
     estimated scf accuracy    <       0.00646298 Ry

     total charge of GC-SCF    =      -4.01053710 e
     the Fermi energy          =      -2.07994374 eV
                        (error :       0.42594374 eV)
     electrostatic embedding   =      -1.61363852 Ry
     cavitation energy         =       0.03568424 Ry
     electrolyte free energy   =      -0.01299905 Ry
     correction to one-el term =     124.01501568 Ry

     iteration # 13     ecut=    80.00 Ry     beta= 0.20
     Davidson diagonalization with overlap

---- Real-time Memory Report at c_bands before calling an iterative solver
          1124 MiB given to the printing process from OS
             0 MiB allocation reported by mallinfo(arena+hblkhd)
        207100 MiB available memory on the node where the printing process lives
------------------
     ethr =  9.14E-07,  avg # of iterations = 14.4

     negative rho (up, down):  6.651E-04 0.000E+00

     add environment contribution to local potential

     total cpu time spent up to now is      788.6 secs

     total energy              =    -721.95615467 Ry
     estimated scf accuracy    <       0.00075093 Ry

     total charge of GC-SCF    =      -4.83470138 e
     the Fermi energy          =      -2.17956775 eV
                        (error :       0.52556775 eV)
     electrostatic embedding   =      -2.30974443 Ry
     cavitation energy         =       0.03568424 Ry
     electrolyte free energy   =      -0.02109205 Ry
     correction to one-el term =     147.58286811 Ry

     iteration # 14     ecut=    80.00 Ry     beta= 0.20
     Davidson diagonalization with overlap

---- Real-time Memory Report at c_bands before calling an iterative solver
          1124 MiB given to the printing process from OS
             0 MiB allocation reported by mallinfo(arena+hblkhd)
        207102 MiB available memory on the node where the printing process lives
------------------
     ethr =  5.05E-07,  avg # of iterations = 13.0

     negative rho (up, down):  6.345E-04 0.000E+00

     add environment contribution to local potential

     total cpu time spent up to now is      831.4 secs

     total energy              =    -722.02507512 Ry
     estimated scf accuracy    <       0.00025374 Ry

     total charge of GC-SCF    =      -4.77584129 e
     the Fermi energy          =      -2.03736138 eV
                        (error :       0.38336138 eV)
     electrostatic embedding   =      -3.21824636 Ry
     cavitation energy         =       0.03568424 Ry
     electrolyte free energy   =      -0.03566467 Ry
     correction to one-el term =     174.15348209 Ry

     iteration # 15     ecut=    80.00 Ry     beta= 0.20
     Davidson diagonalization with overlap

---- Real-time Memory Report at c_bands before calling an iterative solver
          1124 MiB given to the printing process from OS
             0 MiB allocation reported by mallinfo(arena+hblkhd)
        207081 MiB available memory on the node where the printing process lives
------------------
     ethr =  1.71E-07,  avg # of iterations =  9.4

     negative rho (up, down):  6.061E-04 0.000E+00

     add environment contribution to local potential

     total cpu time spent up to now is      868.9 secs

     total energy              =    -721.98685008 Ry
     estimated scf accuracy    <       0.00028337 Ry

     total charge of GC-SCF    =      -5.12343300 e
     the Fermi energy          =      -2.05204833 eV
                        (error :       0.39804833 eV)
     electrostatic embedding   =      -3.14674689 Ry
     cavitation energy         =       0.03568424 Ry
     electrolyte free energy   =      -0.03439180 Ry
     correction to one-el term =     172.15854589 Ry

     iteration # 16     ecut=    80.00 Ry     beta= 0.20
     Davidson diagonalization with overlap

---- Real-time Memory Report at c_bands before calling an iterative solver
          1124 MiB given to the printing process from OS
             0 MiB allocation reported by mallinfo(arena+hblkhd)
        207100 MiB available memory on the node where the printing process lives
------------------
     ethr =  1.71E-07,  avg # of iterations = 13.2

     negative rho (up, down):  5.852E-04 0.000E+00

     add environment contribution to local potential

     total cpu time spent up to now is      912.9 secs

     total energy              =    -722.01187836 Ry
     estimated scf accuracy    <       0.00025681 Ry

     total charge of GC-SCF    =      -5.23309467 e
     the Fermi energy          =      -1.95288030 eV
                        (error :       0.29888030 eV)
     electrostatic embedding   =      -3.57287758 Ry
     cavitation energy         =       0.03568424 Ry
     electrolyte free energy   =      -0.04240442 Ry
     correction to one-el term =     183.58074719 Ry

     iteration # 17     ecut=    80.00 Ry     beta= 0.20
     Davidson diagonalization with overlap

---- Real-time Memory Report at c_bands before calling an iterative solver
          1124 MiB given to the printing process from OS
             0 MiB allocation reported by mallinfo(arena+hblkhd)
        207080 MiB available memory on the node where the printing process lives
------------------
     ethr =  1.71E-07,  avg # of iterations =  7.0

     negative rho (up, down):  5.567E-04 0.000E+00

     add environment contribution to local potential

     total cpu time spent up to now is      948.2 secs

     total energy              =    -722.00544388 Ry
     estimated scf accuracy    <       0.00018359 Ry

     total charge of GC-SCF    =      -5.78327911 e
     the Fermi energy          =      -1.96211119 eV
                        (error :       0.30811119 eV)
     electrostatic embedding   =      -3.71026918 Ry
     cavitation energy         =       0.03568424 Ry
     electrolyte free energy   =      -0.04490755 Ry
     correction to one-el term =     186.84470215 Ry

     iteration # 18     ecut=    80.00 Ry     beta= 0.20
     Davidson diagonalization with overlap

---- Real-time Memory Report at c_bands before calling an iterative solver
          1124 MiB given to the printing process from OS
             0 MiB allocation reported by mallinfo(arena+hblkhd)
        207075 MiB available memory on the node where the printing process lives
------------------
     ethr =  1.23E-07,  avg # of iterations = 21.9

     negative rho (up, down):  5.811E-04 0.000E+00

     add environment contribution to local potential

     total cpu time spent up to now is     1008.1 secs

     total energy              =    -722.01877629 Ry
     estimated scf accuracy    <       0.00087372 Ry

     total charge of GC-SCF    =      -6.23797492 e
     the Fermi energy          =      -1.92966623 eV
                        (error :       0.27566623 eV)
     electrostatic embedding   =      -4.46423402 Ry
     cavitation energy         =       0.03568424 Ry
     electrolyte free energy   =      -0.06003565 Ry
     correction to one-el term =     204.87772302 Ry

     iteration # 19     ecut=    80.00 Ry     beta= 0.20
     Davidson diagonalization with overlap

---- Real-time Memory Report at c_bands before calling an iterative solver
          1124 MiB given to the printing process from OS
             0 MiB allocation reported by mallinfo(arena+hblkhd)
        207083 MiB available memory on the node where the printing process lives
------------------
     ethr =  1.23E-07,  avg # of iterations = 20.9

     negative rho (up, down):  5.528E-04 0.000E+00

     add environment contribution to local potential

     total cpu time spent up to now is     1061.6 secs

     total energy              =    -722.03094532 Ry
     estimated scf accuracy    <       0.00013961 Ry

     total charge of GC-SCF    =      -6.41032376 e
     the Fermi energy          =      -1.76161790 eV
                        (error :       0.10761790 eV)
     electrostatic embedding   =      -5.12081889 Ry
     cavitation energy         =       0.03568424 Ry
     electrolyte free energy   =      -0.07573414 Ry
     correction to one-el term =     219.60720985 Ry

     iteration # 20     ecut=    80.00 Ry     beta= 0.20
     Davidson diagonalization with overlap

---- Real-time Memory Report at c_bands before calling an iterative solver
          1124 MiB given to the printing process from OS
             0 MiB allocation reported by mallinfo(arena+hblkhd)
        207078 MiB available memory on the node where the printing process lives
------------------
     ethr =  9.28E-08,  avg # of iterations =  8.3

     negative rho (up, down):  5.346E-04 0.000E+00

     add environment contribution to local potential

     total cpu time spent up to now is     1101.9 secs

     total energy              =    -722.03976446 Ry
     estimated scf accuracy    <       0.00005607 Ry

     total charge of GC-SCF    =      -6.32631344 e
     the Fermi energy          =      -1.75902540 eV
                        (error :       0.10502540 eV)
     electrostatic embedding   =      -5.36737360 Ry
     cavitation energy         =       0.03568424 Ry
     electrolyte free energy   =      -0.08179388 Ry
     correction to one-el term =     224.33618514 Ry

     iteration # 21     ecut=    80.00 Ry     beta= 0.20
     Davidson diagonalization with overlap

---- Real-time Memory Report at c_bands before calling an iterative solver
          1124 MiB given to the printing process from OS
             0 MiB allocation reported by mallinfo(arena+hblkhd)
        207024 MiB available memory on the node where the printing process lives
------------------
     ethr =  3.73E-08,  avg # of iterations =  9.9

     negative rho (up, down):  5.297E-04 0.000E+00

     add environment contribution to local potential

     total cpu time spent up to now is     1143.1 secs

     total energy              =    -722.06820913 Ry
     estimated scf accuracy    <       0.00005937 Ry

     total charge of GC-SCF    =      -7.07742225 e
     the Fermi energy          =      -1.77106623 eV
                        (error :       0.11706623 eV)
     electrostatic embedding   =      -5.23338264 Ry
     cavitation energy         =       0.03568424 Ry
     electrolyte free energy   =      -0.07862107 Ry
     correction to one-el term =     221.45444706 Ry

     iteration # 22     ecut=    80.00 Ry     beta= 0.20
     Davidson diagonalization with overlap

---- Real-time Memory Report at c_bands before calling an iterative solver
          1124 MiB given to the printing process from OS
             0 MiB allocation reported by mallinfo(arena+hblkhd)
        207076 MiB available memory on the node where the printing process lives
------------------
     ethr =  3.73E-08,  avg # of iterations = 19.1

     negative rho (up, down):  6.003E-04 0.000E+00

     add environment contribution to local potential

     total cpu time spent up to now is     1201.1 secs

     total energy              =    -722.03651102 Ry
     estimated scf accuracy    <       0.00022954 Ry

     total charge of GC-SCF    =      -6.97801782 e
     the Fermi energy          =      -1.61597028 eV
                        (error :       0.03802972 eV)
     electrostatic embedding   =      -6.40037380 Ry
     cavitation energy         =       0.03568424 Ry
     electrolyte free energy   =      -0.11006742 Ry
     correction to one-el term =     244.63179138 Ry

     iteration # 23     ecut=    80.00 Ry     beta= 0.20
     Davidson diagonalization with overlap

---- Real-time Memory Report at c_bands before calling an iterative solver
          1124 MiB given to the printing process from OS
             0 MiB allocation reported by mallinfo(arena+hblkhd)
        207067 MiB available memory on the node where the printing process lives
------------------
     ethr =  3.73E-08,  avg # of iterations = 17.5

     negative rho (up, down):  5.198E-04 0.000E+00

     add environment contribution to local potential

     total cpu time spent up to now is     1253.1 secs

     total energy              =    -722.03833204 Ry
     estimated scf accuracy    <       0.00006489 Ry

     total charge of GC-SCF    =      -7.00055697 e
     the Fermi energy          =      -1.66398159 eV
                        (error :       0.00998159 eV)
     electrostatic embedding   =      -6.19342387 Ry
     cavitation energy         =       0.03568424 Ry
     electrolyte free energy   =      -0.10509051 Ry
     correction to one-el term =     239.89400307 Ry

     iteration # 24     ecut=    80.00 Ry     beta= 0.20
     Davidson diagonalization with overlap

---- Real-time Memory Report at c_bands before calling an iterative solver
          1124 MiB given to the printing process from OS
             0 MiB allocation reported by mallinfo(arena+hblkhd)
        207025 MiB available memory on the node where the printing process lives
------------------
     ethr =  3.73E-08,  avg # of iterations = 12.4

     negative rho (up, down):  6.338E-04 0.000E+00

     add environment contribution to local potential

     total cpu time spent up to now is     1301.0 secs

     total energy              =    -722.03966824 Ry
     estimated scf accuracy    <       0.00002990 Ry

     total charge of GC-SCF    =      -7.09087621 e
     the Fermi energy          =      -1.67509264 eV
                        (error :       0.02109264 eV)
     electrostatic embedding   =      -6.20670399 Ry
     cavitation energy         =       0.03568424 Ry
     electrolyte free energy   =      -0.10588127 Ry
     correction to one-el term =     239.66328855 Ry

     iteration # 25     ecut=    80.00 Ry     beta= 0.20
     Davidson diagonalization with overlap

---- Real-time Memory Report at c_bands before calling an iterative solver
          1124 MiB given to the printing process from OS
             0 MiB allocation reported by mallinfo(arena+hblkhd)
        207018 MiB available memory on the node where the printing process lives
------------------
     ethr =  1.98E-08,  avg # of iterations = 12.0

     negative rho (up, down):  5.322E-04 0.000E+00

     add environment contribution to local potential

     total cpu time spent up to now is     1347.7 secs

     total energy              =    -722.03932348 Ry
     estimated scf accuracy    <       0.00004993 Ry

     total charge of GC-SCF    =      -7.12070786 e
     the Fermi energy          =      -1.65266863 eV
                        (error :       0.00133137 eV)
     electrostatic embedding   =      -6.36123377 Ry
     cavitation energy         =       0.03568424 Ry
     electrolyte free energy   =      -0.11013510 Ry
     correction to one-el term =     242.74433901 Ry

     iteration # 26     ecut=    80.00 Ry     beta= 0.20
     Davidson diagonalization with overlap

---- Real-time Memory Report at c_bands before calling an iterative solver
          1124 MiB given to the printing process from OS
             0 MiB allocation reported by mallinfo(arena+hblkhd)
        206983 MiB available memory on the node where the printing process lives
------------------
     ethr =  1.98E-08,  avg # of iterations =  9.3

     negative rho (up, down):  4.730E-04 0.000E+00

     add environment contribution to local potential

     total cpu time spent up to now is     1388.4 secs

     total energy              =    -722.04012597 Ry
     estimated scf accuracy    <       0.00005009 Ry

     total charge of GC-SCF    =      -7.02168389 e
     the Fermi energy          =      -1.64887250 eV
                        (error :       0.00512750 eV)
     electrostatic embedding   =      -6.40222115 Ry
     cavitation energy         =       0.03568424 Ry
     electrolyte free energy   =      -0.11149575 Ry
     correction to one-el term =     243.39979170 Ry

     iteration # 27     ecut=    80.00 Ry     beta= 0.20
     Davidson diagonalization with overlap

---- Real-time Memory Report at c_bands before calling an iterative solver
          1124 MiB given to the printing process from OS
             0 MiB allocation reported by mallinfo(arena+hblkhd)
        207012 MiB available memory on the node where the printing process lives
------------------
     ethr =  1.98E-08,  avg # of iterations = 11.1

     negative rho (up, down):  4.438E-04 0.000E+00

     add environment contribution to local potential

     total cpu time spent up to now is     1434.1 secs

     total energy              =    -722.04334583 Ry
     estimated scf accuracy    <       0.00002755 Ry

     total charge of GC-SCF    =      -6.85660288 e
     the Fermi energy          =      -1.67304566 eV
                        (error :       0.01904566 eV)
     electrostatic embedding   =      -6.23343619 Ry
     cavitation energy         =       0.03568424 Ry
     electrolyte free energy   =      -0.10680871 Ry
     correction to one-el term =     240.06348905 Ry

     iteration # 28     ecut=    80.00 Ry     beta= 0.20
     Davidson diagonalization with overlap

---- Real-time Memory Report at c_bands before calling an iterative solver
          1124 MiB given to the printing process from OS
             0 MiB allocation reported by mallinfo(arena+hblkhd)
        207031 MiB available memory on the node where the printing process lives
------------------
     ethr =  1.83E-08,  avg # of iterations = 12.5

     negative rho (up, down):  4.323E-04 0.000E+00

     add environment contribution to local potential

     total cpu time spent up to now is     1479.9 secs

     total energy              =    -722.03844438 Ry
     estimated scf accuracy    <       0.00001643 Ry

     total charge of GC-SCF    =      -6.99702375 e
     the Fermi energy          =      -1.70724328 eV
                        (error :       0.05324328 eV)
     electrostatic embedding   =      -5.96143499 Ry
     cavitation energy         =       0.03568424 Ry
     electrolyte free energy   =      -0.09934430 Ry
     correction to one-el term =     234.67424076 Ry

     iteration # 29     ecut=    80.00 Ry     beta= 0.20
     Davidson diagonalization with overlap

---- Real-time Memory Report at c_bands before calling an iterative solver
          1124 MiB given to the printing process from OS
             0 MiB allocation reported by mallinfo(arena+hblkhd)
        207018 MiB available memory on the node where the printing process lives
------------------
     ethr =  1.09E-08,  avg # of iterations = 11.0

     negative rho (up, down):  4.387E-04 0.000E+00

     add environment contribution to local potential

     total cpu time spent up to now is     1525.0 secs

     total energy              =    -722.03931640 Ry
     estimated scf accuracy    <       0.00000928 Ry

     total charge of GC-SCF    =      -7.01184991 e
     the Fermi energy          =      -1.68743149 eV
                        (error :       0.03343149 eV)
     electrostatic embedding   =      -6.17527795 Ry
     cavitation energy         =       0.03568424 Ry
     electrolyte free energy   =      -0.10551494 Ry
     correction to one-el term =     238.56649361 Ry

     iteration # 30     ecut=    80.00 Ry     beta= 0.20
     Davidson diagonalization with overlap

---- Real-time Memory Report at c_bands before calling an iterative solver
          1124 MiB given to the printing process from OS
             0 MiB allocation reported by mallinfo(arena+hblkhd)
        206967 MiB available memory on the node where the printing process lives
------------------
     ethr =  6.15E-09,  avg # of iterations = 10.9

     negative rho (up, down):  4.377E-04 0.000E+00

     add environment contribution to local potential

     total cpu time spent up to now is     1570.4 secs

     total energy              =    -722.03919557 Ry
     estimated scf accuracy    <       0.00000689 Ry

     total charge of GC-SCF    =      -7.07440968 e
     the Fermi energy          =      -1.68941024 eV
                        (error :       0.03541024 eV)
     electrostatic embedding   =      -6.18660082 Ry
     cavitation energy         =       0.03568424 Ry
     electrolyte free energy   =      -0.10610140 Ry
     correction to one-el term =     238.55522790 Ry

     iteration # 31     ecut=    80.00 Ry     beta= 0.20
     Davidson diagonalization with overlap

---- Real-time Memory Report at c_bands before calling an iterative solver
          1124 MiB given to the printing process from OS
             0 MiB allocation reported by mallinfo(arena+hblkhd)
        206984 MiB available memory on the node where the printing process lives
------------------
     ethr =  4.56E-09,  avg # of iterations = 10.5

     negative rho (up, down):  4.253E-04 0.000E+00

     add environment contribution to local potential

     total cpu time spent up to now is     1616.1 secs

     total energy              =    -722.03945239 Ry
     estimated scf accuracy    <       0.00000580 Ry

     total charge of GC-SCF    =      -7.13773698 e
     the Fermi energy          =      -1.68252665 eV
                        (error :       0.02852665 eV)
     electrostatic embedding   =      -6.27443521 Ry
     cavitation energy         =       0.03568424 Ry
     electrolyte free energy   =      -0.10890062 Ry
     correction to one-el term =     239.98864944 Ry

     iteration # 32     ecut=    80.00 Ry     beta= 0.20
     Davidson diagonalization with overlap

---- Real-time Memory Report at c_bands before calling an iterative solver
          1124 MiB given to the printing process from OS
             0 MiB allocation reported by mallinfo(arena+hblkhd)
        207016 MiB available memory on the node where the printing process lives
------------------
     ethr =  3.84E-09,  avg # of iterations = 11.2

     negative rho (up, down):  4.847E-04 0.000E+00

     add environment contribution to local potential

     total cpu time spent up to now is     1661.9 secs

     total energy              =    -722.03981129 Ry
     estimated scf accuracy    <       0.00000415 Ry

     total charge of GC-SCF    =      -7.22359900 e
     the Fermi energy          =      -1.67382538 eV
                        (error :       0.01982538 eV)
     electrostatic embedding   =      -6.36669492 Ry
     cavitation energy         =       0.03568424 Ry
     electrolyte free energy   =      -0.11181537 Ry
     correction to one-el term =     241.55888588 Ry

     iteration # 33     ecut=    80.00 Ry     beta= 0.20
     Davidson diagonalization with overlap

---- Real-time Memory Report at c_bands before calling an iterative solver
          1124 MiB given to the printing process from OS
             0 MiB allocation reported by mallinfo(arena+hblkhd)
        207008 MiB available memory on the node where the printing process lives
------------------
     ethr =  2.74E-09,  avg # of iterations = 14.2

     negative rho (up, down):  4.517E-04 0.000E+00

     add environment contribution to local potential

     total cpu time spent up to now is     1708.2 secs

     total energy              =    -722.03985287 Ry
     estimated scf accuracy    <       0.00000142 Ry

     total charge of GC-SCF    =      -7.21767050 e
     the Fermi energy          =      -1.66531909 eV
                        (error :       0.01131909 eV)
     electrostatic embedding   =      -6.49333821 Ry
     cavitation energy         =       0.03568424 Ry
     electrolyte free energy   =      -0.11583536 Ry
     correction to one-el term =     243.66897780 Ry

     iteration # 34     ecut=    80.00 Ry     beta= 0.20
     Davidson diagonalization with overlap

---- Real-time Memory Report at c_bands before calling an iterative solver
          1124 MiB given to the printing process from OS
             0 MiB allocation reported by mallinfo(arena+hblkhd)
        207004 MiB available memory on the node where the printing process lives
------------------
     ethr =  9.36E-10,  avg # of iterations = 11.8

     negative rho (up, down):  4.148E-04 0.000E+00

     add environment contribution to local potential

     total cpu time spent up to now is     1752.4 secs

     total energy              =    -722.03993629 Ry
     estimated scf accuracy    <       0.00000114 Ry

     total charge of GC-SCF    =      -7.27644281 e
     the Fermi energy          =      -1.66700415 eV
                        (error :       0.01300415 eV)
     electrostatic embedding   =      -6.48253705 Ry
     cavitation energy         =       0.03568424 Ry
     electrolyte free energy   =      -0.11553631 Ry
     correction to one-el term =     243.44735524 Ry

     iteration # 35     ecut=    80.00 Ry     beta= 0.20
     Davidson diagonalization with overlap

---- Real-time Memory Report at c_bands before calling an iterative solver
          1124 MiB given to the printing process from OS
             0 MiB allocation reported by mallinfo(arena+hblkhd)
        207017 MiB available memory on the node where the printing process lives
------------------
     ethr =  7.51E-10,  avg # of iterations = 17.0

     negative rho (up, down):  4.137E-04 0.000E+00

     add environment contribution to local potential

     total cpu time spent up to now is     1803.6 secs

     total energy              =    -722.03991389 Ry
     estimated scf accuracy    <       0.00000069 Ry

     total charge of GC-SCF    =      -7.25982292 e
     the Fermi energy          =      -1.65807939 eV
                        (error :       0.00407939 eV)
     electrostatic embedding   =      -6.57175149 Ry
     cavitation energy         =       0.03568424 Ry
     electrolyte free energy   =      -0.11837235 Ry
     correction to one-el term =     244.95067154 Ry

     iteration # 36     ecut=    80.00 Ry     beta= 0.20
     Davidson diagonalization with overlap

---- Real-time Memory Report at c_bands before calling an iterative solver
          1124 MiB given to the printing process from OS
             0 MiB allocation reported by mallinfo(arena+hblkhd)
        207038 MiB available memory on the node where the printing process lives
------------------
     ethr =  4.54E-10,  avg # of iterations = 10.3

     negative rho (up, down):  4.137E-04 0.000E+00

     add environment contribution to local potential

     total cpu time spent up to now is     1848.7 secs

     total energy              =    -722.03984794 Ry
     estimated scf accuracy    <       0.00000044 Ry

     total charge of GC-SCF    =      -7.27574498 e
     the Fermi energy          =      -1.66202674 eV
                        (error :       0.00802674 eV)
     electrostatic embedding   =      -6.54270177 Ry
     cavitation energy         =       0.03568424 Ry
     electrolyte free energy   =      -0.11753431 Ry
     correction to one-el term =     244.37132508 Ry

     iteration # 37     ecut=    80.00 Ry     beta= 0.20
     Davidson diagonalization with overlap

---- Real-time Memory Report at c_bands before calling an iterative solver
          1124 MiB given to the printing process from OS
             0 MiB allocation reported by mallinfo(arena+hblkhd)
        207030 MiB available memory on the node where the printing process lives
------------------
     ethr =  2.92E-10,  avg # of iterations = 10.6

     negative rho (up, down):  4.156E-04 0.000E+00

     add environment contribution to local potential

     total cpu time spent up to now is     1894.5 secs

     total energy              =    -722.03986884 Ry
     estimated scf accuracy    <       0.00000041 Ry

     total charge of GC-SCF    =      -7.27432550 e
     the Fermi energy          =      -1.65941287 eV
                        (error :       0.00541287 eV)
     electrostatic embedding   =      -6.56754680 Ry
     cavitation energy         =       0.03568424 Ry
     electrolyte free energy   =      -0.11831183 Ry
     correction to one-el term =     244.80105210 Ry

     iteration # 38     ecut=    80.00 Ry     beta= 0.20
     Davidson diagonalization with overlap

---- Real-time Memory Report at c_bands before calling an iterative solver
          1124 MiB given to the printing process from OS
             0 MiB allocation reported by mallinfo(arena+hblkhd)
        206993 MiB available memory on the node where the printing process lives
------------------
     ethr =  2.68E-10,  avg # of iterations =  7.9

     negative rho (up, down):  4.166E-04 0.000E+00

     add environment contribution to local potential

     total cpu time spent up to now is     1933.1 secs

     total energy              =    -722.03985896 Ry
     estimated scf accuracy    <       0.00000037 Ry

     total charge of GC-SCF    =      -7.28271066 e
     the Fermi energy          =      -1.65952884 eV
                        (error :       0.00552884 eV)
     electrostatic embedding   =      -6.56449443 Ry
     cavitation energy         =       0.03568424 Ry
     electrolyte free energy   =      -0.11823939 Ry
     correction to one-el term =     244.73249028 Ry

     iteration # 39     ecut=    80.00 Ry     beta= 0.20
     Davidson diagonalization with overlap

---- Real-time Memory Report at c_bands before calling an iterative solver
          1124 MiB given to the printing process from OS
             0 MiB allocation reported by mallinfo(arena+hblkhd)
        206999 MiB available memory on the node where the printing process lives
------------------
     ethr =  2.47E-10,  avg # of iterations = 11.0

     negative rho (up, down):  4.134E-04 0.000E+00

     add environment contribution to local potential

     total cpu time spent up to now is     1979.9 secs

     total energy              =    -722.03986321 Ry
     estimated scf accuracy    <       0.00000024 Ry

     total charge of GC-SCF    =      -7.29400804 e
     the Fermi energy          =      -1.65920907 eV
                        (error :       0.00520907 eV)
     electrostatic embedding   =      -6.57490977 Ry
     cavitation energy         =       0.03568424 Ry
     electrolyte free energy   =      -0.11863198 Ry
     correction to one-el term =     244.86087779 Ry

     iteration # 40     ecut=    80.00 Ry     beta= 0.20
     Davidson diagonalization with overlap

---- Real-time Memory Report at c_bands before calling an iterative solver
          1124 MiB given to the printing process from OS
             0 MiB allocation reported by mallinfo(arena+hblkhd)
        207001 MiB available memory on the node where the printing process lives
------------------
     ethr =  1.57E-10,  avg # of iterations = 11.0

     negative rho (up, down):  4.141E-04 0.000E+00

     add environment contribution to local potential

     total cpu time spent up to now is     2026.0 secs

     total energy              =    -722.03987397 Ry
     estimated scf accuracy    <       0.00000014 Ry

     total charge of GC-SCF    =      -7.29055824 e
     the Fermi energy          =      -1.65705302 eV
                        (error :       0.00305302 eV)
     electrostatic embedding   =      -6.59294602 Ry
     cavitation energy         =       0.03568424 Ry
     electrolyte free energy   =      -0.11919316 Ry
     correction to one-el term =     245.18591561 Ry

     iteration # 41     ecut=    80.00 Ry     beta= 0.20
     Davidson diagonalization with overlap

---- Real-time Memory Report at c_bands before calling an iterative solver
          1124 MiB given to the printing process from OS
             0 MiB allocation reported by mallinfo(arena+hblkhd)
        206989 MiB available memory on the node where the printing process lives
------------------
     ethr =  9.54E-11,  avg # of iterations = 11.1

     negative rho (up, down):  4.140E-04 0.000E+00

     add environment contribution to local potential

     total cpu time spent up to now is     2072.2 secs

     total energy              =    -722.03986798 Ry
     estimated scf accuracy    <       0.00000007 Ry

     total charge of GC-SCF    =      -7.29215826 e
     the Fermi energy          =      -1.65809956 eV
                        (error :       0.00409956 eV)
     electrostatic embedding   =      -6.58635101 Ry
     cavitation energy         =       0.03568424 Ry
     electrolyte free energy   =      -0.11901559 Ry
     correction to one-el term =     245.05394956 Ry

     iteration # 42     ecut=    80.00 Ry     beta= 0.20
     Davidson diagonalization with overlap

---- Real-time Memory Report at c_bands before calling an iterative solver
          1124 MiB given to the printing process from OS
             0 MiB allocation reported by mallinfo(arena+hblkhd)
        206983 MiB available memory on the node where the printing process lives
------------------
     ethr =  4.44E-11,  avg # of iterations =  8.2

     negative rho (up, down):  4.163E-04 0.000E+00

     add environment contribution to local potential

     total cpu time spent up to now is     2111.4 secs

     total energy              =    -722.03987227 Ry
     estimated scf accuracy    <       0.00000006 Ry

     total charge of GC-SCF    =      -7.30609529 e
     the Fermi energy          =      -1.65780360 eV
                        (error :       0.00380360 eV)
     electrostatic embedding   =      -6.58871113 Ry
     cavitation energy         =       0.03568424 Ry
     electrolyte free energy   =      -0.11909409 Ry
     correction to one-el term =     245.09327163 Ry

     iteration # 43     ecut=    80.00 Ry     beta= 0.20
     Davidson diagonalization with overlap

---- Real-time Memory Report at c_bands before calling an iterative solver
          1124 MiB given to the printing process from OS
             0 MiB allocation reported by mallinfo(arena+hblkhd)
        207014 MiB available memory on the node where the printing process lives
------------------
     ethr =  4.27E-11,  avg # of iterations = 17.8

     negative rho (up, down):  4.174E-04 0.000E+00

     add environment contribution to local potential

     total cpu time spent up to now is     2163.7 secs

     total energy              =    -722.03986947 Ry
     estimated scf accuracy    <       0.00000003 Ry

     total charge of GC-SCF    =      -7.30861557 e
     the Fermi energy          =      -1.65610206 eV
                        (error :       0.00210206 eV)
     electrostatic embedding   =      -6.60913032 Ry
     cavitation energy         =       0.03568424 Ry
     electrolyte free energy   =      -0.11977209 Ry
     correction to one-el term =     245.42196080 Ry

     iteration # 44     ecut=    80.00 Ry     beta= 0.20
     Davidson diagonalization with overlap

---- Real-time Memory Report at c_bands before calling an iterative solver
          1124 MiB given to the printing process from OS
             0 MiB allocation reported by mallinfo(arena+hblkhd)
        206965 MiB available memory on the node where the printing process lives
------------------
     ethr =  2.18E-11,  avg # of iterations = 10.2

     negative rho (up, down):  4.185E-04 0.000E+00

     add environment contribution to local potential

     total cpu time spent up to now is     2206.7 secs

     total energy              =    -722.03986956 Ry
     estimated scf accuracy    <       0.00000003 Ry

     total charge of GC-SCF    =      -7.31105057 e
     the Fermi energy          =      -1.65573784 eV
                        (error :       0.00173784 eV)
     electrostatic embedding   =      -6.61298564 Ry
     cavitation energy         =       0.03568424 Ry
     electrolyte free energy   =      -0.11989619 Ry
     correction to one-el term =     245.48780118 Ry

     iteration # 45     ecut=    80.00 Ry     beta= 0.20
     Davidson diagonalization with overlap

---- Real-time Memory Report at c_bands before calling an iterative solver
          1124 MiB given to the printing process from OS
             0 MiB allocation reported by mallinfo(arena+hblkhd)
        207025 MiB available memory on the node where the printing process lives
------------------
     ethr =  1.82E-11,  avg # of iterations = 10.6

     negative rho (up, down):  4.132E-04 0.000E+00

     add environment contribution to local potential

     total cpu time spent up to now is     2252.1 secs

     total energy              =    -722.03986835 Ry
     estimated scf accuracy    <       0.00000002 Ry

     total charge of GC-SCF    =      -7.31378139 e
     the Fermi energy          =      -1.65539068 eV
                        (error :       0.00139068 eV)
     electrostatic embedding   =      -6.61663288 Ry
     cavitation energy         =       0.03568424 Ry
     electrolyte free energy   =      -0.12001612 Ry
     correction to one-el term =     245.55139065 Ry

     iteration # 46     ecut=    80.00 Ry     beta= 0.20
     Davidson diagonalization with overlap

---- Real-time Memory Report at c_bands before calling an iterative solver
          1124 MiB given to the printing process from OS
             0 MiB allocation reported by mallinfo(arena+hblkhd)
        207013 MiB available memory on the node where the printing process lives
------------------
     ethr =  1.09E-11,  avg # of iterations = 18.8

     negative rho (up, down):  4.123E-04 0.000E+00

     add environment contribution to local potential

     total cpu time spent up to now is     2304.1 secs

     total energy              =    -722.03986830 Ry
     estimated scf accuracy    <          9.1E-09 Ry

     total charge of GC-SCF    =      -7.31438241 e
     the Fermi energy          =      -1.65506311 eV
                        (error :       0.00106311 eV)
     electrostatic embedding   =      -6.62025025 Ry
     cavitation energy         =       0.03568424 Ry
     electrolyte free energy   =      -0.12014792 Ry
     correction to one-el term =     245.60354365 Ry

     iteration # 47     ecut=    80.00 Ry     beta= 0.20
     Davidson diagonalization with overlap

---- Real-time Memory Report at c_bands before calling an iterative solver
          1124 MiB given to the printing process from OS
             0 MiB allocation reported by mallinfo(arena+hblkhd)
        206973 MiB available memory on the node where the printing process lives
------------------
     ethr =  6.02E-12,  avg # of iterations = 11.3

     negative rho (up, down):  4.117E-04 0.000E+00

     add environment contribution to local potential

     total cpu time spent up to now is     2349.7 secs

     total energy              =    -722.03986836 Ry
     estimated scf accuracy    <          5.8E-09 Ry

     total charge of GC-SCF    =      -7.31594618 e
     the Fermi energy          =      -1.65506302 eV
                        (error :       0.00106302 eV)
     electrostatic embedding   =      -6.62088280 Ry
     cavitation energy         =       0.03568424 Ry
     electrolyte free energy   =      -0.12017537 Ry
     correction to one-el term =     245.60805732 Ry

     iteration # 48     ecut=    80.00 Ry     beta= 0.20
     Davidson diagonalization with overlap

---- Real-time Memory Report at c_bands before calling an iterative solver
          1124 MiB given to the printing process from OS
             0 MiB allocation reported by mallinfo(arena+hblkhd)
        207019 MiB available memory on the node where the printing process lives
------------------
     ethr =  3.82E-12,  avg # of iterations = 10.5

     negative rho (up, down):  4.123E-04 0.000E+00

     total cpu time spent up to now is     2373.5 secs

     End of self-consistent calculation

          k = 0.0000 0.0000 0.0000 (341261 PWs)   bands (ev):

   -48.7386 -48.7385 -48.7383 -48.7382 -48.7381 -48.7380 -48.7377 -48.7375
   -48.3661 -48.3656 -48.3651 -48.3650 -48.3645 -48.3644 -48.3641 -48.3640
   -48.1772 -48.1770 -48.1769 -48.1766 -48.1764 -48.1761 -48.1760 -48.1757
   -48.1716 -48.1689 -48.1684 -48.1679 -48.1654 -48.1640 -48.1635 -48.1631
   -48.1503 -48.1500 -48.1498 -48.1496 -48.1468 -48.1466 -48.1463 -48.1421
   -48.0751 -48.0740 -48.0739 -48.0736 -48.0734 -48.0734 -48.0731 -48.0723
    -5.1133  -4.7634  -4.2060  -3.5436  -3.5286  -3.5281  -3.5277  -3.5152
    -3.5149  -3.5143  -3.1575  -3.1571  -3.1569  -3.1280  -3.1278  -3.1273
    -2.8133  -2.5547  -2.5544  -2.5543  -2.5049  -2.5046  -2.5043  -1.8528
    -1.8528  -1.8527  -1.8006  -1.7631  -1.7629  -1.7626  -1.2568  -1.2567
    -1.2566  -1.1307  -1.1305  -1.1305  -1.0257  -0.8519  -0.8513  -0.8511
    -0.7572  -0.7571  -0.7571  -0.3669  -0.1370  -0.1370  -0.1368  -0.1094
     0.0679   0.0699   0.1234   0.1234   0.1236   0.3974   0.3975   0.3976
     0.4572   0.4863   0.7819   0.7820

     occupation numbers 
     1.0000   1.0000   1.0000   1.0000   1.0000   1.0000   1.0000   1.0000
     1.0000   1.0000   1.0000   1.0000   1.0000   1.0000   1.0000   1.0000
     1.0000   1.0000   1.0000   1.0000   1.0000   1.0000   1.0000   1.0000
     1.0000   1.0000   1.0000   1.0000   1.0000   1.0000   1.0000   1.0000
     1.0000   1.0000   1.0000   1.0000   1.0000   1.0000   1.0000   1.0000
     1.0000   1.0000   1.0000   1.0000   1.0000   1.0000   1.0000   1.0000
     1.0000   1.0000   1.0000   1.0000   1.0000   1.0000   1.0000   1.0000
     1.0000   1.0000   1.0000   1.0000   1.0000   1.0000   1.0000   1.0000
     1.0000   1.0000   1.0000   1.0000   1.0000   1.0000   1.0000   1.0829
     1.0829   1.0829   1.0460   0.9456   0.9447   0.9436   0.0000   0.0000
     0.0000   0.0000   0.0000   0.0000   0.0000   0.0000   0.0000   0.0000
     0.0000   0.0000   0.0000   0.0000   0.0000   0.0000   0.0000   0.0000
     0.0000   0.0000   0.0000   0.0000   0.0000   0.0000   0.0000   0.0000
     0.0000   0.0000   0.0000   0.0000

          k = 0.0000 0.1650 0.0000 (341287 PWs)   bands (ev):

   -48.7386 -48.7385 -48.7383 -48.7382 -48.7381 -48.7380 -48.7377 -48.7375
   -48.3661 -48.3656 -48.3651 -48.3650 -48.3645 -48.3644 -48.3641 -48.3640
   -48.1772 -48.1770 -48.1769 -48.1766 -48.1764 -48.1761 -48.1760 -48.1757
   -48.1715 -48.1690 -48.1684 -48.1680 -48.1654 -48.1641 -48.1635 -48.1631
   -48.1503 -48.1500 -48.1498 -48.1497 -48.1467 -48.1466 -48.1461 -48.1423
   -48.0751 -48.0740 -48.0739 -48.0736 -48.0735 -48.0734 -48.0731 -48.0724
    -5.0808  -4.7302  -4.1711  -3.9437  -3.7170  -3.7170  -3.5707  -3.5069
    -3.3406  -3.3406  -3.2635  -3.2634  -3.0370  -2.9654  -2.8823  -2.8822
    -2.7772  -2.7275  -2.7275  -2.6505  -2.2776  -2.2776  -2.2728  -1.9928
    -1.9810  -1.9810  -1.7673  -1.6249  -1.6076  -1.6075  -1.4054  -1.4053
    -1.2141  -1.1543  -1.1542  -1.1312  -0.9914  -0.9351  -0.9351  -0.7520
    -0.7519  -0.7191  -0.7147  -0.3338  -0.2272  -0.2272  -0.1340  -0.0669
    -0.0082  -0.0081   0.1038   0.1112   0.1655   0.1749   0.2729   0.4140
     0.4141   0.4201   0.4825   0.5203

     occupation numbers 
     1.0000   1.0000   1.0000   1.0000   1.0000   1.0000   1.0000   1.0000
     1.0000   1.0000   1.0000   1.0000   1.0000   1.0000   1.0000   1.0000
     1.0000   1.0000   1.0000   1.0000   1.0000   1.0000   1.0000   1.0000
     1.0000   1.0000   1.0000   1.0000   1.0000   1.0000   1.0000   1.0000
     1.0000   1.0000   1.0000   1.0000   1.0000   1.0000   1.0000   1.0000
     1.0000   1.0000   1.0000   1.0000   1.0000   1.0000   1.0000   1.0000
     1.0000   1.0000   1.0000   1.0000   1.0000   1.0000   1.0000   1.0000
     1.0000   1.0000   1.0000   1.0000   1.0000   1.0000   1.0000   1.0000
     1.0000   1.0000   1.0000   1.0000   1.0000   1.0000   1.0000   1.0110
     1.0145   1.0145   0.9603   0.2636   0.1990   0.1990   0.0008   0.0008
     0.0000   0.0000   0.0000   0.0000   0.0000   0.0000   0.0000   0.0000
     0.0000   0.0000   0.0000   0.0000   0.0000   0.0000   0.0000   0.0000
     0.0000   0.0000   0.0000   0.0000   0.0000   0.0000   0.0000   0.0000
     0.0000   0.0000   0.0000   0.0000

          k = 0.0000 0.3299 0.0000 (341325 PWs)   bands (ev):

   -48.7386 -48.7385 -48.7383 -48.7382 -48.7381 -48.7380 -48.7377 -48.7375
   -48.3661 -48.3656 -48.3651 -48.3650 -48.3645 -48.3644 -48.3641 -48.3640
   -48.1772 -48.1770 -48.1769 -48.1766 -48.1764 -48.1761 -48.1760 -48.1757
   -48.1711 -48.1693 -48.1684 -48.1682 -48.1652 -48.1642 -48.1635 -48.1632
   -48.1504 -48.1499 -48.1499 -48.1497 -48.1467 -48.1467 -48.1454 -48.1428
   -48.0751 -48.0740 -48.0738 -48.0736 -48.0735 -48.0734 -48.0731 -48.0724
    -4.9835  -4.6305  -4.3012  -4.0666  -3.9342  -3.8480  -3.8480  -3.4729
    -3.4729  -3.3969  -3.3410  -2.9477  -2.9477  -2.8632  -2.8632  -2.6690
    -2.6437  -2.5580  -2.5580  -2.4821  -2.1642  -2.1642  -2.1244  -1.8954
    -1.8953  -1.8949  -1.7543  -1.7543  -1.6690  -1.5257  -1.5255  -1.4863
    -1.3070  -1.3070  -1.0863  -1.0339  -1.0339  -0.9792  -0.8921  -0.7167
    -0.7166  -0.5988  -0.5875  -0.5263  -0.5070  -0.5068  -0.2472  -0.1931
    -0.0981  -0.0319  -0.0318  -0.0194   0.0639   0.2250   0.2260   0.2261
     0.2351   0.2914   0.2998   0.4198

     occupation numbers 
     1.0000   1.0000   1.0000   1.0000   1.0000   1.0000   1.0000   1.0000
     1.0000   1.0000   1.0000   1.0000   1.0000   1.0000   1.0000   1.0000
     1.0000   1.0000   1.0000   1.0000   1.0000   1.0000   1.0000   1.0000
     1.0000   1.0000   1.0000   1.0000   1.0000   1.0000   1.0000   1.0000
     1.0000   1.0000   1.0000   1.0000   1.0000   1.0000   1.0000   1.0000
     1.0000   1.0000   1.0000   1.0000   1.0000   1.0000   1.0000   1.0000
     1.0000   1.0000   1.0000   1.0000   1.0000   1.0000   1.0000   1.0000
     1.0000   1.0000   1.0000   1.0000   1.0000   1.0000   1.0000   1.0000
     1.0000   1.0000   1.0000   1.0000   1.0000   1.0000   1.0002   1.0627
     1.0627   1.0630   0.9122   0.9120   0.4739   0.0352   0.0351   0.0120
     0.0000   0.0000   0.0000   0.0000   0.0000   0.0000   0.0000   0.0000
     0.0000   0.0000   0.0000   0.0000   0.0000   0.0000   0.0000   0.0000
[...]
     atom   32 type  1   force =    -0.00008482    0.00035248   -3.48421433
     atom   33 type  1   force =     0.00000306    0.00026233   -8.54610306
     atom   34 type  1   force =     0.00000227    0.00005763   -5.72073913
     atom   35 type  1   force =    -0.00015028    0.00007032  -10.41986552
     atom   36 type  1   force =     0.00000365   -0.00150038   -1.31135739
     atom   37 type  1   force =    -0.00324095   -0.00039022    1.31349715
     atom   38 type  1   force =     0.00000249   -0.00039647   10.43248043
     atom   39 type  1   force =     0.00250523    0.00117696    5.72231301
     atom   40 type  1   force =    -0.00110020   -0.00058812    8.54875771
     atom   41 type  1   force =     0.00000307   -0.00145725    3.49080740
     atom   42 type  1   force =     0.00023506   -0.00130641   12.30755407
     atom   43 type  1   force =    -0.00163980   -0.00146741  -12.30139462
     atom   44 type  1   force =     0.00000307   -0.00117368   -3.48309224
     atom   45 type  1   force =     0.00168011   -0.00049987   -8.54138390
     atom   46 type  1   force =    -0.00287009    0.00063280   -5.72035395
     atom   47 type  1   force =     0.00000307    0.00014343  -10.41890651
     atom   48 type  1   force =     0.00268876    0.00006462   -1.30941372
     The core correction contribution to forces
     atom    1 type  1   force =     0.00000000    0.00000000    0.00000000
     atom    2 type  1   force =     0.00000000    0.00000000    0.00000000
     atom    3 type  1   force =     0.00000000    0.00000000    0.00000000
     atom    4 type  1   force =     0.00000000    0.00000000    0.00000000
     atom    5 type  1   force =     0.00000000    0.00000000    0.00000000
     atom    6 type  1   force =     0.00000000    0.00000000    0.00000000
     atom    7 type  1   force =     0.00000000    0.00000000    0.00000000
     atom    8 type  1   force =     0.00000000    0.00000000    0.00000000
     atom    9 type  1   force =     0.00000000    0.00000000    0.00000000
     atom   10 type  1   force =     0.00000000    0.00000000    0.00000000
     atom   11 type  1   force =     0.00000000    0.00000000    0.00000000
     atom   12 type  1   force =     0.00000000    0.00000000    0.00000000
     atom   13 type  1   force =     0.00000000    0.00000000    0.00000000
     atom   14 type  1   force =     0.00000000    0.00000000    0.00000000
     atom   15 type  1   force =     0.00000000    0.00000000    0.00000000
     atom   16 type  1   force =     0.00000000    0.00000000    0.00000000
     atom   17 type  1   force =     0.00000000    0.00000000    0.00000000
     atom   18 type  1   force =     0.00000000    0.00000000    0.00000000
     atom   19 type  1   force =     0.00000000    0.00000000    0.00000000
     atom   20 type  1   force =     0.00000000    0.00000000    0.00000000
     atom   21 type  1   force =     0.00000000    0.00000000    0.00000000
     atom   22 type  1   force =     0.00000000    0.00000000    0.00000000
     atom   23 type  1   force =     0.00000000    0.00000000    0.00000000
     atom   24 type  1   force =     0.00000000    0.00000000    0.00000000
     atom   25 type  1   force =     0.00000000    0.00000000    0.00000000
     atom   26 type  1   force =     0.00000000    0.00000000    0.00000000
     atom   27 type  1   force =     0.00000000    0.00000000    0.00000000
     atom   28 type  1   force =     0.00000000    0.00000000    0.00000000
     atom   29 type  1   force =     0.00000000    0.00000000    0.00000000
     atom   30 type  1   force =     0.00000000    0.00000000    0.00000000
     atom   31 type  1   force =     0.00000000    0.00000000    0.00000000
     atom   32 type  1   force =     0.00000000    0.00000000    0.00000000
     atom   33 type  1   force =     0.00000000    0.00000000    0.00000000
     atom   34 type  1   force =     0.00000000    0.00000000    0.00000000
     atom   35 type  1   force =     0.00000000    0.00000000    0.00000000
     atom   36 type  1   force =     0.00000000    0.00000000    0.00000000
     atom   37 type  1   force =     0.00000000    0.00000000    0.00000000
     atom   38 type  1   force =     0.00000000    0.00000000    0.00000000
     atom   39 type  1   force =     0.00000000    0.00000000    0.00000000
     atom   40 type  1   force =     0.00000000    0.00000000    0.00000000
     atom   41 type  1   force =     0.00000000    0.00000000    0.00000000
     atom   42 type  1   force =     0.00000000    0.00000000    0.00000000
     atom   43 type  1   force =     0.00000000    0.00000000    0.00000000
     atom   44 type  1   force =     0.00000000    0.00000000    0.00000000
     atom   45 type  1   force =     0.00000000    0.00000000    0.00000000
     atom   46 type  1   force =     0.00000000    0.00000000    0.00000000
     atom   47 type  1   force =     0.00000000    0.00000000    0.00000000
     atom   48 type  1   force =     0.00000000    0.00000000    0.00000000
     The Hubbard contrib.    to forces
     atom    1 type  1   force =     0.00000000    0.00000000    0.00000000
     atom    2 type  1   force =     0.00000000    0.00000000    0.00000000
     atom    3 type  1   force =     0.00000000    0.00000000    0.00000000
     atom    4 type  1   force =     0.00000000    0.00000000    0.00000000
     atom    5 type  1   force =     0.00000000    0.00000000    0.00000000
     atom    6 type  1   force =     0.00000000    0.00000000    0.00000000
     atom    7 type  1   force =     0.00000000    0.00000000    0.00000000
     atom    8 type  1   force =     0.00000000    0.00000000    0.00000000
     atom    9 type  1   force =     0.00000000    0.00000000    0.00000000
     atom   10 type  1   force =     0.00000000    0.00000000    0.00000000
     atom   11 type  1   force =     0.00000000    0.00000000    0.00000000
     atom   12 type  1   force =     0.00000000    0.00000000    0.00000000
     atom   13 type  1   force =     0.00000000    0.00000000    0.00000000
     atom   14 type  1   force =     0.00000000    0.00000000    0.00000000
     atom   15 type  1   force =     0.00000000    0.00000000    0.00000000
     atom   16 type  1   force =     0.00000000    0.00000000    0.00000000
     atom   17 type  1   force =     0.00000000    0.00000000    0.00000000
     atom   18 type  1   force =     0.00000000    0.00000000    0.00000000
     atom   19 type  1   force =     0.00000000    0.00000000    0.00000000
     atom   20 type  1   force =     0.00000000    0.00000000    0.00000000
     atom   21 type  1   force =     0.00000000    0.00000000    0.00000000
     atom   22 type  1   force =     0.00000000    0.00000000    0.00000000
     atom   23 type  1   force =     0.00000000    0.00000000    0.00000000
     atom   24 type  1   force =     0.00000000    0.00000000    0.00000000
     atom   25 type  1   force =     0.00000000    0.00000000    0.00000000
     atom   26 type  1   force =     0.00000000    0.00000000    0.00000000
     atom   27 type  1   force =     0.00000000    0.00000000    0.00000000
     atom   28 type  1   force =     0.00000000    0.00000000    0.00000000
     atom   29 type  1   force =     0.00000000    0.00000000    0.00000000
     atom   30 type  1   force =     0.00000000    0.00000000    0.00000000
     atom   31 type  1   force =     0.00000000    0.00000000    0.00000000
     atom   32 type  1   force =     0.00000000    0.00000000    0.00000000
     atom   33 type  1   force =     0.00000000    0.00000000    0.00000000
     atom   34 type  1   force =     0.00000000    0.00000000    0.00000000
     atom   35 type  1   force =     0.00000000    0.00000000    0.00000000
     atom   36 type  1   force =     0.00000000    0.00000000    0.00000000
     atom   37 type  1   force =     0.00000000    0.00000000    0.00000000
     atom   38 type  1   force =     0.00000000    0.00000000    0.00000000
     atom   39 type  1   force =     0.00000000    0.00000000    0.00000000
     atom   40 type  1   force =     0.00000000    0.00000000    0.00000000
     atom   41 type  1   force =     0.00000000    0.00000000    0.00000000
     atom   42 type  1   force =     0.00000000    0.00000000    0.00000000
     atom   43 type  1   force =     0.00000000    0.00000000    0.00000000
     atom   44 type  1   force =     0.00000000    0.00000000    0.00000000
     atom   45 type  1   force =     0.00000000    0.00000000    0.00000000
     atom   46 type  1   force =     0.00000000    0.00000000    0.00000000
     atom   47 type  1   force =     0.00000000    0.00000000    0.00000000
     atom   48 type  1   force =     0.00000000    0.00000000    0.00000000
     The SCF correction term to forces
     atom    1 type  1   force =     0.00000000    0.00000003   -0.00000022
     atom    2 type  1   force =    -0.00000005   -0.00000000   -0.00000066
     atom    3 type  1   force =     0.00000000   -0.00000002   -0.00000136
     atom    4 type  1   force =    -0.00000000    0.00000002    0.00000024
     atom    5 type  1   force =    -0.00000002    0.00000001   -0.00000087
     atom    6 type  1   force =    -0.00000000   -0.00000001   -0.00000098
     atom    7 type  1   force =    -0.00000000   -0.00000000    0.00000103
     atom    8 type  1   force =     0.00000001    0.00000002    0.00000083
     atom    9 type  1   force =     0.00000000   -0.00000002   -0.00000027
     atom   10 type  1   force =     0.00000000    0.00000003    0.00000131
     atom   11 type  1   force =     0.00000003    0.00000003    0.00000066
     atom   12 type  1   force =    -0.00000000   -0.00000002    0.00000019
     atom   13 type  1   force =    -0.00000005    0.00000000   -0.00000021
     atom   14 type  1   force =     0.00000000    0.00000002   -0.00000067
     atom   15 type  1   force =     0.00000002   -0.00000003   -0.00000132
     atom   16 type  1   force =    -0.00000005    0.00000000    0.00000023
     atom   17 type  1   force =     0.00000000    0.00000003   -0.00000090
     atom   18 type  1   force =    -0.00000000   -0.00000002   -0.00000096
     atom   19 type  1   force =     0.00000001   -0.00000000    0.00000098
     atom   20 type  1   force =    -0.00000000   -0.00000005    0.00000086
     atom   21 type  1   force =     0.00000006   -0.00000001   -0.00000025
     atom   22 type  1   force =    -0.00000002   -0.00000000    0.00000129
     atom   23 type  1   force =    -0.00000000   -0.00000006    0.00000068
     atom   24 type  1   force =     0.00000005   -0.00000001    0.00000018
     atom   25 type  1   force =     0.00000000   -0.00000004   -0.00000015
     atom   26 type  1   force =     0.00000005   -0.00000000   -0.00000066
     atom   27 type  1   force =     0.00000000    0.00000003   -0.00000130
     atom   28 type  1   force =    -0.00000000   -0.00000000    0.00000027
     atom   29 type  1   force =     0.00000002    0.00000001   -0.00000086
     atom   30 type  1   force =     0.00000000    0.00000006   -0.00000101
     atom   31 type  1   force =    -0.00000000   -0.00000002    0.00000102
     atom   32 type  1   force =    -0.00000001    0.00000002    0.00000083
     atom   33 type  1   force =     0.00000000    0.00000002   -0.00000029
     atom   34 type  1   force =     0.00000000    0.00000000    0.00000127
     atom   35 type  1   force =    -0.00000004    0.00000003    0.00000066
     atom   36 type  1   force =    -0.00000000    0.00000005    0.00000015
     atom   37 type  1   force =     0.00000005    0.00000000   -0.00000021
     atom   38 type  1   force =     0.00000000   -0.00000006   -0.00000060
     atom   39 type  1   force =    -0.00000002   -0.00000003   -0.00000133
     atom   40 type  1   force =     0.00000005    0.00000000    0.00000023
     atom   41 type  1   force =     0.00000000   -0.00000002   -0.00000084
     atom   42 type  1   force =    -0.00000000   -0.00000002   -0.00000096
     atom   43 type  1   force =    -0.00000001    0.00000000    0.00000099
     atom   44 type  1   force =     0.00000000   -0.00000001    0.00000079
     atom   45 type  1   force =    -0.00000006   -0.00000001   -0.00000025
     atom   46 type  1   force =     0.00000002    0.00000000    0.00000129
     atom   47 type  1   force =     0.00000000    0.00000004    0.00000060
     atom   48 type  1   force =    -0.00000005   -0.00000001    0.00000018

     Total force =     0.001804     Total SCF correction =     0.000006
     Energy error            =      2.9E-06 Ry
     Gradient error          =      3.1E-04 Ry/Bohr

     bfgs converged in  18 scf cycles and  17 bfgs steps
     (criteria: energy <  1.0E-05 Ry, force <  3.9E-04 Ry/Bohr)

     End of BFGS Geometry Optimization

     Final energy             =    -722.0404533867 Ry

     File ./Li/Lithium.bfgs deleted, as requested
Begin final coordinates

ATOMIC_POSITIONS (angstrom)
Li              -0.0000000100       -0.0005302248       25.0520049055
Li               2.4291361271        1.4025321100       21.2425153687
Li               4.8580444100        2.8053555730       23.1883788213
Li               0.0000000100        0.0000973243       22.0510700772
Li               2.4289290674        1.4024197718       24.1305469425
Li               4.8580445000        2.8055452795       20.2513777961
Li               0.0000000000       -0.0007745108       30.9556112778
Li               2.4291272780        1.4023615675       27.0764866209
Li               4.8580444100        2.8046925769       29.1560578804
Li              -0.0000000100       -0.0005378585       28.0186714976
Li               2.4289305098        1.4022608498       29.9644691663
Li               4.8580444200        2.8053201297       26.1550751478
Li               2.4298979662        4.2071605138       25.0526375546
Li               4.8580443900        5.6098185806       21.2437352718
Li               7.2860179032        7.0121853879       23.1876756390
Li               2.4290895461        4.2073598027       22.0512096687
Li               4.8580444100        5.6096005741       24.1311415268
Li               7.2859398224        7.0122598615       20.2508162923
Li               2.4301247973        4.2069572629       30.9561607353
Li               4.8580444000        5.6095664668       27.0758640042
Li               7.2870091514        7.0118286504       29.1557487479
Li               2.4300645220        4.2069531608       28.0193719972
Li               4.8580444000        5.6093714911       29.9632091850
Li               7.2861812324        7.0120147751       26.1543749818
Li               4.8580444000        0.0006747359       25.0530245711
Li               7.2869526929        1.4025320900       21.2425155187
Li               9.7160888200        2.8042994683       23.1873189749
Li               4.8580443900       -0.0000033274       22.0513509104
Li               7.2871597526        1.4024197718       24.1305470225
Li               9.7160887400        2.8040774699       20.2504207280
Li               4.8580444000        0.0006352364       30.9565322097
Li               7.2869615420        1.4023615675       27.0764866709
Li               9.7160888300        2.8047573018       29.1557784511
Li               4.8580444000        0.0005499829       28.0197267448
Li               7.2871583102        1.4022608398       29.9644692063
Li               9.7160888200        2.8041006204       26.1540749466
Li               7.2861908439        4.2071605238       25.0526375546
Li               9.7160888400        5.6097219571       21.2405349086
Li              12.1461597468        7.0121853979       23.1876756490
Li               7.2869992639        4.2073598227       22.0512096787
Li               9.7160888300        5.6097441750       24.1295709475
Li              12.1462378276        7.0122599715       20.2508163023
Li               7.2859640127        4.2069572729       30.9561607253
Li               9.7160888300        5.6094708066       27.0773814275
Li              12.1451684987        7.0118286504       29.1557487479
Li               7.2860242980        4.2069531608       28.0193719872
Li               9.7160888300        5.6094521009       29.9663206061
Li              12.1459964276        7.0120147851       26.1543749818
End final coordinates



     Writing all to output data dir ./Li/Lithium.save/ :
     XML data file
     init_run     :     28.10s CPU     36.27s WALL (       1 calls)
     electrons    :  14333.21s CPU  16658.66s WALL (      18 calls)
     update_pot   :      3.96s CPU      4.63s WALL (      17 calls)
     forces       :   1587.04s CPU   1647.56s WALL (      18 calls)

     Called by init_run:
     wfcinit      :      2.74s CPU      3.28s WALL (       1 calls)
     wfcinit:wfcr :      2.47s CPU      3.01s WALL (       8 calls)
     potinit      :      1.07s CPU      1.14s WALL (       1 calls)
     hinit0       :      7.92s CPU      8.92s WALL (       1 calls)

     Called by electrons:
     c_bands      :   7154.76s CPU   8389.72s WALL (     381 calls)
     sum_band     :    527.54s CPU    650.42s WALL (     381 calls)
     v_of_rho     :     67.22s CPU     78.60s WALL (     382 calls)
     v_h          :      5.24s CPU      6.33s WALL (     382 calls)
     v_xc         :     61.97s CPU     72.26s WALL (     382 calls)
     newd         :     30.97s CPU     41.28s WALL (     382 calls)
     PAW_pot      :      4.13s CPU      5.53s WALL (     399 calls)
     mix_rho      :    149.73s CPU    185.00s WALL (     381 calls)

     Called by c_bands:
     init_us_2    :    121.94s CPU    122.52s WALL (    6384 calls)
     cegterg      :   6802.41s CPU   7624.80s WALL (    3420 calls)

     Called by sum_band:
     sum_band:wei :      0.59s CPU      0.67s WALL (     381 calls)
     sum_band:loo :    471.71s CPU    558.95s WALL (     381 calls)
     sum_band:buf :     11.74s CPU     11.86s WALL (    3048 calls)
     sum_band:ini :     58.11s CPU     58.33s WALL (    3048 calls)
     sum_band:cal :     95.92s CPU    102.00s WALL (    3184 calls)
     sum_band:bec :      0.80s CPU      0.86s WALL (    3184 calls)
     addusdens    :     25.94s CPU     26.15s WALL (     381 calls)
                                        0.00s GPU  (     381 calls)
     addusd:skk   :      7.03s CPU      7.05s WALL (     381 calls)
                                        0.00s GPU  (     381 calls)

     Called by *egterg:
     cdiaghg      :   1845.09s CPU   1910.86s WALL (   42169 calls)
     cegterg:over :    463.76s CPU    499.88s WALL (   39098 calls)
     cegterg:upda :    381.73s CPU    384.68s WALL (   39098 calls)
     cegterg:last :    158.89s CPU    159.22s WALL (    4338 calls)
     h_psi        :   3357.97s CPU   4053.12s WALL (   42526 calls)
     s_psi        :    429.19s CPU    430.65s WALL (   42526 calls)
     g_psi        :      5.64s CPU      5.90s WALL (   39098 calls)

     Called by h_psi:
     h_psi:calbec :    522.21s CPU    562.21s WALL (   42526 calls)
     vloc_psi     :   2380.10s CPU   3031.19s WALL (   42526 calls)
                                        0.00s GPU  (   42526 calls)
     add_vuspsi   :    427.85s CPU    430.12s WALL (   42526 calls)

     General routines
     calbec       :    632.65s CPU    679.79s WALL (   46286 calls)
     fft          :     41.57s CPU     57.53s WALL (    5000 calls)
     ffts         :     71.41s CPU     94.49s WALL (   43321 calls)
     fftw         :   2498.21s CPU   3184.65s WALL ( 2936356 calls)
     interpolate  :      5.26s CPU      6.40s WALL (     382 calls)

     Parallel routines

     PAW routines
     PAW_pot      :      4.13s CPU      5.53s WALL (     399 calls)
     PAW_symme    :      0.17s CPU      0.22s WALL (     780 calls)

     Environ routines

     PWSCF        :      4h33m CPU      5h14m WALL


   This run was terminated on:   7:11:31  24Jan2025            

=------------------------------------------------------------------------------=
   JOB DONE.
=------------------------------------------------------------------------------=
