
     Program PWSCF v.7.4 starts on  1Jan2025 at 19:36:43 

     This program is part of the open-source Quantum ESPRESSO suite
     for quantum simulation of materials; please cite
         "P. Giannozzi et al., J. Phys.:Condens. Matter 21 395502 (2009);
         "P. Giannozzi et al., J. Phys.:Condens. Matter 29 465901 (2017);
         "P. Giannozzi et al., J. Chem. Phys. 152 154105 (2020);
          URL http://www.quantum-espresso.org", 
     in publications or presentations arising from this work. More details at
     http://www.quantum-espresso.org/quote

     Parallel version (MPI & OpenMP), running on     384 processor cores
     Number of MPI processes:               384
     Threads/MPI process:                     1

     MPI processes distributed on     3 nodes
     231095 MiB available memory on the printing compute node when the environment starts

     Reading input from espresso.pwi
Warning: card &CELL ignored
Warning: card    PRESS_CONV_THR   = 0.1 ignored
Warning: card    CELL_DOFREE      = 'ALL' ignored
Warning: card / ignored
Warning: card &FCP ignored
Warning: card / ignored
Warning: card &RISM ignored
Warning: card / ignored

     Current dimensions of program PWSCF are:
     Max number of different atomic species (ntypx) = 10
     Max number of k-points (npk) =  40000
     Max angular momentum in pseudopotentials (lmaxx) =  4

     IMPORTANT: XC functional enforced from input :
     Exchange-correlation= PBE
                           (   1   4   3   4   0   0   0)
     Any further DFT definition will be discarded
     Please, verify this is what you really want


     Reading input from environ.in:
     * using ionic solvent mode
     * setting boundary derivatives method to SSCS default
     * setting electrolyte-boundary derivatives method to SSCS default

Environ Warning (1001): card EOF ignored

     
     Found identity + (  0.5000 -0.0000 -0.0000) symmetry
     This is a supercell, fractional translations are disabled

     K-points division:     npool     =       2
     R & G space division:  proc/nbgrp/npool/nimage =     192
     Subspace diagonalization in iterative solution of the eigenvalue problem:
     a serial algorithm will be used


     Parallelization info
     --------------------
     sticks:   dense  smooth     PW     G-vecs:    dense   smooth      PW
     Min          62      25      6                33436     8439    1136
     Max          63      27      7                33505     8489    1207
     Sum       11999    4803   1285              6425037  1625491  225007

     Using Slab Decomposition



     bravais-lattice index     =            8
     lattice parameter (alat)  =      12.9830  a.u.
     unit-cell volume          =   16814.9384 (a.u.)^3
     number of atoms/cell      =           20
     number of atomic types    =            1
     number of electrons       =        60.00
     number of Kohn-Sham states=           45
     kinetic-energy cutoff     =      80.0000  Ry
     charge density cutoff     =     800.0000  Ry
     scf convergence threshold =      1.0E-06
     mixing beta               =       0.2000
     number of iterations used =            8  local-TF  mixing
     energy convergence thresh.=      1.0E-05
     force convergence thresh. =      3.9E-04
     Exchange-correlation= PBE
                           (   1   4   3   4   0   0   0)
     nstep                     =          999


     ================================================================================

                                  Environ Setup Summary

     ================================================================================

     Please cite

          O. Andreussi, I. Dabo and N. Marzari, J. Chem. Phys. 136, 064102 (2012)
          F. Nattino, M. Truscott, N. Marzari, and O. Andreussi, J. Chem. Phys. 150, 041722 (2019)

     in publications or presentations arising from this work.

     ================================================================================

     Parameters
     ==========

     compensation onset threshold      =               0.1000E+00
     static permittivity               =                    89.90
     surface tension in input (dyn/cm) =                    37.30
     surface tension in internal units =               0.4792E-04

     Solvent Boundary
     ================

     solvent mode                      =                    ionic
     derivatives method                =                   lowmem
     electrolyte derivatives method    =                   lowmem
     numerical core for derivatives    =                      fft
     switching function adopted        =                     SCCS
     density limit for vacuum region   =               0.5000E-02
     density limit for bulk solvent    =               0.1000E-03
     soft-sphere radius mode           =                    bondi
     soft-sphere softness              =                     0.50
     alpha                             =                     1.32

     Electrostatic Setup
     ===================

     electrostatic problem to solve    =                    modpb
     numerical solver adopted          =                   newton
     type of auxiliary density adopted =                     none
     numerical core for poisson        =                      fft
     adopting a nested solver scheme
     inner solver                      =                       cg
     inner core                        =                      fft
     type of pbc corrections           =                parabolic
     numerical core for corrections    =                      1da

     ================================================================================


     >>>>> Grand-Canonical SCF is activated <<<<<
     Initial Total Charge  =     0.000000 e
     Target Fermi Energy   =    -3.404000 eV
     Thr. of Fermi Energy  =     0.001000 eV
     Wave-shift of Kerker  =     0.400000 bohr^-1
     Wave-shift of Hartree =     1.500000 bohr^-1
     Mixing Rate of Fermi  =     0.050000

     celldm(1)=  12.983009  celldm(2)=   1.118034  celldm(3)=   6.872491
     celldm(4)=   0.000000  celldm(5)=   0.000000  celldm(6)=   0.000000

     crystal axes: (cart. coord. in units of alat)
               a(1) = (   1.000000   0.000000   0.000000 )  
               a(2) = (   0.000000   1.118034   0.000000 )  
               a(3) = (   0.000000   0.000000   6.872491 )  

     reciprocal axes: (cart. coord. in units 2 pi/alat)
               b(1) = (  1.000000  0.000000  0.000000 )  
               b(2) = (  0.000000  0.894427  0.000000 )  
               b(3) = (  0.000000  0.000000  0.145508 )  


     PseudoPot. # 1 for Li read from file:
     /work/e89/e89/ba3g18/Repos/Pseudopotentials/Pslibrary/Li.pbe-sl-kjpaw_psl.1.0.0.UPF
     MD5 check sum: 3f4d2cafebb47c6c3aa8ed472e6f074d
     Pseudo is Projector augmented-wave, Zval =  3.0
     Generated using 'atomic' code by A. Dal Corso  v.7.4
     Shape of augmentation charge: PSQ
     Using radial grid of 1017 points,  4 beta functions with: 
                l(1) =   0
                l(2) =   0
                l(3) =   1
                l(4) =   1
     Q(r) pseudized with 0 coefficients 


     atomic species   valence    mass     pseudopotential
     Li                3.00     6.94000     Li( 1.00)

      2 Sym. Ops. (no inversion) found


                                    s                        frac. trans.

      isym =  1     identity                                     

 cryst.   s( 1) = (     1          0          0      )
                  (     0          1          0      )
                  (     0          0          1      )

 cart.    s( 1) = (  1.0000000  0.0000000  0.0000000 )
                  (  0.0000000  1.0000000  0.0000000 )
                  (  0.0000000  0.0000000  1.0000000 )


      isym =  2     inv. 180 deg rotation - cart. axis [1,0,0]   

 cryst.   s( 2) = (    -1          0          0      )
                  (     0          1          0      )
                  (     0          0          1      )

 cart.    s( 2) = ( -1.0000000  0.0000000  0.0000000 )
                  (  0.0000000  1.0000000  0.0000000 )
                  (  0.0000000  0.0000000  1.0000000 )


     point group C_s (m)    
     there are  2 classes
     the character table:

       E     s    
A'     1.00  1.00
A''    1.00 -1.00

     the symmetry operations in each class and the name of the first element:

     E        1
          identity                                               
     s        2
          inv. 180 deg rotation - cart. axis [1,0,0]             

   Cartesian axes

     site n.     atom                  positions (alat units)
         1        Li     tau(   1) = (  -0.0000000   0.4547292   3.7086617  )
         2        Li     tau(   2) = (  -0.0000000   0.8914138   3.4987125  )
         3        Li     tau(   3) = (  -0.0000000   0.2262358   3.2707670  )
         4        Li     tau(   4) = (  -0.0000000   0.6419492   3.0386306  )
         5        Li     tau(   5) = (  -0.0000000   0.0704740   3.9477550  )
         6        Li     tau(   6) = (   0.2500000   0.5620329   3.3737787  )
         7        Li     tau(   7) = (   0.2499999   0.9987150   3.1638288  )
         8        Li     tau(   8) = (   0.2499999   0.2649328   2.9247322  )
         9        Li     tau(   9) = (   0.2500000   0.8114931   3.8338586  )
        10        Li     tau(  10) = (   0.2500002   0.1091766   3.6017224  )
        11        Li     tau(  11) = (   0.5000000   0.4547291   3.7086616  )
        12        Li     tau(  12) = (   0.5000000   0.8914136   3.4987123  )
        13        Li     tau(  13) = (   0.5000000   0.2262357   3.2707668  )
        14        Li     tau(  14) = (   0.5000000   0.6419493   3.0386301  )
        15        Li     tau(  15) = (   0.5000000   0.0704745   3.9477556  )
        16        Li     tau(  16) = (   0.7500000   0.5620329   3.3737787  )
        17        Li     tau(  17) = (   0.7500001   0.9987150   3.1638288  )
        18        Li     tau(  18) = (   0.7500000   0.2649328   2.9247322  )
        19        Li     tau(  19) = (   0.7499999   0.8114931   3.8338586  )
        20        Li     tau(  20) = (   0.7499998   0.1091766   3.6017224  )

   Crystallographic axes

     site n.     atom                  positions (cryst. coord.)
         1        Li     tau(   1) = ( -0.0000000  0.4067222  0.5396386  )
         2        Li     tau(   2) = ( -0.0000000  0.7973048  0.5090894  )
         3        Li     tau(   3) = ( -0.0000000  0.2023515  0.4759216  )
         4        Li     tau(   4) = ( -0.0000000  0.5741768  0.4421440  )
         5        Li     tau(   5) = ( -0.0000000  0.0630339  0.5744285  )
         6        Li     tau(   6) = (  0.2500000  0.5026975  0.4909106  )
         7        Li     tau(   7) = (  0.2499999  0.8932778  0.4603613  )
         8        Li     tau(   8) = (  0.2499999  0.2369631  0.4255709  )
         9        Li     tau(   9) = (  0.2500000  0.7258215  0.5578557  )
        10        Li     tau(  10) = (  0.2500002  0.0976505  0.5240781  )
        11        Li     tau(  11) = (  0.5000000  0.4067221  0.5396386  )
        12        Li     tau(  12) = (  0.5000000  0.7973046  0.5090894  )
        13        Li     tau(  13) = (  0.5000000  0.2023514  0.4759216  )
        14        Li     tau(  14) = (  0.5000000  0.5741769  0.4421439  )
        15        Li     tau(  15) = (  0.5000000  0.0630343  0.5744286  )
        16        Li     tau(  16) = (  0.7500000  0.5026975  0.4909106  )
        17        Li     tau(  17) = (  0.7500001  0.8932778  0.4603613  )
        18        Li     tau(  18) = (  0.7500000  0.2369631  0.4255709  )
        19        Li     tau(  19) = (  0.7499999  0.7258215  0.5578557  )
        20        Li     tau(  20) = (  0.7499998  0.0976505  0.5240781  )

     number of k points=    30  Marzari-Vanderbilt smearing, width (Ry)=  0.0100
                       cart. coord. in units 2pi/alat
        k(    1) = (   0.0000000   0.0000000   0.0000000), wk =   0.0222222
        k(    2) = (   0.0000000   0.0993808   0.0000000), wk =   0.0444444
        k(    3) = (   0.0000000   0.1987616   0.0000000), wk =   0.0444444
        k(    4) = (   0.0000000   0.2981424   0.0000000), wk =   0.0444444
        k(    5) = (   0.0000000   0.3975232   0.0000000), wk =   0.0444444
        k(    6) = (   0.1000000   0.0000000   0.0000000), wk =   0.0444444
        k(    7) = (   0.1000000   0.0993808   0.0000000), wk =   0.0888889
        k(    8) = (   0.1000000   0.1987616   0.0000000), wk =   0.0888889
        k(    9) = (   0.1000000   0.2981424   0.0000000), wk =   0.0888889
        k(   10) = (   0.1000000   0.3975232   0.0000000), wk =   0.0888889
        k(   11) = (   0.2000000   0.0000000   0.0000000), wk =   0.0444444
        k(   12) = (   0.2000000   0.0993808   0.0000000), wk =   0.0888889
        k(   13) = (   0.2000000   0.1987616   0.0000000), wk =   0.0888889
        k(   14) = (   0.2000000   0.2981424   0.0000000), wk =   0.0888889
        k(   15) = (   0.2000000   0.3975232   0.0000000), wk =   0.0888889
        k(   16) = (   0.3000000   0.0000000   0.0000000), wk =   0.0444444
        k(   17) = (   0.3000000   0.0993808   0.0000000), wk =   0.0888889
        k(   18) = (   0.3000000   0.1987616   0.0000000), wk =   0.0888889
        k(   19) = (   0.3000000   0.2981424   0.0000000), wk =   0.0888889
        k(   20) = (   0.3000000   0.3975232   0.0000000), wk =   0.0888889
        k(   21) = (   0.4000000   0.0000000   0.0000000), wk =   0.0444444
        k(   22) = (   0.4000000   0.0993808   0.0000000), wk =   0.0888889
        k(   23) = (   0.4000000   0.1987616   0.0000000), wk =   0.0888889
        k(   24) = (   0.4000000   0.2981424   0.0000000), wk =   0.0888889
        k(   25) = (   0.4000000   0.3975232   0.0000000), wk =   0.0888889
        k(   26) = (  -0.5000000   0.0000000   0.0000000), wk =   0.0222222
        k(   27) = (  -0.5000000   0.0993808   0.0000000), wk =   0.0444444
        k(   28) = (  -0.5000000   0.1987616   0.0000000), wk =   0.0444444
        k(   29) = (  -0.5000000   0.2981424   0.0000000), wk =   0.0444444
        k(   30) = (  -0.5000000   0.3975232   0.0000000), wk =   0.0444444

                       cryst. coord.
        k(    1) = (   0.0000000   0.0000000   0.0000000), wk =   0.0222222
        k(    2) = (   0.0000000   0.1111111   0.0000000), wk =   0.0444444
        k(    3) = (   0.0000000   0.2222222   0.0000000), wk =   0.0444444
        k(    4) = (   0.0000000   0.3333333   0.0000000), wk =   0.0444444
        k(    5) = (   0.0000000   0.4444444   0.0000000), wk =   0.0444444
        k(    6) = (   0.1000000   0.0000000   0.0000000), wk =   0.0444444
        k(    7) = (   0.1000000   0.1111111   0.0000000), wk =   0.0888889
        k(    8) = (   0.1000000   0.2222222   0.0000000), wk =   0.0888889
        k(    9) = (   0.1000000   0.3333333   0.0000000), wk =   0.0888889
        k(   10) = (   0.1000000   0.4444444   0.0000000), wk =   0.0888889
        k(   11) = (   0.2000000   0.0000000   0.0000000), wk =   0.0444444
        k(   12) = (   0.2000000   0.1111111   0.0000000), wk =   0.0888889
        k(   13) = (   0.2000000   0.2222222   0.0000000), wk =   0.0888889
        k(   14) = (   0.2000000   0.3333333   0.0000000), wk =   0.0888889
        k(   15) = (   0.2000000   0.4444444   0.0000000), wk =   0.0888889
        k(   16) = (   0.3000000   0.0000000   0.0000000), wk =   0.0444444
        k(   17) = (   0.3000000   0.1111111   0.0000000), wk =   0.0888889
        k(   18) = (   0.3000000   0.2222222   0.0000000), wk =   0.0888889
        k(   19) = (   0.3000000   0.3333333   0.0000000), wk =   0.0888889
        k(   20) = (   0.3000000   0.4444444   0.0000000), wk =   0.0888889
        k(   21) = (   0.4000000   0.0000000   0.0000000), wk =   0.0444444
        k(   22) = (   0.4000000   0.1111111   0.0000000), wk =   0.0888889
        k(   23) = (   0.4000000   0.2222222   0.0000000), wk =   0.0888889
        k(   24) = (   0.4000000   0.3333333   0.0000000), wk =   0.0888889
        k(   25) = (   0.4000000   0.4444444   0.0000000), wk =   0.0888889
        k(   26) = (  -0.5000000   0.0000000   0.0000000), wk =   0.0222222
        k(   27) = (  -0.5000000   0.1111111   0.0000000), wk =   0.0444444
        k(   28) = (  -0.5000000   0.2222222   0.0000000), wk =   0.0444444
        k(   29) = (  -0.5000000   0.3333333   0.0000000), wk =   0.0444444
        k(   30) = (  -0.5000000   0.4444444   0.0000000), wk =   0.0444444

     Dense  grid:  6425037 G-vectors     FFT dimensions: ( 120, 135, 810)

     Smooth grid:  1625491 G-vectors     FFT dimensions: (  75,  90, 512)

     Dynamical RAM for                 wfc:       0.73 MB

     Dynamical RAM for     wfc (w. buffer):      11.62 MB

     Dynamical RAM for           str. fact:       0.51 MB

     Dynamical RAM for           local pot:       0.00 MB

     Dynamical RAM for          nlocal pot:       2.58 MB

     Dynamical RAM for                qrad:       0.65 MB

     Dynamical RAM for          rho,v,vnew:       3.38 MB

     Dynamical RAM for               rhoin:       1.13 MB

     Dynamical RAM for            rho*nmix:       8.16 MB

     Dynamical RAM for           G-vectors:       1.98 MB

     Dynamical RAM for          h,s,v(r/c):       1.48 MB

     Dynamical RAM for          <psi|beta>:       0.11 MB

     Dynamical RAM for                 psi:       2.91 MB

     Dynamical RAM for                hpsi:       2.91 MB

     Dynamical RAM for                spsi:       2.91 MB

     Dynamical RAM for      wfcinit/wfcrot:       1.50 MB

     Dynamical RAM for           addusdens:      16.33 MB

     Dynamical RAM for          addusforce:      26.04 MB

     Estimated static dynamical RAM per process >      25.97 MB

     Estimated max dynamical RAM per process >      98.04 MB

     Estimated total dynamical RAM >      21.03 GB

     Initial potential from superposition of free atoms

     starting charge      59.9078, renormalised to      60.0000

     negative rho (up, down):  2.789E-03 0.000E+00
     Starting wfcs are random
     Checking if some PAW data can be deallocated... 

     total cpu time spent up to now is       21.3 secs

     Self-consistent Calculation

     iteration #  1     ecut=    80.00 Ry     beta= 0.20
     Davidson diagonalization with overlap

---- Real-time Memory Report at c_bands before calling an iterative solver
           367 MiB given to the printing process from OS
             0 MiB allocation reported by mallinfo(arena+hblkhd)
        216458 MiB available memory on the node where the printing process lives
------------------
     c_bands:  1 eigenvalues not converged
     ethr =  1.00E-12,  avg # of iterations =105.2

     negative rho (up, down):  2.034E-03 0.000E+00

     total cpu time spent up to now is       98.2 secs

     total energy              =    -300.74078999 Ry
     estimated scf accuracy    <       0.10292223 Ry

     total charge of GC-SCF    =       0.05052645 e
     the Fermi energy          =      -4.68211157 eV
                        (error :       1.27811157 eV)
     electrostatic embedding   =       0.00000000 Ry
     cavitation energy         =       0.02212806 Ry
     electrolyte free energy   =       0.00723736 Ry
     correction to one-el term =      -0.00000000 Ry

     iteration #  2     ecut=    80.00 Ry     beta= 0.20
     Davidson diagonalization with overlap

---- Real-time Memory Report at c_bands before calling an iterative solver
           367 MiB given to the printing process from OS
             0 MiB allocation reported by mallinfo(arena+hblkhd)
        216502 MiB available memory on the node where the printing process lives
------------------
     ethr =  1.00E-05,  avg # of iterations =  8.6

     negative rho (up, down):  1.450E-03 0.000E+00

     add environment contribution to local potential

     total cpu time spent up to now is      111.6 secs

     total energy              =    -300.56403074 Ry
     estimated scf accuracy    <       0.04086229 Ry

     total charge of GC-SCF    =       0.12213402 e
     the Fermi energy          =      -4.26274562 eV
                        (error :       0.85874562 eV)
     electrostatic embedding   =       0.00028320 Ry
     cavitation energy         =       0.02212806 Ry
     electrolyte free energy   =       0.00723736 Ry
     correction to one-el term =      -0.00000000 Ry

     iteration #  3     ecut=    80.00 Ry     beta= 0.20
     Davidson diagonalization with overlap

---- Real-time Memory Report at c_bands before calling an iterative solver
           367 MiB given to the printing process from OS
             0 MiB allocation reported by mallinfo(arena+hblkhd)
        216575 MiB available memory on the node where the printing process lives
------------------
     ethr =  1.00E-05,  avg # of iterations = 17.5

     negative rho (up, down):  1.216E-03 0.000E+00

     add environment contribution to local potential

     total cpu time spent up to now is      130.5 secs

     total energy              =    -300.64021651 Ry
     estimated scf accuracy    <       0.00958738 Ry

     total charge of GC-SCF    =       0.12104076 e
     the Fermi energy          =      -2.91169388 eV
                        (error :       0.49230612 eV)
     electrostatic embedding   =      -0.02518430 Ry
     cavitation energy         =       0.02212806 Ry
     electrolyte free energy   =      -0.00254857 Ry
     correction to one-el term =      -4.13330828 Ry

     iteration #  4     ecut=    80.00 Ry     beta= 0.20
     Davidson diagonalization with overlap

---- Real-time Memory Report at c_bands before calling an iterative solver
           367 MiB given to the printing process from OS
             0 MiB allocation reported by mallinfo(arena+hblkhd)
        216674 MiB available memory on the node where the printing process lives
------------------
     ethr =  1.00E-05,  avg # of iterations =  8.5

     negative rho (up, down):  9.795E-04 0.000E+00

     add environment contribution to local potential

     total cpu time spent up to now is      143.6 secs

     total energy              =    -300.63444927 Ry
     estimated scf accuracy    <       0.00863599 Ry

     total charge of GC-SCF    =       0.23231277 e
     the Fermi energy          =      -3.30326107 eV
                        (error :       0.10073893 eV)
     electrostatic embedding   =      -0.02522677 Ry
     cavitation energy         =       0.02212806 Ry
     electrolyte free energy   =      -0.00351905 Ry
     correction to one-el term =      -3.79628775 Ry

     iteration #  5     ecut=    80.00 Ry     beta= 0.20
     Davidson diagonalization with overlap

---- Real-time Memory Report at c_bands before calling an iterative solver
           367 MiB given to the printing process from OS
             0 MiB allocation reported by mallinfo(arena+hblkhd)
        216750 MiB available memory on the node where the printing process lives
------------------
     ethr =  1.00E-05,  avg # of iterations =  9.4

     negative rho (up, down):  8.176E-04 0.000E+00

     add environment contribution to local potential

     total cpu time spent up to now is      156.3 secs

     total energy              =    -300.64751473 Ry
     estimated scf accuracy    <       0.00168078 Ry

     total charge of GC-SCF    =       0.33393922 e
     the Fermi energy          =      -2.99427918 eV
                        (error :       0.40972082 eV)
     electrostatic embedding   =      -0.03176359 Ry
     cavitation energy         =       0.02212806 Ry
     electrolyte free energy   =      -0.00251941 Ry
     correction to one-el term =      -5.94420652 Ry

     iteration #  6     ecut=    80.00 Ry     beta= 0.20
     Davidson diagonalization with overlap

---- Real-time Memory Report at c_bands before calling an iterative solver
           367 MiB given to the printing process from OS
             0 MiB allocation reported by mallinfo(arena+hblkhd)
        216801 MiB available memory on the node where the printing process lives
------------------
     ethr =  2.82E-06,  avg # of iterations = 14.7

     negative rho (up, down):  7.166E-04 0.000E+00

     add environment contribution to local potential

     total cpu time spent up to now is      171.5 secs

     total energy              =    -300.66727744 Ry
     estimated scf accuracy    <       0.00143361 Ry

     total charge of GC-SCF    =       0.45657874 e
     the Fermi energy          =      -2.74515651 eV
                        (error :       0.65884349 eV)
     electrostatic embedding   =      -0.04413026 Ry
     cavitation energy         =       0.02212806 Ry
     electrolyte free energy   =      -0.00195357 Ry
     correction to one-el term =      -7.87797615 Ry

     iteration #  7     ecut=    80.00 Ry     beta= 0.20
     Davidson diagonalization with overlap

---- Real-time Memory Report at c_bands before calling an iterative solver
           367 MiB given to the printing process from OS
             0 MiB allocation reported by mallinfo(arena+hblkhd)
        216838 MiB available memory on the node where the printing process lives
------------------
     ethr =  2.41E-06,  avg # of iterations = 14.1

     negative rho (up, down):  6.349E-04 0.000E+00

     add environment contribution to local potential

     total cpu time spent up to now is      186.8 secs

     total energy              =    -300.67438814 Ry
     estimated scf accuracy    <       0.00174764 Ry

     total charge of GC-SCF    =       0.48613990 e
     the Fermi energy          =      -2.70545780 eV
                        (error :       0.69854220 eV)
     electrostatic embedding   =      -0.06523427 Ry
     cavitation energy         =       0.02212806 Ry
     electrolyte free energy   =      -0.00207602 Ry
     correction to one-el term =     -10.26926394 Ry

     iteration #  8     ecut=    80.00 Ry     beta= 0.20
     Davidson diagonalization with overlap

---- Real-time Memory Report at c_bands before calling an iterative solver
           367 MiB given to the printing process from OS
             0 MiB allocation reported by mallinfo(arena+hblkhd)
        216844 MiB available memory on the node where the printing process lives
------------------
     ethr =  2.41E-06,  avg # of iterations =  6.2

     negative rho (up, down):  6.113E-04 0.000E+00

     add environment contribution to local potential

     total cpu time spent up to now is      197.6 secs

     total energy              =    -300.66274991 Ry
     estimated scf accuracy    <       0.00103240 Ry

     total charge of GC-SCF    =       0.55999977 e
     the Fermi energy          =      -2.76143568 eV
                        (error :       0.64256432 eV)
     electrostatic embedding   =      -0.07037288 Ry
     cavitation energy         =       0.02212806 Ry
     electrolyte free energy   =      -0.00220584 Ry
     correction to one-el term =     -11.07502138 Ry

     iteration #  9     ecut=    80.00 Ry     beta= 0.20
     Davidson diagonalization with overlap

---- Real-time Memory Report at c_bands before calling an iterative solver
           367 MiB given to the printing process from OS
             0 MiB allocation reported by mallinfo(arena+hblkhd)
        216832 MiB available memory on the node where the printing process lives
------------------
     ethr =  1.74E-06,  avg # of iterations =  9.4

     negative rho (up, down):  5.728E-04 0.000E+00

     add environment contribution to local potential

     total cpu time spent up to now is      210.4 secs

     total energy              =    -300.66847191 Ry
     estimated scf accuracy    <       0.00023755 Ry

     total charge of GC-SCF    =       0.65669467 e
     the Fermi energy          =      -2.88894616 eV
                        (error :       0.51505384 eV)
     electrostatic embedding   =      -0.08488292 Ry
     cavitation energy         =       0.02212806 Ry
     electrolyte free energy   =      -0.00264841 Ry
     correction to one-el term =     -13.34528457 Ry

     iteration # 10     ecut=    80.00 Ry     beta= 0.20
     Davidson diagonalization with overlap

---- Real-time Memory Report at c_bands before calling an iterative solver
           367 MiB given to the printing process from OS
             0 MiB allocation reported by mallinfo(arena+hblkhd)
        216813 MiB available memory on the node where the printing process lives
------------------
     ethr =  4.00E-07,  avg # of iterations = 11.6

     negative rho (up, down):  5.622E-04 0.000E+00

     add environment contribution to local potential

     total cpu time spent up to now is      225.6 secs

     total energy              =    -300.67256931 Ry
     estimated scf accuracy    <       0.00109022 Ry

     total charge of GC-SCF    =       0.69944148 e
     the Fermi energy          =      -2.83359337 eV
                        (error :       0.57040663 eV)
     electrostatic embedding   =      -0.10974880 Ry
     cavitation energy         =       0.02212806 Ry
     electrolyte free energy   =      -0.00276468 Ry
     correction to one-el term =     -15.99208344 Ry

     iteration # 11     ecut=    80.00 Ry     beta= 0.20
     Davidson diagonalization with overlap

---- Real-time Memory Report at c_bands before calling an iterative solver
           367 MiB given to the printing process from OS
             0 MiB allocation reported by mallinfo(arena+hblkhd)
        216825 MiB available memory on the node where the printing process lives
------------------
     ethr =  4.00E-07,  avg # of iterations = 10.4

     negative rho (up, down):  4.977E-04 0.000E+00

     add environment contribution to local potential

     total cpu time spent up to now is      239.3 secs

     total energy              =    -300.66885085 Ry
     estimated scf accuracy    <       0.00039496 Ry

     total charge of GC-SCF    =       0.75713481 e
     the Fermi energy          =      -2.92401131 eV
                        (error :       0.47998869 eV)
     electrostatic embedding   =      -0.12084993 Ry
     cavitation energy         =       0.02212806 Ry
     electrolyte free energy   =      -0.00309352 Ry
     correction to one-el term =     -17.35900917 Ry

     iteration # 12     ecut=    80.00 Ry     beta= 0.20
     Davidson diagonalization with overlap

---- Real-time Memory Report at c_bands before calling an iterative solver
           367 MiB given to the printing process from OS
             0 MiB allocation reported by mallinfo(arena+hblkhd)
        216853 MiB available memory on the node where the printing process lives
------------------
     ethr =  4.00E-07,  avg # of iterations = 14.9

     negative rho (up, down):  4.097E-04 0.000E+00

     add environment contribution to local potential

     total cpu time spent up to now is      255.3 secs

     total energy              =    -300.67021308 Ry
     estimated scf accuracy    <       0.00005941 Ry

     total charge of GC-SCF    =       0.90807598 e
     the Fermi energy          =      -3.04933496 eV
                        (error :       0.35466504 eV)
     electrostatic embedding   =      -0.13784037 Ry
     cavitation energy         =       0.02212806 Ry
     electrolyte free energy   =      -0.00363054 Ry
     correction to one-el term =     -19.40040431 Ry

     iteration # 13     ecut=    80.00 Ry     beta= 0.20
     Davidson diagonalization with overlap

---- Real-time Memory Report at c_bands before calling an iterative solver
           367 MiB given to the printing process from OS
             0 MiB allocation reported by mallinfo(arena+hblkhd)
        216855 MiB available memory on the node where the printing process lives
------------------
     ethr =  1.01E-07,  avg # of iterations = 17.8

     negative rho (up, down):  3.834E-04 0.000E+00

     add environment contribution to local potential

     total cpu time spent up to now is      273.0 secs

     total energy              =    -300.67638490 Ry
     estimated scf accuracy    <       0.00003732 Ry

     total charge of GC-SCF    =       0.97481986 e
     the Fermi energy          =      -3.10654904 eV
                        (error :       0.29745096 eV)
     electrostatic embedding   =      -0.19282775 Ry
     cavitation energy         =       0.02212806 Ry
     electrolyte free energy   =      -0.00427844 Ry
     correction to one-el term =     -23.92429447 Ry

     iteration # 14     ecut=    80.00 Ry     beta= 0.20
     Davidson diagonalization with overlap

---- Real-time Memory Report at c_bands before calling an iterative solver
           367 MiB given to the printing process from OS
             0 MiB allocation reported by mallinfo(arena+hblkhd)
        216858 MiB available memory on the node where the printing process lives
------------------
     ethr =  6.32E-08,  avg # of iterations = 13.0

     negative rho (up, down):  3.623E-04 0.000E+00

     add environment contribution to local potential

     total cpu time spent up to now is      288.4 secs

     total energy              =    -300.67727207 Ry
     estimated scf accuracy    <       0.00002189 Ry

     total charge of GC-SCF    =       1.08205835 e
     the Fermi energy          =      -3.14530497 eV
                        (error :       0.25869503 eV)
     electrostatic embedding   =      -0.22003482 Ry
     cavitation energy         =       0.02212806 Ry
     electrolyte free energy   =      -0.00461077 Ry
     correction to one-el term =     -25.77855840 Ry

     iteration # 15     ecut=    80.00 Ry     beta= 0.20
     Davidson diagonalization with overlap

---- Real-time Memory Report at c_bands before calling an iterative solver
           367 MiB given to the printing process from OS
             0 MiB allocation reported by mallinfo(arena+hblkhd)
        216861 MiB available memory on the node where the printing process lives
------------------
     ethr =  3.71E-08,  avg # of iterations = 17.2

     negative rho (up, down):  3.487E-04 0.000E+00

     add environment contribution to local potential

     total cpu time spent up to now is      305.2 secs

     total energy              =    -300.68014822 Ry
     estimated scf accuracy    <       0.00003146 Ry

     total charge of GC-SCF    =       1.15229029 e
     the Fermi energy          =      -3.20284432 eV
                        (error :       0.20115568 eV)
     electrostatic embedding   =      -0.26812995 Ry
     cavitation energy         =       0.02212806 Ry
     electrolyte free energy   =      -0.00518523 Ry
     correction to one-el term =     -28.80244378 Ry

     iteration # 16     ecut=    80.00 Ry     beta= 0.20
     Davidson diagonalization with overlap

---- Real-time Memory Report at c_bands before calling an iterative solver
           367 MiB given to the printing process from OS
             0 MiB allocation reported by mallinfo(arena+hblkhd)
        216858 MiB available memory on the node where the printing process lives
------------------
     ethr =  3.71E-08,  avg # of iterations = 16.7

     negative rho (up, down):  3.421E-04 0.000E+00

     add environment contribution to local potential

     total cpu time spent up to now is      322.3 secs

     total energy              =    -300.68125058 Ry
     estimated scf accuracy    <       0.00001538 Ry

     total charge of GC-SCF    =       1.22008466 e
     the Fermi energy          =      -3.21669655 eV
                        (error :       0.18730345 eV)
     electrostatic embedding   =      -0.30208601 Ry
     cavitation energy         =       0.02212806 Ry
     electrolyte free energy   =      -0.00550227 Ry
     correction to one-el term =     -30.68459536 Ry

     iteration # 17     ecut=    80.00 Ry     beta= 0.20
     Davidson diagonalization with overlap

---- Real-time Memory Report at c_bands before calling an iterative solver
           367 MiB given to the printing process from OS
             0 MiB allocation reported by mallinfo(arena+hblkhd)
        216864 MiB available memory on the node where the printing process lives
------------------
     ethr =  2.62E-08,  avg # of iterations = 17.8

     negative rho (up, down):  4.232E-04 0.000E+00

     add environment contribution to local potential

     total cpu time spent up to now is      339.6 secs

     total energy              =    -300.69353688 Ry
     estimated scf accuracy    <       0.00001059 Ry

     total charge of GC-SCF    =       1.51452007 e
     the Fermi energy          =      -3.24162265 eV
                        (error :       0.16237735 eV)
     electrostatic embedding   =      -0.33787924 Ry
     cavitation energy         =       0.02212806 Ry
     electrolyte free energy   =      -0.00587268 Ry
     correction to one-el term =     -32.54318106 Ry

     iteration # 18     ecut=    80.00 Ry     beta= 0.20
     Davidson diagonalization with overlap

---- Real-time Memory Report at c_bands before calling an iterative solver
           367 MiB given to the printing process from OS
             0 MiB allocation reported by mallinfo(arena+hblkhd)
        216863 MiB available memory on the node where the printing process lives
------------------
     ethr =  1.81E-08,  avg # of iterations = 28.4

     negative rho (up, down):  3.830E-04 0.000E+00

     add environment contribution to local potential

     total cpu time spent up to now is      366.4 secs

     total energy              =    -300.68502734 Ry
     estimated scf accuracy    <       0.00000410 Ry

     total charge of GC-SCF    =       1.48873945 e
     the Fermi energy          =      -3.37389881 eV
                        (error :       0.03010119 eV)
     electrostatic embedding   =      -0.52023845 Ry
     cavitation energy         =       0.02212806 Ry
     electrolyte free energy   =      -0.00783039 Ry
     correction to one-el term =     -40.68268230 Ry

     iteration # 19     ecut=    80.00 Ry     beta= 0.20
     Davidson diagonalization with overlap

---- Real-time Memory Report at c_bands before calling an iterative solver
           367 MiB given to the printing process from OS
             0 MiB allocation reported by mallinfo(arena+hblkhd)
        216867 MiB available memory on the node where the printing process lives
------------------
     ethr =  7.00E-09,  avg # of iterations = 20.3

     negative rho (up, down):  3.821E-04 0.000E+00

     add environment contribution to local potential

     total cpu time spent up to now is      386.8 secs

     total energy              =    -300.68462923 Ry
     estimated scf accuracy    <       0.00000243 Ry

     total charge of GC-SCF    =       1.50494897 e
     the Fermi energy          =      -3.37092294 eV
                        (error :       0.03307706 eV)
     electrostatic embedding   =      -0.50276898 Ry
     cavitation energy         =       0.02212806 Ry
     electrolyte free energy   =      -0.00767028 Ry
     correction to one-el term =     -39.99145106 Ry

     iteration # 20     ecut=    80.00 Ry     beta= 0.20
     Davidson diagonalization with overlap

---- Real-time Memory Report at c_bands before calling an iterative solver
           367 MiB given to the printing process from OS
             0 MiB allocation reported by mallinfo(arena+hblkhd)
        216869 MiB available memory on the node where the printing process lives
------------------
     ethr =  4.16E-09,  avg # of iterations = 22.5

     negative rho (up, down):  3.866E-04 0.000E+00

     add environment contribution to local potential

     total cpu time spent up to now is      407.2 secs

     total energy              =    -300.68474415 Ry
     estimated scf accuracy    <       0.00000082 Ry

     total charge of GC-SCF    =       1.53179510 e
     the Fermi energy          =      -3.38941842 eV
                        (error :       0.01458158 eV)
     electrostatic embedding   =      -0.51419946 Ry
     cavitation energy         =       0.02212806 Ry
     electrolyte free energy   =      -0.00782378 Ry
     correction to one-el term =     -40.42796095 Ry

     iteration # 21     ecut=    80.00 Ry     beta= 0.20
     Davidson diagonalization with overlap

---- Real-time Memory Report at c_bands before calling an iterative solver
           367 MiB given to the printing process from OS
             0 MiB allocation reported by mallinfo(arena+hblkhd)
        216870 MiB available memory on the node where the printing process lives
------------------
     ethr =  1.40E-09,  avg # of iterations = 24.0

     negative rho (up, down):  3.684E-04 0.000E+00

     add environment contribution to local potential

     total cpu time spent up to now is      429.7 secs

     total energy              =    -300.68466189 Ry
     estimated scf accuracy    <       0.00000049 Ry

     total charge of GC-SCF    =       1.52310610 e
     the Fermi energy          =      -3.40116402 eV
                        (error :       0.00283598 eV)
     electrostatic embedding   =      -0.53270875 Ry
     cavitation energy         =       0.02212806 Ry
     electrolyte free energy   =      -0.00801735 Ry
     correction to one-el term =     -41.15987378 Ry

     iteration # 22     ecut=    80.00 Ry     beta= 0.20
     Davidson diagonalization with overlap

---- Real-time Memory Report at c_bands before calling an iterative solver
           367 MiB given to the printing process from OS
             0 MiB allocation reported by mallinfo(arena+hblkhd)
        216818 MiB available memory on the node where the printing process lives
------------------
     ethr =  8.40E-10,  avg # of iterations = 23.9

     negative rho (up, down):  3.662E-04 0.000E+00

     add environment contribution to local potential

     total cpu time spent up to now is      451.1 secs

     total energy              =    -300.68464777 Ry
     estimated scf accuracy    <       0.00000024 Ry

     total charge of GC-SCF    =       1.52998360 e
     the Fermi energy          =      -3.40105602 eV
                        (error :       0.00294398 eV)
     electrostatic embedding   =      -0.52676095 Ry
     cavitation energy         =       0.02212806 Ry
     electrolyte free energy   =      -0.00796736 Ry
     correction to one-el term =     -40.92724479 Ry

     iteration # 23     ecut=    80.00 Ry     beta= 0.20
     Davidson diagonalization with overlap

---- Real-time Memory Report at c_bands before calling an iterative solver
           367 MiB given to the printing process from OS
             0 MiB allocation reported by mallinfo(arena+hblkhd)
        216824 MiB available memory on the node where the printing process lives
------------------
     c_bands:  1 eigenvalues not converged
     ethr =  4.13E-10,  avg # of iterations = 26.4

     negative rho (up, down):  3.584E-04 0.000E+00

     add environment contribution to local potential

     total cpu time spent up to now is      474.1 secs

     total energy              =    -300.68464409 Ry
     estimated scf accuracy    <       0.00000011 Ry

     total charge of GC-SCF    =       1.53602778 e
     the Fermi energy          =      -3.40212230 eV
                        (error :       0.00187770 eV)
     electrostatic embedding   =      -0.53147754 Ry
     cavitation energy         =       0.02212806 Ry
     electrolyte free energy   =      -0.00801088 Ry
     correction to one-el term =     -41.11221263 Ry

     iteration # 24     ecut=    80.00 Ry     beta= 0.20
     Davidson diagonalization with overlap

---- Real-time Memory Report at c_bands before calling an iterative solver
           367 MiB given to the printing process from OS
             0 MiB allocation reported by mallinfo(arena+hblkhd)
        216828 MiB available memory on the node where the printing process lives
------------------
     ethr =  1.92E-10,  avg # of iterations = 21.2

     negative rho (up, down):  3.335E-04 0.000E+00

     total cpu time spent up to now is      488.1 secs

     End of self-consistent calculation

          k = 0.0000 0.0000 0.0000 (203379 PWs)   bands (ev):

   -51.0010 -51.0009 -50.9996 -50.9995 -50.6686 -50.6686 -50.6671 -50.6671
   -50.2856 -50.2853 -50.2840 -50.2838 -49.9382 -49.9325 -49.9323 -49.9298
   -49.8332 -49.8277 -49.8276 -49.8247  -6.6508  -5.6878  -4.7749  -4.7073
    -4.2923  -4.2494  -4.2494  -3.7570  -3.5059  -3.3658  -3.3658  -2.8448
    -2.8448  -2.5009  -2.3888  -2.3888  -2.2399  -2.2399  -2.2335  -1.9262
    -1.3077  -0.4293  -0.4266  -0.4265  -0.2414

     occupation numbers 
     1.0000   1.0000   1.0000   1.0000   1.0000   1.0000   1.0000   1.0000
     1.0000   1.0000   1.0000   1.0000   1.0000   1.0000   1.0000   1.0000
     1.0000   1.0000   1.0000   1.0000   1.0000   1.0000   1.0000   1.0000
     1.0000   1.0000   1.0000   1.0074   0.9242   0.2336   0.2336   0.0000
     0.0000   0.0000   0.0000   0.0000   0.0000   0.0000   0.0000   0.0000
     0.0000   0.0000   0.0000   0.0000   0.0000

          k = 0.0000 0.0994 0.0000 (203275 PWs)   bands (ev):

   -51.0010 -51.0009 -50.9996 -50.9995 -50.6686 -50.6686 -50.6671 -50.6671
   -50.2856 -50.2853 -50.2840 -50.2838 -49.9382 -49.9325 -49.9323 -49.9298
   -49.8332 -49.8277 -49.8276 -49.8247  -6.6275  -5.6707  -5.1220  -4.4023
    -4.2705  -4.2285  -4.2285  -3.9126  -3.3627  -3.3627  -3.2435  -2.9624
    -2.9624  -2.5080  -2.4694  -2.4694  -2.4502  -2.0443  -2.0443  -1.7081
    -1.2629  -0.5863  -0.4362  -0.4362  -0.1601

     occupation numbers 
     1.0000   1.0000   1.0000   1.0000   1.0000   1.0000   1.0000   1.0000
     1.0000   1.0000   1.0000   1.0000   1.0000   1.0000   1.0000   1.0000
     1.0000   1.0000   1.0000   1.0000   1.0000   1.0000   1.0000   1.0000
     1.0000   1.0000   1.0000   1.0000   0.2222   0.2222   0.0154   0.0000
     0.0000   0.0000   0.0000   0.0000   0.0000   0.0000   0.0000   0.0000
     0.0000   0.0000   0.0000   0.0000   0.0000

          k = 0.0000 0.1988 0.0000 (203225 PWs)   bands (ev):

   -51.0010 -51.0009 -50.9996 -50.9995 -50.6686 -50.6686 -50.6671 -50.6671
   -50.2856 -50.2853 -50.2840 -50.2838 -49.9382 -49.9325 -49.9323 -49.9299
   -49.8332 -49.8277 -49.8276 -49.8247  -6.5577  -5.6524  -5.4180  -4.5780
    -4.1659  -4.1659  -3.9793  -3.8318  -3.3847  -3.3847  -3.1530  -3.1530
    -2.9096  -2.7921  -2.5553  -2.5553  -2.3744  -1.7525  -1.7525  -1.6205
    -1.0392  -0.7331  -0.4163  -0.4162  -0.0566

     occupation numbers 
     1.0000   1.0000   1.0000   1.0000   1.0000   1.0000   1.0000   1.0000
     1.0000   1.0000   1.0000   1.0000   1.0000   1.0000   1.0000   1.0000
     1.0000   1.0000   1.0000   1.0000   1.0000   1.0000   1.0000   1.0000
     1.0000   1.0000   1.0000   1.0008   0.3114   0.3114   0.0008   0.0008
     0.0000   0.0000   0.0000   0.0000   0.0000   0.0000   0.0000   0.0000
     0.0000   0.0000   0.0000   0.0000   0.0000

          k = 0.0000 0.2981 0.0000 (203169 PWs)   bands (ev):

   -51.0010 -51.0009 -50.9996 -50.9995 -50.6686 -50.6686 -50.6671 -50.6671
   -50.2856 -50.2853 -50.2840 -50.2838 -49.9381 -49.9325 -49.9323 -49.9299
   -49.8332 -49.8277 -49.8276 -49.8247  -6.4414  -5.8308  -5.4290  -4.8336
    -4.0622  -4.0622  -3.9020  -3.5366  -3.5366  -3.4072  -3.2064  -3.2064
    -3.1030  -2.6383  -2.6383  -2.5992  -2.2082  -1.7171  -1.5042  -1.5042
    -0.9046  -0.7133  -0.3190  -0.3190   0.0588

     occupation numbers 
     1.0000   1.0000   1.0000   1.0000   1.0000   1.0000   1.0000   1.0000
     1.0000   1.0000   1.0000   1.0000   1.0000   1.0000   1.0000   1.0000
     1.0000   1.0000   1.0000   1.0000   1.0000   1.0000   1.0000   1.0000
     1.0000   1.0000   1.0000   1.0203   1.0203   0.4196   0.0050   0.0050
     0.0001   0.0000   0.0000   0.0000   0.0000   0.0000   0.0000   0.0000
     0.0000   0.0000   0.0000   0.0000   0.0000

          k = 0.0000 0.3975 0.0000 (203234 PWs)   bands (ev):

   -51.0010 -51.0009 -50.9996 -50.9995 -50.6686 -50.6686 -50.6671 -50.6671
   -50.2856 -50.2853 -50.2840 -50.2838 -49.9381 -49.9325 -49.9323 -49.9299
   -49.8332 -49.8277 -49.8276 -49.8247  -6.2792  -6.0726  -5.2937  -5.0630
    -3.9192  -3.9192  -3.8091  -3.7382  -3.7382  -3.3343  -3.1905  -3.1905
    -3.0211  -2.6953  -2.6953  -2.5038  -2.0330  -1.8569  -1.3667  -1.3667
    -0.8868  -0.7652  -0.1787  -0.1786   0.0379

     occupation numbers 
     1.0000   1.0000   1.0000   1.0000   1.0000   1.0000   1.0000   1.0000
     1.0000   1.0000   1.0000   1.0000   1.0000   1.0000   1.0000   1.0000
     1.0000   1.0000   1.0000   1.0000   1.0000   1.0000   1.0000   1.0000
     1.0000   1.0000   1.0016   1.0119   1.0119   0.1339   0.0029   0.0029
     0.0000   0.0000   0.0000   0.0000   0.0000   0.0000   0.0000   0.0000
     0.0000   0.0000   0.0000   0.0000   0.0000

          k = 0.1000 0.0000 0.0000 (203333 PWs)   bands (ev):

   -51.0009 -51.0009 -50.9996 -50.9995 -50.6686 -50.6685 -50.6672 -50.6672
   -50.2855 -50.2853 -50.2841 -50.2839 -49.9381 -49.9331 -49.9318 -49.9298
   -49.8332 -49.8284 -49.8270 -49.8247  -6.6271  -5.6639  -4.7510  -4.7084
    -4.6830  -4.2680  -3.7869  -3.7409  -3.7333  -3.4802  -3.0749  -2.9693
    -2.8805  -2.5874  -2.4756  -2.4178  -2.2065  -2.1649  -2.0300  -1.9013
    -1.2862  -0.6101  -0.4049  -0.3063  -0.2140

     occupation numbers 
     1.0000   1.0000   1.0000   1.0000   1.0000   1.0000   1.0000   1.0000
     1.0000   1.0000   1.0000   1.0000   1.0000   1.0000   1.0000   1.0000
     1.0000   1.0000   1.0000   1.0000   1.0000   1.0000   1.0000   1.0000
     1.0000   1.0000   1.0032   1.0111   1.0133   0.8110   0.0000   0.0000
     0.0000   0.0000   0.0000   0.0000   0.0000   0.0000   0.0000   0.0000
     0.0000   0.0000   0.0000   0.0000   0.0000

          k = 0.1000 0.0994 0.0000 (203258 PWs)   bands (ev):

   -51.0009 -51.0009 -50.9996 -50.9995 -50.6686 -50.6685 -50.6672 -50.6672
   -50.2855 -50.2853 -50.2841 -50.2839 -49.9381 -49.9331 -49.9318 -49.9299
   -49.8332 -49.8284 -49.8270 -49.8247  -6.6038  -5.6468  -5.0981  -4.6865
    -4.3777  -4.2463  -3.8886  -3.7762  -3.7214  -3.3136  -3.2177  -2.9462
    -2.7709  -2.6465  -2.4856  -2.4221  -2.4121  -2.2062  -1.8352  -1.6794
    -1.2435  -0.5976  -0.5631  -0.2912  -0.1298

     occupation numbers 
     1.0000   1.0000   1.0000   1.0000   1.0000   1.0000   1.0000   1.0000
     1.0000   1.0000   1.0000   1.0000   1.0000   1.0000   1.0000   1.0000
     1.0000   1.0000   1.0000   1.0000   1.0000   1.0000   1.0000   1.0000
     1.0000   1.0000   1.0001   1.0044   1.0174   0.0881   0.0071   0.0000
     0.0000   0.0000   0.0000   0.0000   0.0000   0.0000   0.0000   0.0000
     0.0000   0.0000   0.0000   0.0000   0.0000

          k = 0.1000 0.1988 0.0000 (203264 PWs)   bands (ev):

   -51.0009 -51.0009 -50.9996 -50.9995 -50.6686 -50.6685 -50.6672 -50.6672
   -50.2855 -50.2853 -50.2841 -50.2839 -49.9381 -49.9331 -49.9318 -49.9299
   -49.8331 -49.8284 -49.8270 -49.8247  -6.5339  -5.6285  -5.3941  -4.6210
    -4.5539  -3.9548  -3.8068  -3.7766  -3.6650  -3.5611  -3.0234  -2.8829
    -2.8333  -2.7681  -2.7062  -2.4418  -2.3486  -1.9587  -1.5993  -1.5921
    -1.0180  -0.7100  -0.6144  -0.1949  -0.0259

     occupation numbers 
     1.0000   1.0000   1.0000   1.0000   1.0000   1.0000   1.0000   1.0000
     1.0000   1.0000   1.0000   1.0000   1.0000   1.0000   1.0000   1.0000
     1.0000   1.0000   1.0000   1.0000   1.0000   1.0000   1.0000   1.0000
     1.0000   1.0000   1.0017   1.0043   1.0483   1.0638   0.0000   0.0000
     0.0000   0.0000   0.0000   0.0000   0.0000   0.0000   0.0000   0.0000
     0.0000   0.0000   0.0000   0.0000   0.0000

          k = 0.1000 0.2981 0.0000 (203250 PWs)   bands (ev):

   -51.0009 -51.0009 -50.9996 -50.9995 -50.6686 -50.6685 -50.6672 -50.6672
   -50.2855 -50.2853 -50.2841 -50.2839 -49.9380 -49.9331 -49.9318 -49.9299
   -49.8331 -49.8284 -49.8270 -49.8248  -6.4177  -5.8071  -5.4051  -4.8096
    -4.5122  -3.9471  -3.8778  -3.6017  -3.5535  -3.3802  -3.1508  -3.0793
    -3.0353  -2.7188  -2.5705  -2.4207  -2.1833  -1.6913  -1.6699  -1.4119
    -0.8799  -0.6923  -0.6203  -0.0440   0.0879

     occupation numbers 
     1.0000   1.0000   1.0000   1.0000   1.0000   1.0000   1.0000   1.0000
     1.0000   1.0000   1.0000   1.0000   1.0000   1.0000   1.0000   1.0000
     1.0000   1.0000   1.0000   1.0000   1.0000   1.0000   1.0000   1.0000
     1.0000   1.0000   1.0001   1.0829   1.0533   0.2917   0.0007   0.0000
     0.0000   0.0000   0.0000   0.0000   0.0000   0.0000   0.0000   0.0000
     0.0000   0.0000   0.0000   0.0000   0.0000

          k = 0.1000 0.3975 0.0000 (203200 PWs)   bands (ev):

   -51.0009 -51.0009 -50.9996 -50.9995 -50.6686 -50.6685 -50.6672 -50.6672
   -50.2855 -50.2853 -50.2841 -50.2839 -49.9380 -49.9331 -49.9318 -49.9299
   -49.8331 -49.8284 -49.8270 -49.8248  -6.2555  -6.0489  -5.2698  -5.0390
    -4.3609  -4.1693  -3.7850  -3.5314  -3.4249  -3.3092  -3.2668  -3.2316
    -2.9926  -2.7150  -2.4749  -2.4104  -2.0086  -1.8325  -1.4878  -1.3282
    -0.8650  -0.7460  -0.4661  -0.1250   0.0651

     occupation numbers 
     1.0000   1.0000   1.0000   1.0000   1.0000   1.0000   1.0000   1.0000
     1.0000   1.0000   1.0000   1.0000   1.0000   1.0000   1.0000   1.0000
     1.0000   1.0000   1.0000   1.0000   1.0000   1.0000   1.0000   1.0000
     1.0000   1.0000   1.0034   1.0071   0.5137   0.0802   0.0291   0.0109
     0.0000   0.0000   0.0000   0.0000   0.0000   0.0000   0.0000   0.0000
     0.0000   0.0000   0.0000   0.0000   0.0000

          k = 0.2000 0.0000 0.0000 (203263 PWs)   bands (ev):

   -51.0008 -51.0008 -50.9997 -50.9996 -50.6684 -50.6684 -50.6673 -50.6673
   -50.2854 -50.2852 -50.2842 -50.2840 -49.9378 -49.9338 -49.9313 -49.9299
   -49.8329 -49.8291 -49.8265 -49.8248  -6.5558  -5.5920  -5.1186  -4.6793
    -4.6101  -4.1955  -4.1743  -3.6630  -3.4037  -3.3477  -3.2625  -3.1898
    -2.8784  -2.5322  -2.5136  -2.4009  -2.1259  -2.0901  -1.8287  -1.8153
    -1.2226  -0.6307  -0.4653  -0.3388  -0.1337

     occupation numbers 
     1.0000   1.0000   1.0000   1.0000   1.0000   1.0000   1.0000   1.0000
     1.0000   1.0000   1.0000   1.0000   1.0000   1.0000   1.0000   1.0000
     1.0000   1.0000   1.0000   1.0000   1.0000   1.0000   1.0000   1.0000
     1.0000   1.0000   1.0000   1.0496   0.4019   0.1718   0.0260   0.0029
     0.0000   0.0000   0.0000   0.0000   0.0000   0.0000   0.0000   0.0000
     0.0000   0.0000   0.0000   0.0000   0.0000

          k = 0.2000 0.0994 0.0000 (203259 PWs)   bands (ev):

   -51.0008 -51.0008 -50.9997 -50.9996 -50.6684 -50.6684 -50.6673 -50.6673
   -50.2854 -50.2852 -50.2842 -50.2840 -49.9378 -49.9338 -49.9313 -49.9299
   -49.8329 -49.8291 -49.8265 -49.8248  -6.5325  -5.5750  -5.0961  -5.0264
    -4.3042  -4.1741  -4.1607  -3.8168  -3.6567  -3.1808  -3.1410  -2.9773
    -2.9115  -2.6660  -2.4196  -2.3506  -2.3386  -2.1192  -1.7388  -1.5945
    -1.1873  -0.7032  -0.4984  -0.3937  -0.0397

     occupation numbers 
     1.0000   1.0000   1.0000   1.0000   1.0000   1.0000   1.0000   1.0000
     1.0000   1.0000   1.0000   1.0000   1.0000   1.0000   1.0000   1.0000
     1.0000   1.0000   1.0000   1.0000   1.0000   1.0000   1.0000   1.0000
     1.0000   1.0000   1.0000   1.0013   1.0540   0.0021   0.0005   0.0000
     0.0000   0.0000   0.0000   0.0000   0.0000   0.0000   0.0000   0.0000
     0.0000   0.0000   0.0000   0.0000   0.0000

          k = 0.2000 0.1988 0.0000 (203186 PWs)   bands (ev):

   -51.0008 -51.0008 -50.9997 -50.9996 -50.6684 -50.6684 -50.6673 -50.6673
   -50.2854 -50.2852 -50.2842 -50.2840 -49.9378 -49.9338 -49.9313 -49.9299
   -49.8329 -49.8291 -49.8265 -49.8248  -6.4627  -5.5571  -5.3224  -5.0289
    -4.4819  -4.1547  -3.9289  -3.8818  -3.7323  -3.2078  -3.0901  -2.8037
    -2.7041  -2.6968  -2.6395  -2.2856  -2.2723  -2.0676  -1.5611  -1.5080
    -0.9571  -0.8211  -0.6441  -0.2515   0.0464

     occupation numbers 
     1.0000   1.0000   1.0000   1.0000   1.0000   1.0000   1.0000   1.0000
     1.0000   1.0000   1.0000   1.0000   1.0000   1.0000   1.0000   1.0000
     1.0000   1.0000   1.0000   1.0000   1.0000   1.0000   1.0000   1.0000
     1.0000   1.0000   1.0000   1.0001   1.0136   0.0052   0.0001   0.0000
     0.0000   0.0000   0.0000   0.0000   0.0000   0.0000   0.0000   0.0000
     0.0000   0.0000   0.0000   0.0000   0.0000

          k = 0.2000 0.2981 0.0000 (203209 PWs)   bands (ev):

   -51.0008 -51.0008 -50.9997 -50.9996 -50.6684 -50.6684 -50.6673 -50.6673
   -50.2854 -50.2852 -50.2842 -50.2840 -49.9378 -49.9338 -49.9313 -49.9299
   -49.8329 -49.8291 -49.8265 -49.8248  -6.3465  -5.7361  -5.3332  -4.9171
    -4.7377  -4.3324  -3.9418  -3.8056  -3.4119  -3.2997  -3.0316  -3.0090
    -2.7242  -2.5945  -2.4847  -2.2270  -2.1099  -1.8460  -1.6156  -1.3778
    -0.8915  -0.8098  -0.6319  -0.1118  -0.0643

     occupation numbers 
     1.0000   1.0000   1.0000   1.0000   1.0000   1.0000   1.0000   1.0000
     1.0000   1.0000   1.0000   1.0000   1.0000   1.0000   1.0000   1.0000
     1.0000   1.0000   1.0000   1.0000   1.0000   1.0000   1.0000   1.0000
     1.0000   1.0000   1.0000   1.0018   0.4442   0.0649   0.0000   0.0000
     0.0000   0.0000   0.0000   0.0000   0.0000   0.0000   0.0000   0.0000
     0.0000   0.0000   0.0000   0.0000   0.0000

          k = 0.2000 0.3975 0.0000 (203166 PWs)   bands (ev):

   -51.0008 -51.0008 -50.9997 -50.9996 -50.6684 -50.6684 -50.6673 -50.6673
   -50.2854 -50.2852 -50.2842 -50.2840 -49.9378 -49.9338 -49.9313 -49.9299
   -49.8329 -49.8291 -49.8265 -49.8248  -6.1843  -5.9778  -5.1983  -4.9669
    -4.7613  -4.5634  -3.8342  -3.7134  -3.5999  -3.2347  -2.9321  -2.9075
    -2.8041  -2.6137  -2.3887  -2.1942  -1.9371  -1.7611  -1.6109  -1.3056
    -0.8335  -0.8088  -0.6875  -0.2144  -0.1294

     occupation numbers 
     1.0000   1.0000   1.0000   1.0000   1.0000   1.0000   1.0000   1.0000
     1.0000   1.0000   1.0000   1.0000   1.0000   1.0000   1.0000   1.0000
     1.0000   1.0000   1.0000   1.0000   1.0000   1.0000   1.0000   1.0000
     1.0000   1.0000   1.0007   1.0206   1.0831   0.0120   0.0000   0.0000
     0.0000   0.0000   0.0000   0.0000   0.0000   0.0000   0.0000   0.0000
     0.0000   0.0000   0.0000   0.0000   0.0000

          k = 0.3000 0.0000 0.0000 (203139 PWs)   bands (ev):

   -51.0007 -51.0006 -50.9998 -50.9998 -50.6683 -50.6683 -50.6674 -50.6674
   -50.2852 -50.2850 -50.2844 -50.2841 -49.9374 -49.9346 -49.9308 -49.9300
   -49.8325 -49.8299 -49.8260 -49.8249  -6.4369  -5.4797  -5.4723  -4.5605
    -4.5238  -4.4894  -4.0755  -3.6533  -3.5688  -3.5474  -3.2779  -3.1737
    -2.7692  -2.5650  -2.4651  -2.2813  -1.9936  -1.8758  -1.7281  -1.7174
    -1.1199  -0.8097  -0.5242  -0.2824  -0.0722

     occupation numbers 
     1.0000   1.0000   1.0000   1.0000   1.0000   1.0000   1.0000   1.0000
     1.0000   1.0000   1.0000   1.0000   1.0000   1.0000   1.0000   1.0000
     1.0000   1.0000   1.0000   1.0000   1.0000   1.0000   1.0000   1.0000
     1.0000   1.0000   1.0000   1.0563   1.0720   1.0428   0.0386   0.0016
     0.0000   0.0000   0.0000   0.0000   0.0000   0.0000   0.0000   0.0000
     0.0000   0.0000   0.0000   0.0000   0.0000

          k = 0.3000 0.0994 0.0000 (203174 PWs)   bands (ev):

   -51.0007 -51.0006 -50.9998 -50.9998 -50.6683 -50.6683 -50.6674 -50.6674
   -50.2852 -50.2850 -50.2844 -50.2841 -49.9374 -49.9346 -49.9308 -49.9300
   -49.8325 -49.8299 -49.8260 -49.8249  -6.4136  -5.4569  -5.4554  -4.9075
    -4.5088  -4.1825  -4.0549  -3.9835  -3.6988  -3.2668  -3.1780  -3.0152
    -2.8771  -2.5675  -2.3140  -2.2495  -2.2028  -1.9097  -1.7274  -1.4590
    -1.1014  -0.8614  -0.4886  -0.4231  -0.0526

     occupation numbers 
     1.0000   1.0000   1.0000   1.0000   1.0000   1.0000   1.0000   1.0000
     1.0000   1.0000   1.0000   1.0000   1.0000   1.0000   1.0000   1.0000
     1.0000   1.0000   1.0000   1.0000   1.0000   1.0000   1.0000   1.0000
     1.0000   1.0000   1.0000   1.0000   1.0276   0.0291   0.0019   0.0000
     0.0000   0.0000   0.0000   0.0000   0.0000   0.0000   0.0000   0.0000
     0.0000   0.0000   0.0000   0.0000   0.0000

          k = 0.3000 0.1988 0.0000 (203207 PWs)   bands (ev):

   -51.0007 -51.0006 -50.9998 -50.9998 -50.6683 -50.6683 -50.6674 -50.6674
   -50.2852 -50.2850 -50.2844 -50.2841 -49.9374 -49.9346 -49.9308 -49.9300
   -49.8325 -49.8299 -49.8260 -49.8249  -6.3438  -5.4382  -5.3886  -5.2032
    -4.4987  -4.3626  -4.2672  -3.7615  -3.6096  -3.4649  -2.9158  -2.7639
    -2.6756  -2.5802  -2.5369  -2.1487  -2.0542  -1.9551  -1.6411  -1.3733
    -0.9565  -0.8679  -0.5545  -0.4446  -0.0145

     occupation numbers 
     1.0000   1.0000   1.0000   1.0000   1.0000   1.0000   1.0000   1.0000
     1.0000   1.0000   1.0000   1.0000   1.0000   1.0000   1.0000   1.0000
     1.0000   1.0000   1.0000   1.0000   1.0000   1.0000   1.0000   1.0000
     1.0000   1.0000   1.0000   1.0066   1.0811   0.7330   0.0000   0.0000
     0.0000   0.0000   0.0000   0.0000   0.0000   0.0000   0.0000   0.0000
     0.0000   0.0000   0.0000   0.0000   0.0000

          k = 0.3000 0.2981 0.0000 (203169 PWs)   bands (ev):

   -51.0007 -51.0006 -50.9998 -50.9998 -50.6683 -50.6683 -50.6674 -50.6674
   -50.2852 -50.2850 -50.2844 -50.2841 -49.9374 -49.9346 -49.9309 -49.9300
   -49.8325 -49.8299 -49.8260 -49.8249  -6.2277  -5.6177  -5.2749  -5.2138
    -4.6787  -4.6186  -4.2777  -3.7100  -3.6868  -3.1675  -2.8948  -2.8819
    -2.5052  -2.3767  -2.3428  -2.1164  -1.9938  -1.9186  -1.4961  -1.3455
    -1.0845  -0.7153  -0.5420  -0.4031  -0.0835

     occupation numbers 
     1.0000   1.0000   1.0000   1.0000   1.0000   1.0000   1.0000   1.0000
     1.0000   1.0000   1.0000   1.0000   1.0000   1.0000   1.0000   1.0000
     1.0000   1.0000   1.0000   1.0000   1.0000   1.0000   1.0000   1.0000
     1.0000   1.0000   1.0000   1.0222   1.0343   0.0013   0.0000   0.0000
     0.0000   0.0000   0.0000   0.0000   0.0000   0.0000   0.0000   0.0000
     0.0000   0.0000   0.0000   0.0000   0.0000

          k = 0.3000 0.3975 0.0000 (203179 PWs)   bands (ev):

   -51.0007 -51.0006 -50.9998 -50.9998 -50.6683 -50.6683 -50.6674 -50.6674
   -50.2852 -50.2850 -50.2844 -50.2841 -49.9373 -49.9346 -49.9309 -49.9300
   -49.8325 -49.8299 -49.8260 -49.8249  -6.0657  -5.8593  -5.1164  -5.0796
    -4.9147  -4.8473  -4.1571  -3.9211  -3.5961  -3.1132  -2.8445  -2.7666
    -2.4721  -2.2666  -2.2469  -2.1290  -1.8258  -1.7428  -1.6491  -1.2723
    -1.0450  -0.7567  -0.5850  -0.4479  -0.1652

     occupation numbers 
     1.0000   1.0000   1.0000   1.0000   1.0000   1.0000   1.0000   1.0000
     1.0000   1.0000   1.0000   1.0000   1.0000   1.0000   1.0000   1.0000
     1.0000   1.0000   1.0000   1.0000   1.0000   1.0000   1.0000   1.0000
     1.0000   1.0000   1.0000   1.0000   1.0833   0.0002   0.0000   0.0000
     0.0000   0.0000   0.0000   0.0000   0.0000   0.0000   0.0000   0.0000
     0.0000   0.0000   0.0000   0.0000   0.0000

          k = 0.4000 0.0000 0.0000 (203087 PWs)   bands (ev):

   -51.0005 -51.0004 -51.0000 -51.0000 -50.6681 -50.6681 -50.6676 -50.6676
   -50.2850 -50.2848 -50.2846 -50.2843 -49.9368 -49.9354 -49.9305 -49.9301
   -49.8320 -49.8306 -49.8256 -49.8251  -6.2701  -5.7918  -5.3051  -4.8300
    -4.3957  -4.3220  -3.9375  -3.9096  -3.8567  -3.4526  -3.3896  -3.1066
    -2.9758  -2.6661  -2.1266  -1.9997  -1.8179  -1.7832  -1.6029  -1.5921
    -1.1126  -0.9817  -0.6042  -0.5310  -0.0852

     occupation numbers 
     1.0000   1.0000   1.0000   1.0000   1.0000   1.0000   1.0000   1.0000
     1.0000   1.0000   1.0000   1.0000   1.0000   1.0000   1.0000   1.0000
     1.0000   1.0000   1.0000   1.0000   1.0000   1.0000   1.0000   1.0000
     1.0000   1.0000   1.0000   1.0000   1.0003   0.6662   0.3339   0.0001
     0.0000   0.0000   0.0000   0.0000   0.0000   0.0000   0.0000   0.0000
     0.0000   0.0000   0.0000   0.0000   0.0000

          k = 0.4000 0.0994 0.0000 (203147 PWs)   bands (ev):

   -51.0005 -51.0004 -51.0000 -51.0000 -50.6681 -50.6681 -50.6676 -50.6676
   -50.2850 -50.2848 -50.2846 -50.2843 -49.9368 -49.9354 -49.9305 -49.9301
   -49.8320 -49.8306 -49.8256 -49.8251  -6.2468  -5.7688  -5.2884  -4.8141
    -4.7420  -4.2772  -4.0142  -3.8905  -3.5494  -3.5371  -3.4426  -3.1081
    -2.8447  -2.4183  -2.1782  -2.0498  -2.0238  -1.7922  -1.6456  -1.2968
    -1.0267  -0.9988  -0.5912  -0.5505  -0.1213

     occupation numbers 
     1.0000   1.0000   1.0000   1.0000   1.0000   1.0000   1.0000   1.0000
     1.0000   1.0000   1.0000   1.0000   1.0000   1.0000   1.0000   1.0000
     1.0000   1.0000   1.0000   1.0000   1.0000   1.0000   1.0000   1.0000
     1.0000   1.0000   1.0000   1.0001   1.0466   1.0214   0.6113   0.0001
     0.0000   0.0000   0.0000   0.0000   0.0000   0.0000   0.0000   0.0000
     0.0000   0.0000   0.0000   0.0000   0.0000

          k = 0.4000 0.1988 0.0000 (203116 PWs)   bands (ev):

   -51.0005 -51.0004 -51.0000 -51.0000 -50.6681 -50.6681 -50.6676 -50.6676
   -50.2850 -50.2848 -50.2846 -50.2843 -49.9368 -49.9354 -49.9305 -49.9301
   -49.8320 -49.8306 -49.8256 -49.8251  -6.1772  -5.6998  -5.2722  -5.0370
    -4.8013  -4.5672  -4.1975  -3.7419  -3.5964  -3.4418  -3.1558  -2.9980
    -2.5088  -2.4211  -2.2168  -2.0340  -1.9873  -1.7909  -1.6609  -1.2104
    -0.9487  -0.7786  -0.5822  -0.5464  -0.1778

     occupation numbers 
     1.0000   1.0000   1.0000   1.0000   1.0000   1.0000   1.0000   1.0000
     1.0000   1.0000   1.0000   1.0000   1.0000   1.0000   1.0000   1.0000
     1.0000   1.0000   1.0000   1.0000   1.0000   1.0000   1.0000   1.0000
     1.0000   1.0000   1.0000   1.0108   1.0833   0.6066   0.0008   0.0000
     0.0000   0.0000   0.0000   0.0000   0.0000   0.0000   0.0000   0.0000
     0.0000   0.0000   0.0000   0.0000   0.0000

          k = 0.4000 0.2981 0.0000 (203047 PWs)   bands (ev):

   -51.0005 -51.0004 -51.0000 -51.0000 -50.6681 -50.6681 -50.6676 -50.6676
   -50.2850 -50.2848 -50.2846 -50.2843 -49.9368 -49.9354 -49.9305 -49.9301
   -49.8320 -49.8306 -49.8256 -49.8251  -6.0613  -5.5850  -5.4523  -5.0473
    -4.9820  -4.5772  -4.4535  -3.9940  -3.5246  -3.0996  -2.9873  -2.7428
    -2.5301  -2.4040  -2.1476  -1.8508  -1.8104  -1.7379  -1.5718  -1.3551
    -0.9838  -0.6917  -0.5479  -0.4725  -0.1942

     occupation numbers 
     1.0000   1.0000   1.0000   1.0000   1.0000   1.0000   1.0000   1.0000
     1.0000   1.0000   1.0000   1.0000   1.0000   1.0000   1.0000   1.0000
     1.0000   1.0000   1.0000   1.0000   1.0000   1.0000   1.0000   1.0000
     1.0000   1.0000   1.0000   1.0000   0.9880   0.0001   0.0000   0.0000
     0.0000   0.0000   0.0000   0.0000   0.0000   0.0000   0.0000   0.0000
     0.0000   0.0000   0.0000   0.0000   0.0000

          k = 0.4000 0.3975 0.0000 (203101 PWs)   bands (ev):

   -51.0005 -51.0004 -51.0000 -51.0000 -50.6681 -50.6681 -50.6676 -50.6676
   -50.2850 -50.2848 -50.2846 -50.2843 -49.9368 -49.9354 -49.9305 -49.9301
   -49.8320 -49.8306 -49.8256 -49.8251  -5.8996  -5.6935  -5.4248  -5.2208
    -4.9143  -4.6810  -4.4499  -4.2145  -3.4370  -3.0321  -2.9492  -2.5725
    -2.5460  -2.0887  -2.0540  -1.7870  -1.7755  -1.6958  -1.5184  -1.4721
    -0.9886  -0.7791  -0.6156  -0.4703  -0.1454

     occupation numbers 
     1.0000   1.0000   1.0000   1.0000   1.0000   1.0000   1.0000   1.0000
     1.0000   1.0000   1.0000   1.0000   1.0000   1.0000   1.0000   1.0000
     1.0000   1.0000   1.0000   1.0000   1.0000   1.0000   1.0000   1.0000
     1.0000   1.0000   1.0000   1.0000   0.5800   0.0000   0.0000   0.0000
     0.0000   0.0000   0.0000   0.0000   0.0000   0.0000   0.0000   0.0000
     0.0000   0.0000   0.0000   0.0000   0.0000

          k =-0.5000 0.0000 0.0000 (203092 PWs)   bands (ev):

   -51.0004 -51.0002 -51.0002 -51.0001 -50.6679 -50.6679 -50.6679 -50.6678
   -50.2848 -50.2848 -50.2846 -50.2846 -49.9362 -49.9362 -49.9303 -49.9302
   -49.8314 -49.8313 -49.8254 -49.8253  -6.0551  -6.0551  -5.0908  -5.0908
    -4.1870  -4.1870  -4.1099  -4.1099  -3.7005  -3.7005  -3.1955  -3.1955
    -2.8969  -2.8969  -1.9574  -1.9574  -1.6638  -1.6638  -1.5165  -1.5165
    -1.0602  -1.0602  -0.8083  -0.8083   0.1009

     occupation numbers 
     1.0000   1.0000   1.0000   1.0000   1.0000   1.0000   1.0000   1.0000
     1.0000   1.0000   1.0000   1.0000   1.0000   1.0000   1.0000   1.0000
     1.0000   1.0000   1.0000   1.0000   1.0000   1.0000   1.0000   1.0000
     1.0000   1.0000   1.0000   1.0000   1.0267   1.0267   0.0035   0.0035
     0.0000   0.0000   0.0000   0.0000   0.0000   0.0000   0.0000   0.0000
     0.0000   0.0000   0.0000   0.0000   0.0000

          k =-0.5000 0.0994 0.0000 (203092 PWs)   bands (ev):

   -51.0004 -51.0002 -51.0002 -51.0001 -50.6679 -50.6679 -50.6679 -50.6678
   -50.2848 -50.2848 -50.2846 -50.2846 -49.9362 -49.9361 -49.9303 -49.9303
   -49.8314 -49.8313 -49.8254 -49.8253  -6.0320  -6.0320  -5.0744  -5.0744
    -4.5312  -4.5312  -3.8016  -3.8016  -3.6843  -3.6843  -3.3370  -3.3370
    -2.6384  -2.6384  -2.0357  -2.0357  -1.8349  -1.8349  -1.2939  -1.2939
    -1.0131  -1.0131  -0.8059  -0.8059   0.0054

     occupation numbers 
     1.0000   1.0000   1.0000   1.0000   1.0000   1.0000   1.0000   1.0000
     1.0000   1.0000   1.0000   1.0000   1.0000   1.0000   1.0000   1.0000
     1.0000   1.0000   1.0000   1.0000   1.0000   1.0000   1.0000   1.0000
     1.0000   1.0000   1.0020   1.0020   1.0357   1.0357   0.1410   0.1410
     0.0000   0.0000   0.0000   0.0000   0.0000   0.0000   0.0000   0.0000
     0.0000   0.0000   0.0000   0.0000   0.0000

          k =-0.5000 0.1988 0.0000 (202990 PWs)   bands (ev):

   -51.0004 -51.0002 -51.0002 -51.0001 -50.6679 -50.6679 -50.6679 -50.6678
   -50.2848 -50.2848 -50.2846 -50.2846 -49.9361 -49.9361 -49.9303 -49.9303
   -49.8314 -49.8313 -49.8254 -49.8253  -5.9626  -5.9626  -5.0596  -5.0596
    -4.8245  -4.8245  -3.9892  -3.9892  -3.3912  -3.3912  -3.2341  -3.2341
    -2.3301  -2.3301  -2.2242  -2.2242  -1.8157  -1.8157  -1.2506  -1.2506
    -0.8840  -0.8840  -0.6899  -0.6899  -0.1265

     occupation numbers 
     1.0000   1.0000   1.0000   1.0000   1.0000   1.0000   1.0000   1.0000
     1.0000   1.0000   1.0000   1.0000   1.0000   1.0000   1.0000   1.0000
     1.0000   1.0000   1.0000   1.0000   1.0000   1.0000   1.0000   1.0000
     1.0000   1.0000   1.0000   1.0000   0.3414   0.3414   0.0118   0.0118
     0.0000   0.0000   0.0000   0.0000   0.0000   0.0000   0.0000   0.0000
     0.0000   0.0000   0.0000   0.0000   0.0000

          k =-0.5000 0.2981 0.0000 (202980 PWs)   bands (ev):

   -51.0004 -51.0002 -51.0002 -51.0001 -50.6679 -50.6679 -50.6679 -50.6678
   -50.2848 -50.2848 -50.2846 -50.2846 -49.9361 -49.9361 -49.9303 -49.9303
   -49.8314 -49.8313 -49.8254 -49.8253  -5.8471  -5.8471  -5.2402  -5.2402
    -4.8346  -4.8346  -4.2441  -4.2441  -3.3247  -3.3247  -2.7673  -2.7673
    -2.5662  -2.5662  -1.9087  -1.9087  -1.7251  -1.7251  -1.3337  -1.3337
    -0.9135  -0.9135  -0.5162  -0.5162  -0.1085

     occupation numbers 
     1.0000   1.0000   1.0000   1.0000   1.0000   1.0000   1.0000   1.0000
     1.0000   1.0000   1.0000   1.0000   1.0000   1.0000   1.0000   1.0000
     1.0000   1.0000   1.0000   1.0000   1.0000   1.0000   1.0000   1.0000
     1.0000   1.0000   1.0000   1.0000   0.1109   0.1109   0.0000   0.0000
     0.0000   0.0000   0.0000   0.0000   0.0000   0.0000   0.0000   0.0000
     0.0000   0.0000   0.0000   0.0000   0.0000

          k =-0.5000 0.3975 0.0000 (202998 PWs)   bands (ev):

   -51.0004 -51.0002 -51.0002 -51.0001 -50.6679 -50.6679 -50.6679 -50.6678
   -50.2848 -50.2848 -50.2846 -50.2846 -49.9361 -49.9361 -49.9303 -49.9303
   -49.8314 -49.8313 -49.8254 -49.8253  -5.6859  -5.6859  -5.4806  -5.4806
    -4.7037  -4.7037  -4.4693  -4.4693  -3.2435  -3.2435  -2.7521  -2.7521
    -2.3330  -2.3330  -1.8290  -1.8290  -1.6110  -1.6110  -1.4651  -1.4651
    -0.9149  -0.9149  -0.5462  -0.5461  -0.0547

     occupation numbers 
     1.0000   1.0000   1.0000   1.0000   1.0000   1.0000   1.0000   1.0000
     1.0000   1.0000   1.0000   1.0000   1.0000   1.0000   1.0000   1.0000
     1.0000   1.0000   1.0000   1.0000   1.0000   1.0000   1.0000   1.0000
     1.0000   1.0000   1.0000   1.0000   0.0154   0.0154   0.0000   0.0000
     0.0000   0.0000   0.0000   0.0000   0.0000   0.0000   0.0000   0.0000
     0.0000   0.0000   0.0000   0.0000   0.0000

     the Fermi energy is    -3.4034 ev

!    total energy              =    -300.68463478 Ry
     total all-electron energy =      -300.684797 Ry
     estimated scf accuracy    <       0.00000007 Ry

!    total charge of GC-SCF    =       1.53627278 e
     smearing contrib. (-TS)   =       0.00003452 Ry
     internal energy E=F+TS    =    -300.68466930 Ry

     The total energy is F=E-TS. E is the sum of the following terms:
     one-electron contribution =   -2615.35290337 Ry
     hartree contribution      =    1273.13177734 Ry
     xc contribution           =     -70.99504070 Ry
     ewald contribution        =    1152.94977918 Ry
     one-center paw contrib.   =       1.76585443 Ry
      -> PAW hartree energy AE =       7.40477620 Ry
      -> PAW hartree energy PS =      -7.18207042 Ry
      -> PAW xc energy AE      =      -3.48100882 Ry
      -> PAW xc energy PS      =       3.34653063 Ry
      -> total E_H with PAW    =    1273.35448312 Ry
      -> total E_XC with PAW   =     -71.12951889 Ry
     pot.stat. contrib. (-muN) =      -0.38435914 Ry
     electrostatic embedding   =      -0.53566706 Ry
     cavitation energy         =       0.02212806 Ry
     electrolyte free energy   =      -0.00805106 Ry
     correction to one-el term =     -41.27818697 Ry

     WARNING: you are using the parabolic pbc correction;
              the potential shift above must be added to 
              band and Fermi energies.

     convergence has been achieved in  24 iterations
     The dielectric solvent contribution to forces
     atom    1 type  1   force =     0.00000000    0.00374725    0.02199365
     atom    2 type  1   force =     0.00000000   -0.00157750    0.00398176
     atom    3 type  1   force =     0.00000000   -0.00068314   -0.01059238
     atom    4 type  1   force =     0.00000000    0.00455433   -0.02136098
     atom    5 type  1   force =     0.00000000   -0.00345779    0.00203709
     atom    6 type  1   force =     0.00000000    0.00157756   -0.00398339
     atom    7 type  1   force =    -0.00000000   -0.00374729   -0.02199561
     atom    8 type  1   force =    -0.00000001    0.00345717   -0.00203775
     atom    9 type  1   force =     0.00000005   -0.00455387    0.02135967
     atom   10 type  1   force =     0.00000000    0.00068301    0.01059073
     atom   11 type  1   force =    -0.00000000    0.00374727    0.02199371
     atom   12 type  1   force =    -0.00000000   -0.00157750    0.00398175
     atom   13 type  1   force =    -0.00000000   -0.00068314   -0.01059238
     atom   14 type  1   force =    -0.00000000    0.00455434   -0.02136095
     atom   15 type  1   force =    -0.00000000   -0.00345782    0.00203683
     atom   16 type  1   force =    -0.00000000    0.00157756   -0.00398339
     atom   17 type  1   force =     0.00000000   -0.00374729   -0.02199560
     atom   18 type  1   force =     0.00000001    0.00345717   -0.00203774
     atom   19 type  1   force =    -0.00000005   -0.00455387    0.02135966
     atom   20 type  1   force =     0.00000000    0.00068301    0.01059073


     Forces acting on atoms (cartesian axes, Ry/au):

     atom    1 type  1   force =     0.00000000   -0.00115545   -0.00152256
     atom    2 type  1   force =     0.00000000   -0.00014110   -0.00050792
     atom    3 type  1   force =     0.00000000    0.00112076    0.00185832
     atom    4 type  1   force =     0.00000000   -0.00094909   -0.00039556
     atom    5 type  1   force =     0.00000000    0.00102268    0.00341719
     atom    6 type  1   force =     0.00000037    0.00014107    0.00050180
     atom    7 type  1   force =    -0.00000027    0.00115626    0.00152237
     atom    8 type  1   force =     0.00000028   -0.00102208   -0.00341334
     atom    9 type  1   force =    -0.00000018    0.00094866    0.00040002
     atom   10 type  1   force =    -0.00000025   -0.00112253   -0.00186244
     atom   11 type  1   force =     0.00000000   -0.00115504   -0.00152216
     atom   12 type  1   force =     0.00000000   -0.00014197   -0.00050779
     atom   13 type  1   force =     0.00000000    0.00112243    0.00185744
     atom   14 type  1   force =     0.00000000   -0.00094947   -0.00039528
     atom   15 type  1   force =     0.00000000    0.00102350    0.00342151
     atom   16 type  1   force =    -0.00000037    0.00014107    0.00050180
     atom   17 type  1   force =     0.00000027    0.00115626    0.00152237
     atom   18 type  1   force =    -0.00000028   -0.00102208   -0.00341334
     atom   19 type  1   force =     0.00000018    0.00094866    0.00040002
     atom   20 type  1   force =     0.00000025   -0.00112253   -0.00186244
     The non-local contrib.  to forces
     atom    1 type  1   force =     0.00000000    0.00168832    0.04598257
     atom    2 type  1   force =     0.00000000    0.00307056   -0.00043355
     atom    3 type  1   force =     0.00000000    0.00445142    0.00275272
     atom    4 type  1   force =     0.00000000    0.02093084   -0.07652220
     atom    5 type  1   force =     0.00000000    0.01231868    0.09711779
     atom    6 type  1   force =    -0.00000031   -0.00307112    0.00042045
     atom    7 type  1   force =    -0.00000028   -0.00168790   -0.04598964
     atom    8 type  1   force =    -0.00000020   -0.01231935   -0.09711525
     atom    9 type  1   force =     0.00000009   -0.02093090    0.07652100
     atom   10 type  1   force =    -0.00000026   -0.00445137   -0.00276386
     atom   11 type  1   force =     0.00000000    0.00168795    0.04598327
     atom   12 type  1   force =     0.00000000    0.00307064   -0.00043366
     atom   13 type  1   force =     0.00000000    0.00445153    0.00275290
     atom   14 type  1   force =     0.00000000    0.02093099   -0.07652248
     atom   15 type  1   force =     0.00000000    0.01231852    0.09711642
     atom   16 type  1   force =     0.00000031   -0.00307112    0.00042045
     atom   17 type  1   force =     0.00000028   -0.00168790   -0.04598964
     atom   18 type  1   force =     0.00000020   -0.01231935   -0.09711525
     atom   19 type  1   force =    -0.00000009   -0.02093090    0.07652100
     atom   20 type  1   force =     0.00000026   -0.00445137   -0.00276386
     The ionic contribution  to forces
     atom    1 type  1   force =    -0.00000002    0.08459406    5.08609735
     atom    2 type  1   force =    -0.00000002   -0.04696285    1.03425300
     atom    3 type  1   force =    -0.00000003   -0.09905918   -2.88874254
     atom    4 type  1   force =    -0.00000002    0.33348855   -6.88595301
     atom    5 type  1   force =    -0.00000001    0.19275995    8.13459493
     atom    6 type  1   force =     0.00000057    0.04696153   -1.03424198
     atom    7 type  1   force =     0.00000058   -0.08460046   -5.08608434
     atom    8 type  1   force =     0.00000013   -0.19275826   -8.13460417
     atom    9 type  1   force =     0.00000062   -0.33348571    6.88595418
     atom   10 type  1   force =    -0.00000049    0.09906124    2.88873108
     atom   11 type  1   force =     0.00000001    0.08459567    5.08609563
     atom   12 type  1   force =     0.00000001   -0.04696252    1.03424890
     atom   13 type  1   force =     0.00000002   -0.09905879   -2.88874582
     atom   14 type  1   force =     0.00000001    0.33348894   -6.88595762
     atom   15 type  1   force =     0.00000001    0.19275945    8.13459967
     atom   16 type  1   force =    -0.00000056    0.04696152   -1.03424201
     atom   17 type  1   force =    -0.00000058   -0.08460045   -5.08608431
     atom   18 type  1   force =    -0.00000012   -0.19275825   -8.13460412
     atom   19 type  1   force =    -0.00000061   -0.33348571    6.88595415
     atom   20 type  1   force =     0.00000049    0.09906125    2.88873102
     The local contribution  to forces
     atom    1 type  1   force =     0.00000349   -0.09110952   -5.15531808
[...]
     1.0000   1.0000   1.0000   1.0000   1.0000   1.0000   1.0000   1.0000
     1.0000   1.0000   1.0000   1.0000   0.1581   0.1580   0.0000   0.0000
     0.0000   0.0000   0.0000   0.0000   0.0000   0.0000   0.0000   0.0000
     0.0000   0.0000   0.0000   0.0000   0.0000

     the Fermi energy is    -3.4040 ev

!    total energy              =    -300.68876662 Ry
     total all-electron energy =      -300.688929 Ry
     estimated scf accuracy    <          8.6E-13 Ry

!    total charge of GC-SCF    =       1.68907092 e
     smearing contrib. (-TS)   =       0.00025519 Ry
     internal energy E=F+TS    =    -300.68902181 Ry

     The total energy is F=E-TS. E is the sum of the following terms:
     one-electron contribution =   -2571.34771470 Ry
     hartree contribution      =    1251.00381510 Ry
     xc contribution           =     -70.85511693 Ry
     ewald contribution        =    1133.93365840 Ry
     one-center paw contrib.   =       1.76744818 Ry
      -> PAW hartree energy AE =       7.38951643 Ry
      -> PAW hartree energy PS =      -7.16669669 Ry
      -> PAW xc energy AE      =      -3.47784331 Ry
      -> PAW xc energy PS      =       3.34329480 Ry
      -> total E_H with PAW    =    1251.22663484 Ry
      -> total E_XC with PAW   =     -70.98966545 Ry
     pot.stat. contrib. (-muN) =      -0.42258761 Ry
     electrostatic embedding   =      -0.62921081 Ry
     cavitation energy         =       0.02293695 Ry
     electrolyte free energy   =      -0.00952046 Ry
     correction to one-el term =     -44.15272991 Ry

     WARNING: you are using the parabolic pbc correction;
              the potential shift above must be added to 
              band and Fermi energies.

     convergence has been achieved in  17 iterations
     The dielectric solvent contribution to forces
     atom    1 type  1   force =     0.00000000    0.00439958    0.02477504
     atom    2 type  1   force =     0.00000000   -0.00189350    0.00447462
     atom    3 type  1   force =     0.00000000   -0.00089742   -0.01149827
     atom    4 type  1   force =     0.00000000    0.00687779   -0.02214957
     atom    5 type  1   force =     0.00000000   -0.00123575   -0.00348952
     atom    6 type  1   force =     0.00000010    0.00189324   -0.00447195
     atom    7 type  1   force =     0.00000030   -0.00439953   -0.02477169
     atom    8 type  1   force =     0.00000046    0.00123641    0.00348912
     atom    9 type  1   force =     0.00000004   -0.00687877    0.02215253
     atom   10 type  1   force =     0.00000012    0.00089795    0.01150136
     atom   11 type  1   force =    -0.00000000    0.00439941    0.02477499
     atom   12 type  1   force =    -0.00000000   -0.00189351    0.00447467
     atom   13 type  1   force =    -0.00000000   -0.00089747   -0.01149829
     atom   14 type  1   force =    -0.00000000    0.00687789   -0.02215002
     atom   15 type  1   force =    -0.00000000   -0.00123543   -0.00348734
     atom   16 type  1   force =    -0.00000010    0.00189324   -0.00447195
     atom   17 type  1   force =    -0.00000030   -0.00439953   -0.02477169
     atom   18 type  1   force =    -0.00000046    0.00123641    0.00348912
     atom   19 type  1   force =    -0.00000004   -0.00687877    0.02215253
     atom   20 type  1   force =    -0.00000012    0.00089795    0.01150136


     Forces acting on atoms (cartesian axes, Ry/au):

     atom    1 type  1   force =     0.00000000   -0.00006745    0.00009636
     atom    2 type  1   force =     0.00000000    0.00013990    0.00008362
     atom    3 type  1   force =     0.00000000    0.00014936    0.00004422
     atom    4 type  1   force =     0.00000000    0.00005268    0.00007026
     atom    5 type  1   force =     0.00000000    0.00024878   -0.00018243
     atom    6 type  1   force =     0.00000035   -0.00014006   -0.00008252
     atom    7 type  1   force =     0.00000009    0.00006738   -0.00009660
     atom    8 type  1   force =    -0.00000003   -0.00024801    0.00018124
     atom    9 type  1   force =     0.00000005   -0.00005317   -0.00007040
     atom   10 type  1   force =     0.00000010   -0.00014887   -0.00004369
     atom   11 type  1   force =     0.00000000   -0.00006766    0.00009647
     atom   12 type  1   force =     0.00000000    0.00013944    0.00008307
     atom   13 type  1   force =     0.00000000    0.00014926    0.00004414
     atom   14 type  1   force =     0.00000000    0.00005267    0.00007026
     atom   15 type  1   force =     0.00000000    0.00024850   -0.00018202
     atom   16 type  1   force =    -0.00000035   -0.00014006   -0.00008252
     atom   17 type  1   force =    -0.00000009    0.00006738   -0.00009660
     atom   18 type  1   force =     0.00000003   -0.00024801    0.00018124
     atom   19 type  1   force =    -0.00000005   -0.00005317   -0.00007040
     atom   20 type  1   force =    -0.00000010   -0.00014887   -0.00004369
     The non-local contrib.  to forces
     atom    1 type  1   force =     0.00000000    0.00146420    0.04312836
     atom    2 type  1   force =     0.00000000    0.00414872   -0.00054854
     atom    3 type  1   force =     0.00000000    0.00437908    0.00133271
     atom    4 type  1   force =     0.00000000    0.02113748   -0.07765429
     atom    5 type  1   force =     0.00000000    0.01457640    0.09626724
     atom    6 type  1   force =     0.00000075   -0.00414970    0.00054948
     atom    7 type  1   force =     0.00000060   -0.00146444   -0.04312676
     atom    8 type  1   force =     0.00000121   -0.01457643   -0.09626594
     atom    9 type  1   force =    -0.00000010   -0.02113958    0.07765165
     atom   10 type  1   force =     0.00000042   -0.00437740   -0.00133184
     atom   11 type  1   force =     0.00000000    0.00146422    0.04312752
     atom   12 type  1   force =     0.00000000    0.00414912   -0.00054898
     atom   13 type  1   force =     0.00000000    0.00437860    0.00133306
     atom   14 type  1   force =     0.00000000    0.02113787   -0.07765296
     atom   15 type  1   force =     0.00000000    0.01457771    0.09626552
     atom   16 type  1   force =    -0.00000075   -0.00414970    0.00054948
     atom   17 type  1   force =    -0.00000060   -0.00146444   -0.04312676
     atom   18 type  1   force =    -0.00000121   -0.01457643   -0.09626594
     atom   19 type  1   force =     0.00000010   -0.02113958    0.07765165
     atom   20 type  1   force =    -0.00000042   -0.00437740   -0.00133184
     The ionic contribution  to forces
     atom    1 type  1   force =    -0.00000002    0.08384614    4.85255216
     atom    2 type  1   force =    -0.00000002   -0.00604778    1.10600616
     atom    3 type  1   force =    -0.00000003   -0.10329123   -2.92843525
     atom    4 type  1   force =    -0.00000002    0.34842637   -6.89280673
     atom    5 type  1   force =    -0.00000001    0.19865792    8.15269781
     atom    6 type  1   force =     0.00001532    0.00602837   -1.10604710
     atom    7 type  1   force =     0.00001369   -0.08384693   -4.85252886
     atom    8 type  1   force =     0.00000793   -0.19864050   -8.15263928
     atom    9 type  1   force =     0.00000545   -0.34845136    6.89273237
     atom   10 type  1   force =     0.00000995    0.10332616    2.92848380
     atom   11 type  1   force =     0.00000001    0.08383743    4.85249348
     atom   12 type  1   force =     0.00000001   -0.00605454    1.10601685
     atom   13 type  1   force =     0.00000002   -0.10329169   -2.92839801
     atom   14 type  1   force =     0.00000001    0.34842457   -6.89276679
     atom   15 type  1   force =     0.00000000    0.19866133    8.15263848
     atom   16 type  1   force =    -0.00001532    0.00602836   -1.10604712
     atom   17 type  1   force =    -0.00001369   -0.08384692   -4.85252883
     atom   18 type  1   force =    -0.00000793   -0.19864050   -8.15263924
     atom   19 type  1   force =    -0.00000545   -0.34845137    6.89273234
     atom   20 type  1   force =    -0.00000994    0.10332616    2.92848375
     The local contribution  to forces
     atom    1 type  1   force =     0.00000349   -0.08977651   -4.92036138
     atom    2 type  1   force =     0.00000348    0.00393224   -1.10984945
     atom    3 type  1   force =     0.00000291    0.09995905    2.93864491
     atom    4 type  1   force =     0.00000407   -0.37638870    6.99268505
     atom    5 type  1   force =     0.00000408   -0.21173643   -8.24566013
     atom    6 type  1   force =    -0.00001115   -0.00391207    1.10988735
     atom    7 type  1   force =    -0.00001008    0.08977747    4.92033321
     atom    8 type  1   force =    -0.00000492    0.21171870    8.24560001
     atom    9 type  1   force =    -0.00000122    0.37641642   -6.99261135
     atom   10 type  1   force =    -0.00000598   -0.09999589   -2.93869764
     atom   11 type  1   force =     0.00000442   -0.08976786   -4.92030171
     atom   12 type  1   force =     0.00000440    0.00393817   -1.10986031
     atom   13 type  1   force =     0.00000557    0.09995993    2.93860725
     atom   14 type  1   force =     0.00000500   -0.37638742    6.99264426
     atom   15 type  1   force =     0.00000384   -0.21174175   -8.24560081
     atom   16 type  1   force =     0.00002053   -0.00391149    1.10988796
     atom   17 type  1   force =     0.00001891    0.08977746    4.92033261
     atom   18 type  1   force =     0.00001435    0.21171929    8.24559883
     atom   19 type  1   force =     0.00000947    0.37641642   -6.99261074
     atom   20 type  1   force =     0.00001480   -0.09999589   -2.93869643
     The core correction contribution to forces
     atom    1 type  1   force =     0.00000000    0.00000000    0.00000000
     atom    2 type  1   force =     0.00000000    0.00000000    0.00000000
     atom    3 type  1   force =     0.00000000    0.00000000    0.00000000
     atom    4 type  1   force =     0.00000000    0.00000000    0.00000000
     atom    5 type  1   force =     0.00000000    0.00000000    0.00000000
     atom    6 type  1   force =     0.00000000    0.00000000    0.00000000
     atom    7 type  1   force =     0.00000000    0.00000000    0.00000000
     atom    8 type  1   force =     0.00000000    0.00000000    0.00000000
     atom    9 type  1   force =     0.00000000    0.00000000    0.00000000
     atom   10 type  1   force =     0.00000000    0.00000000    0.00000000
     atom   11 type  1   force =     0.00000000    0.00000000    0.00000000
     atom   12 type  1   force =     0.00000000    0.00000000    0.00000000
     atom   13 type  1   force =     0.00000000    0.00000000    0.00000000
     atom   14 type  1   force =     0.00000000    0.00000000    0.00000000
     atom   15 type  1   force =     0.00000000    0.00000000    0.00000000
     atom   16 type  1   force =     0.00000000    0.00000000    0.00000000
     atom   17 type  1   force =     0.00000000    0.00000000    0.00000000
     atom   18 type  1   force =     0.00000000    0.00000000    0.00000000
     atom   19 type  1   force =     0.00000000    0.00000000    0.00000000
     atom   20 type  1   force =     0.00000000    0.00000000    0.00000000
     The Hubbard contrib.    to forces
     atom    1 type  1   force =     0.00000000    0.00000000    0.00000000
     atom    2 type  1   force =     0.00000000    0.00000000    0.00000000
     atom    3 type  1   force =     0.00000000    0.00000000    0.00000000
     atom    4 type  1   force =     0.00000000    0.00000000    0.00000000
     atom    5 type  1   force =     0.00000000    0.00000000    0.00000000
     atom    6 type  1   force =     0.00000000    0.00000000    0.00000000
     atom    7 type  1   force =     0.00000000    0.00000000    0.00000000
     atom    8 type  1   force =     0.00000000    0.00000000    0.00000000
     atom    9 type  1   force =     0.00000000    0.00000000    0.00000000
     atom   10 type  1   force =     0.00000000    0.00000000    0.00000000
     atom   11 type  1   force =     0.00000000    0.00000000    0.00000000
     atom   12 type  1   force =     0.00000000    0.00000000    0.00000000
     atom   13 type  1   force =     0.00000000    0.00000000    0.00000000
     atom   14 type  1   force =     0.00000000    0.00000000    0.00000000
     atom   15 type  1   force =     0.00000000    0.00000000    0.00000000
     atom   16 type  1   force =     0.00000000    0.00000000    0.00000000
     atom   17 type  1   force =     0.00000000    0.00000000    0.00000000
     atom   18 type  1   force =     0.00000000    0.00000000    0.00000000
     atom   19 type  1   force =     0.00000000    0.00000000    0.00000000
     atom   20 type  1   force =     0.00000000    0.00000000    0.00000000
     The SCF correction term to forces
     atom    1 type  1   force =     0.00000000   -0.00000089    0.00000220
     atom    2 type  1   force =    -0.00000000    0.00000019    0.00000085
     atom    3 type  1   force =     0.00000000   -0.00000015    0.00000015
     atom    4 type  1   force =    -0.00000000   -0.00000029   -0.00000418
     atom    5 type  1   force =    -0.00000000   -0.00001339    0.00000218
     atom    6 type  1   force =     0.00000002   -0.00000023   -0.00000058
     atom    7 type  1   force =    -0.00000000    0.00000077   -0.00000220
     atom    8 type  1   force =     0.00000001    0.00001347   -0.00000208
     atom    9 type  1   force =     0.00000001    0.00000009    0.00000412
     atom   10 type  1   force =     0.00000000    0.00000027    0.00000006
     atom   11 type  1   force =    -0.00000000   -0.00000089    0.00000220
     atom   12 type  1   force =     0.00000000    0.00000018    0.00000085
     atom   13 type  1   force =     0.00000000   -0.00000014    0.00000014
     atom   14 type  1   force =    -0.00000000   -0.00000029   -0.00000420
     atom   15 type  1   force =    -0.00000000   -0.00001339    0.00000215
     atom   16 type  1   force =    -0.00000002   -0.00000023   -0.00000058
     atom   17 type  1   force =     0.00000000    0.00000077   -0.00000220
     atom   18 type  1   force =    -0.00000001    0.00001347   -0.00000208
     atom   19 type  1   force =    -0.00000001    0.00000009    0.00000412
     atom   20 type  1   force =    -0.00000000    0.00000027    0.00000006

     Total force =     0.000817     Total SCF correction =     0.000029
     Energy error            =      9.9E-06 Ry
     Gradient error          =      2.5E-04 Ry/Bohr

     bfgs converged in  45 scf cycles and  44 bfgs steps
     (criteria: energy <  1.0E-05 Ry, force <  3.9E-04 Ry/Bohr)

     End of BFGS Geometry Optimization

     Final energy             =    -300.6887666176 Ry

     File ./Li/Lithium.bfgs deleted, as requested
Begin final coordinates

ATOMIC_POSITIONS (angstrom)
Li              -0.0000000600        3.1875367546       25.4371113460
Li              -0.0000000600        6.1004571646       24.0616848112
Li              -0.0000000500        1.5541582741       22.4160838602
Li              -0.0000000700        4.2490023065       20.7759431232
Li              -0.0000000700        0.7295976670       27.3494824704
Li               1.7175663007        3.8851752540       23.1544356009
Li               1.7175712404        6.7980733956       21.7790442394
Li               1.7175774578        1.5747330710       19.8667387637
Li               1.7175749025        5.7366202955       26.4401682170
Li               1.7175603733        0.7502155401       24.8000754097
Li               3.4351561700        3.1875496209       25.4370876365
Li               3.4351561700        6.1004772521       24.0616943646
Li               3.4351561500        1.5541568611       22.4160994426
Li               3.4351561600        4.2490021884       20.7759615858
Li               3.4351561800        0.7296065111       27.3494287612
Li               5.1527460293        3.8851752440       23.1544355909
Li               5.1527410996        6.7980733956       21.7790442494
Li               5.1527348722        1.5747330610       19.8667387836
Li               5.1527374475        5.7366202955       26.4401682070
Li               5.1527519667        0.7502155401       24.8000753897
End final coordinates



     Writing all to output data dir ./Li/Lithium.save/ :
     XML data file
     init_run     :     13.97s CPU     20.98s WALL (       1 calls)
     electrons    :  11937.24s CPU  15334.02s WALL (      45 calls)
     update_pot   :      4.59s CPU      5.66s WALL (      44 calls)
     forces       :    215.68s CPU    221.40s WALL (      45 calls)

     Called by init_run:
     wfcinit      :      1.01s CPU      1.44s WALL (       1 calls)
     wfcinit:wfcr :      0.94s CPU      1.36s WALL (      15 calls)
     potinit      :      0.50s CPU      0.55s WALL (       1 calls)
     hinit0       :      1.97s CPU      2.17s WALL (       1 calls)

     Called by electrons:
     c_bands      :   7322.75s CPU   9518.66s WALL (     914 calls)
     sum_band     :    461.86s CPU    629.81s WALL (     914 calls)
     v_of_rho     :     70.30s CPU     86.23s WALL (     916 calls)
     v_h          :      6.36s CPU      8.09s WALL (     916 calls)
     v_xc         :     63.92s CPU     78.11s WALL (     916 calls)
     newd         :     30.30s CPU     40.61s WALL (     916 calls)
     PAW_pot      :      7.84s CPU     10.99s WALL (     960 calls)
     mix_rho      :    170.12s CPU    227.57s WALL (     914 calls)

     Called by c_bands:
     init_us_2    :     53.68s CPU     58.14s WALL (   28770 calls)
     cegterg      :   6963.12s CPU   8661.23s WALL (   18112 calls)

     Called by sum_band:
     sum_band:wei :      0.92s CPU      1.16s WALL (     914 calls)
     sum_band:loo :    417.56s CPU    568.53s WALL (     914 calls)
     sum_band:buf :      6.07s CPU      6.67s WALL (   13710 calls)
     sum_band:ini :     22.94s CPU     24.16s WALL (   13710 calls)
     sum_band:cal :     61.91s CPU     74.56s WALL (   14370 calls)
     sum_band:bec :      0.87s CPU      0.96s WALL (   14370 calls)
     addusdens    :     25.01s CPU     26.29s WALL (     914 calls)
                                        0.00s GPU  (     914 calls)
     addusd:skk   :      4.10s CPU      4.17s WALL (     914 calls)
                                        0.00s GPU  (     914 calls)

     Called by *egterg:
     cdiaghg      :   1440.19s CPU   1508.46s WALL (  257841 calls)
     cegterg:over :    498.15s CPU    553.36s WALL (  241236 calls)
     cegterg:upda :    466.52s CPU    482.30s WALL (  241236 calls)
     cegterg:last :    116.70s CPU    118.33s WALL (   25367 calls)
     h_psi        :   3970.81s CPU   5495.21s WALL (  259363 calls)
     s_psi        :    277.96s CPU    290.10s WALL (  259363 calls)
     g_psi        :      6.69s CPU      7.06s WALL (  241236 calls)

     Called by h_psi:
     h_psi:calbec :    495.74s CPU    613.83s WALL (  259363 calls)
     vloc_psi     :   3121.54s CPU   4494.33s WALL (  259363 calls)
                                        0.00s GPU  (  259363 calls)
     add_vuspsi   :    325.84s CPU    357.70s WALL (  259363 calls)

     General routines
     calbec       :    566.53s CPU    698.27s WALL (  276433 calls)
     fft          :     49.64s CPU     72.98s WALL (   11995 calls)
     ffts         :    112.92s CPU    153.47s WALL (  103428 calls)
     fftw         :   3267.24s CPU   4715.88s WALL ( 6584536 calls)
     interpolate  :      6.00s CPU      7.97s WALL (     916 calls)

     Parallel routines

     PAW routines
     PAW_pot      :      7.84s CPU     10.99s WALL (     960 calls)
     PAW_symme    :      0.26s CPU      0.35s WALL (    1874 calls)

     Environ routines

     PWSCF        :      3h27m CPU      4h25m WALL


   This run was terminated on:   0: 2: 1   2Jan2025            

=------------------------------------------------------------------------------=
   JOB DONE.
=------------------------------------------------------------------------------=
