
     Program PWSCF v.7.4 starts on  1Jan2025 at 19:37:47 

     This program is part of the open-source Quantum ESPRESSO suite
     for quantum simulation of materials; please cite
         "P. Giannozzi et al., J. Phys.:Condens. Matter 21 395502 (2009);
         "P. Giannozzi et al., J. Phys.:Condens. Matter 29 465901 (2017);
         "P. Giannozzi et al., J. Chem. Phys. 152 154105 (2020);
          URL http://www.quantum-espresso.org", 
     in publications or presentations arising from this work. More details at
     http://www.quantum-espresso.org/quote

     Parallel version (MPI & OpenMP), running on     512 processor cores
     Number of MPI processes:               512
     Threads/MPI process:                     1

     MPI processes distributed on     4 nodes
     228806 MiB available memory on the printing compute node when the environment starts

     Reading input from espresso.pwi
Warning: card &CELL ignored
Warning: card    PRESS_CONV_THR   = 0.1 ignored
Warning: card    CELL_DOFREE      = 'ALL' ignored
Warning: card / ignored
Warning: card &FCP ignored
Warning: card / ignored
Warning: card &RISM ignored
Warning: card / ignored

     Current dimensions of program PWSCF are:
     Max number of different atomic species (ntypx) = 10
     Max number of k-points (npk) =  40000
     Max angular momentum in pseudopotentials (lmaxx) =  4

     IMPORTANT: XC functional enforced from input :
     Exchange-correlation= PBE
                           (   1   4   3   4   0   0   0)
     Any further DFT definition will be discarded
     Please, verify this is what you really want


     Reading input from environ.in:
     * using ionic solvent mode
     * setting boundary derivatives method to SSCS default
     * setting electrolyte-boundary derivatives method to SSCS default

Environ Warning (1001): card EOF ignored

     
     Found identity + (  0.5000  0.0000 -0.0000) symmetry
     This is a supercell, fractional translations are disabled

     K-points division:     npool     =       2
     R & G space division:  proc/nbgrp/npool/nimage =     256
     Subspace diagonalization in iterative solution of the eigenvalue problem:
     a serial algorithm will be used


     Parallelization info
     --------------------
     sticks:   dense  smooth     PW     G-vecs:    dense   smooth      PW
     Min          33      13      3                18746     4723     645
     Max          34      14      4                18791     4776     724
     Sum        8497    3389    941              4805333  1215433  176195

     Using Slab Decomposition



     bravais-lattice index     =           12
     lattice parameter (alat)  =      12.9830  a.u.
     unit-cell volume          =   12574.0519 (a.u.)^3
     number of atoms/cell      =           20
     number of atomic types    =            1
     number of electrons       =        60.00
     number of Kohn-Sham states=           45
     kinetic-energy cutoff     =      80.0000  Ry
     charge density cutoff     =     800.0000  Ry
     scf convergence threshold =      1.0E-06
     mixing beta               =       0.2000
     number of iterations used =            8  local-TF  mixing
     energy convergence thresh.=      1.0E-05
     force convergence thresh. =      3.9E-04
     Exchange-correlation= PBE
                           (   1   4   3   4   0   0   0)
     nstep                     =          999


     ================================================================================

                                  Environ Setup Summary

     ================================================================================

     Please cite

          O. Andreussi, I. Dabo and N. Marzari, J. Chem. Phys. 136, 064102 (2012)
          F. Nattino, M. Truscott, N. Marzari, and O. Andreussi, J. Chem. Phys. 150, 041722 (2019)

     in publications or presentations arising from this work.

     ================================================================================

     Parameters
     ==========

     compensation onset threshold      =               0.1000E+00
     static permittivity               =                    89.90
     surface tension in input (dyn/cm) =                    37.30
     surface tension in internal units =               0.4792E-04

     Solvent Boundary
     ================

     solvent mode                      =                    ionic
     derivatives method                =                   lowmem
     electrolyte derivatives method    =                   lowmem
     numerical core for derivatives    =                      fft
     switching function adopted        =                     SCCS
     density limit for vacuum region   =               0.5000E-02
     density limit for bulk solvent    =               0.1000E-03
     soft-sphere radius mode           =                    bondi
     soft-sphere softness              =                     0.50
     alpha                             =                     1.32

     Electrostatic Setup
     ===================

     electrostatic problem to solve    =                    modpb
     numerical solver adopted          =                   newton
     type of auxiliary density adopted =                     none
     numerical core for poisson        =                      fft
     adopting a nested solver scheme
     inner solver                      =                       cg
     inner core                        =                      fft
     type of pbc corrections           =                parabolic
     numerical core for corrections    =                      1da

     ================================================================================


     >>>>> Grand-Canonical SCF is activated <<<<<
     Initial Total Charge  =     0.000000 e
     Target Fermi Energy   =    -3.404000 eV
     Thr. of Fermi Energy  =     0.001000 eV
     Wave-shift of Kerker  =     0.400000 bohr^-1
     Wave-shift of Hartree =     1.500000 bohr^-1
     Mixing Rate of Fermi  =     0.050000

     celldm(1)=  12.983009  celldm(2)=   0.829156  celldm(3)=   7.267908
     celldm(4)=  -0.301511  celldm(5)=   0.000000  celldm(6)=   0.000000

     crystal axes: (cart. coord. in units of alat)
               a(1) = (   1.000000   0.000000   0.000000 )  
               a(2) = (  -0.250000   0.790569   0.000000 )  
               a(3) = (   0.000000   0.000000   7.267908 )  

     reciprocal axes: (cart. coord. in units 2 pi/alat)
               b(1) = (  1.000000  0.316228 -0.000000 )  
               b(2) = (  0.000000  1.264912  0.000000 )  
               b(3) = (  0.000000 -0.000000  0.137591 )  


     PseudoPot. # 1 for Li read from file:
     /work/e89/e89/ba3g18/Repos/Pseudopotentials/Pslibrary/Li.pbe-sl-kjpaw_psl.1.0.0.UPF
     MD5 check sum: 3f4d2cafebb47c6c3aa8ed472e6f074d
     Pseudo is Projector augmented-wave, Zval =  3.0
     Generated using 'atomic' code by A. Dal Corso  v.7.4
     Shape of augmentation charge: PSQ
     Using radial grid of 1017 points,  4 beta functions with: 
                l(1) =   0
                l(2) =   0
                l(3) =   1
                l(4) =   1
     Q(r) pseudized with 0 coefficients 


     atomic species   valence    mass     pseudopotential
     Li                3.00     6.94000     Li( 1.00)

     No symmetry found


                                    s                        frac. trans.

      isym =  1     identity                                     

 cryst.   s( 1) = (     1          0          0      )
                  (     0          1          0      )
                  (     0          0          1      )

 cart.    s( 1) = (  1.0000000 -0.0000000  0.0000000 )
                  (  0.0000000  1.0000000  0.0000000 )
                  (  0.0000000  0.0000000  1.0000000 )


     point group C_1 (1)    
     there are  1 classes
     the character table:

       E    
A      1.00

     the symmetry operations in each class and the name of the first element:

     E        1
          identity                                               

   Cartesian axes

     site n.     atom                  positions (alat units)
         1        Li     tau(   1) = (   0.2503994   0.3265251   3.0691953  )
         2        Li     tau(   2) = (   0.0003906   0.6336293   3.2542296  )
         3        Li     tau(   3) = (   0.0001999   0.1668381   3.3784439  )
         4        Li     tau(   4) = (   0.2501127   0.4681284   3.5694301  )
         5        Li     tau(   5) = (   0.2498822   0.0062157   3.6984756  )
         6        Li     tau(   6) = (  -0.0001999   0.3075037   3.8894637  )
         7        Li     tau(   7) = (   0.2496070   0.6312840   4.0136757  )
         8        Li     tau(   8) = (   0.2496016   0.1478161   4.1987148  )
         9        Li     tau(   9) = (  -0.0004490   0.5024846   4.3402226  )
        10        Li     tau(  10) = (   0.5004499  -0.0281427   2.9276879  )
        11        Li     tau(  11) = (   0.7503985   0.3265257   3.0691926  )
        12        Li     tau(  12) = (   0.5003930   0.6336269   3.2542317  )
        13        Li     tau(  13) = (   0.5002026   0.1668380   3.3784481  )
        14        Li     tau(  14) = (   0.7501179   0.4681261   3.5694319  )
        15        Li     tau(  15) = (   0.7498872   0.0062134   3.6984773  )
        16        Li     tau(  16) = (   0.4997975   0.3075038   3.8894593  )
        17        Li     tau(  17) = (   0.7496094   0.6312815   4.0136779  )
        18        Li     tau(  18) = (   0.7496006   0.1478167   4.1987121  )
        19        Li     tau(  19) = (   0.4995501   0.5024846   4.3402196  )
        20        Li     tau(  20) = (   1.0004490  -0.0281428   2.9276850  )

   Crystallographic axes

     site n.     atom                  positions (cryst. coord.)
         1        Li     tau(   1) = (  0.3536558  0.4130255  0.4222942  )
         2        Li     tau(   2) = (  0.2007619  0.8014852  0.4477533  )
         3        Li     tau(   3) = (  0.0529587  0.2110355  0.4648441  )
         4        Li     tau(   4) = (  0.3981480  0.5921411  0.4911221  )
         5        Li     tau(   5) = (  0.2518477  0.0078623  0.5088776  )
         6        Li     tau(   6) = (  0.0970414  0.3889651  0.5351559  )
         7        Li     tau(   7) = (  0.4492367  0.7985185  0.5522464  )
         8        Li     tau(   8) = (  0.2963452  0.1869743  0.5777061  )
         9        Li     tau(   9) = (  0.1584507  0.6355986  0.5971764  )
        10        Li     tau(  10) = (  0.4915504 -0.0355980  0.4028240  )
        11        Li     tau(  11) = (  0.8536551  0.4130261  0.4222938  )
        12        Li     tau(  12) = (  0.7007635  0.8014821  0.4477536  )
        13        Li     tau(  13) = (  0.5529614  0.2110353  0.4648447  )
        14        Li     tau(  14) = (  0.8981525  0.5921382  0.4911224  )
        15        Li     tau(  15) = (  0.7518521  0.0078594  0.5088779  )
        16        Li     tau(  16) = (  0.5970388  0.3889652  0.5351553  )
        17        Li     tau(  17) = (  0.9492383  0.7985154  0.5522467  )
        18        Li     tau(  18) = (  0.7963443  0.1869751  0.5777058  )
        19        Li     tau(  19) = (  0.6584498  0.6355987  0.5971760  )
        20        Li     tau(  20) = (  0.9915494 -0.0355982  0.4028236  )

     number of k points=    62  Marzari-Vanderbilt smearing, width (Ry)=  0.0100
                       cart. coord. in units 2pi/alat
        k(    1) = (   0.0000000   0.0000000   0.0000000), wk =   0.0166667
        k(    2) = (   0.0000000   0.1054093   0.0000000), wk =   0.0333333
        k(    3) = (   0.0000000   0.2108186   0.0000000), wk =   0.0333333
        k(    4) = (   0.0000000   0.3162279   0.0000000), wk =   0.0333333
        k(    5) = (   0.0000000   0.4216372   0.0000000), wk =   0.0333333
        k(    6) = (   0.0000000   0.5270466   0.0000000), wk =   0.0333333
        k(    7) = (   0.0000000  -0.6324559   0.0000000), wk =   0.0166667
        k(    8) = (   0.1000000   0.0316228   0.0000000), wk =   0.0333333
        k(    9) = (   0.1000000   0.1370321   0.0000000), wk =   0.0333333
        k(   10) = (   0.1000000   0.2424414   0.0000000), wk =   0.0333333
        k(   11) = (   0.1000000   0.3478507   0.0000000), wk =   0.0333333
        k(   12) = (   0.1000000   0.4532600   0.0000000), wk =   0.0333333
        k(   13) = (   0.1000000   0.5586693   0.0000000), wk =   0.0333333
        k(   14) = (   0.1000000  -0.6008331   0.0000000), wk =   0.0333333
        k(   15) = (   0.1000000  -0.4954238   0.0000000), wk =   0.0333333
        k(   16) = (   0.1000000  -0.3900144   0.0000000), wk =   0.0333333
        k(   17) = (   0.1000000  -0.2846051   0.0000000), wk =   0.0333333
        k(   18) = (   0.1000000  -0.1791958   0.0000000), wk =   0.0333333
        k(   19) = (   0.1000000  -0.0737865   0.0000000), wk =   0.0333333
        k(   20) = (   0.2000000   0.0632456   0.0000000), wk =   0.0333333
        k(   21) = (   0.2000000   0.1686549   0.0000000), wk =   0.0333333
        k(   22) = (   0.2000000   0.2740642   0.0000000), wk =   0.0333333
        k(   23) = (   0.2000000   0.3794735   0.0000000), wk =   0.0333333
        k(   24) = (   0.2000000   0.4848828   0.0000000), wk =   0.0333333
        k(   25) = (   0.2000000   0.5902921   0.0000000), wk =   0.0333333
        k(   26) = (   0.2000000  -0.5692103   0.0000000), wk =   0.0333333
        k(   27) = (   0.2000000  -0.4638010   0.0000000), wk =   0.0333333
        k(   28) = (   0.2000000  -0.3583917   0.0000000), wk =   0.0333333
        k(   29) = (   0.2000000  -0.2529823   0.0000000), wk =   0.0333333
        k(   30) = (   0.2000000  -0.1475730   0.0000000), wk =   0.0333333
        k(   31) = (   0.2000000  -0.0421637   0.0000000), wk =   0.0333333
        k(   32) = (   0.3000000   0.0948684   0.0000000), wk =   0.0333333
        k(   33) = (   0.3000000   0.2002777   0.0000000), wk =   0.0333333
        k(   34) = (   0.3000000   0.3056870   0.0000000), wk =   0.0333333
        k(   35) = (   0.3000000   0.4110963   0.0000000), wk =   0.0333333
        k(   36) = (   0.3000000   0.5165056   0.0000000), wk =   0.0333333
        k(   37) = (   0.3000000   0.6219149   0.0000000), wk =   0.0333333
        k(   38) = (   0.3000000  -0.5375875   0.0000000), wk =   0.0333333
        k(   39) = (   0.3000000  -0.4321782   0.0000000), wk =   0.0333333
        k(   40) = (   0.3000000  -0.3267689   0.0000000), wk =   0.0333333
        k(   41) = (   0.3000000  -0.2213596   0.0000000), wk =   0.0333333
        k(   42) = (   0.3000000  -0.1159502   0.0000000), wk =   0.0333333
        k(   43) = (   0.3000000  -0.0105409   0.0000000), wk =   0.0333333
        k(   44) = (   0.4000000   0.1264912   0.0000000), wk =   0.0333333
        k(   45) = (   0.4000000   0.2319005   0.0000000), wk =   0.0333333
        k(   46) = (   0.4000000   0.3373098   0.0000000), wk =   0.0333333
        k(   47) = (   0.4000000   0.4427191   0.0000000), wk =   0.0333333
        k(   48) = (   0.4000000   0.5481284   0.0000000), wk =   0.0333333
        k(   49) = (   0.4000000   0.6535377   0.0000000), wk =   0.0333333
        k(   50) = (   0.4000000  -0.5059647   0.0000000), wk =   0.0333333
        k(   51) = (   0.4000000  -0.4005554   0.0000000), wk =   0.0333333
        k(   52) = (   0.4000000  -0.2951461   0.0000000), wk =   0.0333333
        k(   53) = (   0.4000000  -0.1897368   0.0000000), wk =   0.0333333
        k(   54) = (   0.4000000  -0.0843274   0.0000000), wk =   0.0333333
        k(   55) = (   0.4000000   0.0210819   0.0000000), wk =   0.0333333
        k(   56) = (  -0.5000000  -0.1581140   0.0000000), wk =   0.0166667
        k(   57) = (  -0.5000000  -0.0527047   0.0000000), wk =   0.0333333
        k(   58) = (  -0.5000000   0.0527047   0.0000000), wk =   0.0333333
        k(   59) = (  -0.5000000   0.1581140   0.0000000), wk =   0.0333333
        k(   60) = (  -0.5000000   0.2635233   0.0000000), wk =   0.0333333
        k(   61) = (  -0.5000000   0.3689326   0.0000000), wk =   0.0333333
        k(   62) = (  -0.5000000  -0.7905698   0.0000000), wk =   0.0166667

                       cryst. coord.
        k(    1) = (   0.0000000   0.0000000   0.0000000), wk =   0.0166667
        k(    2) = (   0.0000000   0.0833333   0.0000000), wk =   0.0333333
        k(    3) = (   0.0000000   0.1666667   0.0000000), wk =   0.0333333
        k(    4) = (   0.0000000   0.2500000   0.0000000), wk =   0.0333333
        k(    5) = (   0.0000000   0.3333333   0.0000000), wk =   0.0333333
        k(    6) = (   0.0000000   0.4166667   0.0000000), wk =   0.0333333
        k(    7) = (   0.0000000  -0.5000000   0.0000000), wk =   0.0166667
        k(    8) = (   0.1000000  -0.0000000   0.0000000), wk =   0.0333333
        k(    9) = (   0.1000000   0.0833333   0.0000000), wk =   0.0333333
        k(   10) = (   0.1000000   0.1666667   0.0000000), wk =   0.0333333
        k(   11) = (   0.1000000   0.2500000   0.0000000), wk =   0.0333333
        k(   12) = (   0.1000000   0.3333333   0.0000000), wk =   0.0333333
        k(   13) = (   0.1000000   0.4166667   0.0000000), wk =   0.0333333
        k(   14) = (   0.1000000  -0.5000000   0.0000000), wk =   0.0333333
        k(   15) = (   0.1000000  -0.4166667   0.0000000), wk =   0.0333333
        k(   16) = (   0.1000000  -0.3333333   0.0000000), wk =   0.0333333
        k(   17) = (   0.1000000  -0.2500000   0.0000000), wk =   0.0333333
        k(   18) = (   0.1000000  -0.1666667   0.0000000), wk =   0.0333333
        k(   19) = (   0.1000000  -0.0833333   0.0000000), wk =   0.0333333
        k(   20) = (   0.2000000  -0.0000000   0.0000000), wk =   0.0333333
        k(   21) = (   0.2000000   0.0833333   0.0000000), wk =   0.0333333
        k(   22) = (   0.2000000   0.1666667   0.0000000), wk =   0.0333333
        k(   23) = (   0.2000000   0.2500000   0.0000000), wk =   0.0333333
        k(   24) = (   0.2000000   0.3333333   0.0000000), wk =   0.0333333
        k(   25) = (   0.2000000   0.4166667   0.0000000), wk =   0.0333333
        k(   26) = (   0.2000000  -0.5000000   0.0000000), wk =   0.0333333
        k(   27) = (   0.2000000  -0.4166667   0.0000000), wk =   0.0333333
        k(   28) = (   0.2000000  -0.3333333   0.0000000), wk =   0.0333333
        k(   29) = (   0.2000000  -0.2500000   0.0000000), wk =   0.0333333
        k(   30) = (   0.2000000  -0.1666667   0.0000000), wk =   0.0333333
        k(   31) = (   0.2000000  -0.0833333   0.0000000), wk =   0.0333333
        k(   32) = (   0.3000000  -0.0000000   0.0000000), wk =   0.0333333
        k(   33) = (   0.3000000   0.0833333   0.0000000), wk =   0.0333333
        k(   34) = (   0.3000000   0.1666667   0.0000000), wk =   0.0333333
        k(   35) = (   0.3000000   0.2500000   0.0000000), wk =   0.0333333
        k(   36) = (   0.3000000   0.3333333   0.0000000), wk =   0.0333333
        k(   37) = (   0.3000000   0.4166667   0.0000000), wk =   0.0333333
        k(   38) = (   0.3000000  -0.5000000   0.0000000), wk =   0.0333333
        k(   39) = (   0.3000000  -0.4166667   0.0000000), wk =   0.0333333
        k(   40) = (   0.3000000  -0.3333333   0.0000000), wk =   0.0333333
        k(   41) = (   0.3000000  -0.2500000   0.0000000), wk =   0.0333333
        k(   42) = (   0.3000000  -0.1666667   0.0000000), wk =   0.0333333
        k(   43) = (   0.3000000  -0.0833333   0.0000000), wk =   0.0333333
        k(   44) = (   0.4000000  -0.0000000   0.0000000), wk =   0.0333333
        k(   45) = (   0.4000000   0.0833333   0.0000000), wk =   0.0333333
        k(   46) = (   0.4000000   0.1666667   0.0000000), wk =   0.0333333
        k(   47) = (   0.4000000   0.2500000   0.0000000), wk =   0.0333333
        k(   48) = (   0.4000000   0.3333333   0.0000000), wk =   0.0333333
        k(   49) = (   0.4000000   0.4166667   0.0000000), wk =   0.0333333
        k(   50) = (   0.4000000  -0.5000000   0.0000000), wk =   0.0333333
        k(   51) = (   0.4000000  -0.4166667   0.0000000), wk =   0.0333333
        k(   52) = (   0.4000000  -0.3333333   0.0000000), wk =   0.0333333
        k(   53) = (   0.4000000  -0.2500000   0.0000000), wk =   0.0333333
        k(   54) = (   0.4000000  -0.1666667   0.0000000), wk =   0.0333333
        k(   55) = (   0.4000000  -0.0833333   0.0000000), wk =   0.0333333
        k(   56) = (  -0.5000000   0.0000000   0.0000000), wk =   0.0166667
        k(   57) = (  -0.5000000   0.0833333   0.0000000), wk =   0.0333333
        k(   58) = (  -0.5000000   0.1666667   0.0000000), wk =   0.0333333
        k(   59) = (  -0.5000000   0.2500000   0.0000000), wk =   0.0333333
        k(   60) = (  -0.5000000   0.3333333   0.0000000), wk =   0.0333333
        k(   61) = (  -0.5000000   0.4166667   0.0000000), wk =   0.0333333
        k(   62) = (  -0.5000000  -0.5000000   0.0000000), wk =   0.0166667

     Dense  grid:  4805333 G-vectors     FFT dimensions: ( 120, 100, 864)

     Smooth grid:  1215433 G-vectors     FFT dimensions: (  75,  64, 540)

     Dynamical RAM for                 wfc:       0.41 MB

     Dynamical RAM for     wfc (w. buffer):      13.03 MB

     Dynamical RAM for           str. fact:       0.29 MB

     Dynamical RAM for           local pot:       0.00 MB

     Dynamical RAM for          nlocal pot:       1.45 MB

     Dynamical RAM for                qrad:       0.65 MB

     Dynamical RAM for          rho,v,vnew:       1.96 MB

     Dynamical RAM for               rhoin:       0.65 MB

     Dynamical RAM for            rho*nmix:       4.59 MB

     Dynamical RAM for           G-vectors:       1.11 MB

     Dynamical RAM for          h,s,v(r/c):       1.48 MB

     Dynamical RAM for          <psi|beta>:       0.11 MB

     Dynamical RAM for                 psi:       1.63 MB

     Dynamical RAM for                hpsi:       1.63 MB

     Dynamical RAM for                spsi:       1.63 MB

     Dynamical RAM for      wfcinit/wfcrot:       0.86 MB

     Dynamical RAM for           addusdens:       9.17 MB

     Dynamical RAM for          addusforce:      14.64 MB

     Estimated static dynamical RAM per process >      21.54 MB

     Estimated max dynamical RAM per process >      73.32 MB

     Estimated total dynamical RAM >      19.24 GB

     Initial potential from superposition of free atoms

     starting charge      59.9078, renormalised to      60.0000

     negative rho (up, down):  2.154E-03 0.000E+00
     Starting wfcs are random
     Checking if some PAW data can be deallocated... 

     total cpu time spent up to now is       19.5 secs

     Self-consistent Calculation

     iteration #  1     ecut=    80.00 Ry     beta= 0.20
     Davidson diagonalization with overlap

---- Real-time Memory Report at c_bands before calling an iterative solver
           267 MiB given to the printing process from OS
             0 MiB allocation reported by mallinfo(arena+hblkhd)
        218548 MiB available memory on the node where the printing process lives
------------------
     ethr =  1.00E-12,  avg # of iterations = 98.2

     negative rho (up, down):  1.595E-03 0.000E+00

     add environment contribution to local potential

     total cpu time spent up to now is      142.0 secs

     total energy              =    -300.71816445 Ry
     estimated scf accuracy    <       0.07489185 Ry

     total charge of GC-SCF    =       0.02622373 e
     the Fermi energy          =      -4.57182196 eV
                        (error :       1.16782196 eV)
     electrostatic embedding   =       0.00000000 Ry
     cavitation energy         =       0.01534486 Ry
     electrolyte free energy   =       0.00541203 Ry
     correction to one-el term =      -0.00000000 Ry

     iteration #  2     ecut=    80.00 Ry     beta= 0.20
     Davidson diagonalization with overlap

---- Real-time Memory Report at c_bands before calling an iterative solver
           267 MiB given to the printing process from OS
             0 MiB allocation reported by mallinfo(arena+hblkhd)
        219693 MiB available memory on the node where the printing process lives
------------------
     ethr =  1.00E-05,  avg # of iterations = 14.2

     negative rho (up, down):  1.239E-03 0.000E+00

     add environment contribution to local potential

     total cpu time spent up to now is      161.0 secs

     total energy              =    -300.72303726 Ry
     estimated scf accuracy    <       0.01871900 Ry

     total charge of GC-SCF    =       0.04346673 e
     the Fermi energy          =      -3.63243481 eV
                        (error :       0.22843481 eV)
     electrostatic embedding   =      -0.01936891 Ry
     cavitation energy         =       0.01534486 Ry
     electrolyte free energy   =      -0.00314633 Ry
     correction to one-el term =      -0.99438252 Ry

     iteration #  3     ecut=    80.00 Ry     beta= 0.20
     Davidson diagonalization with overlap

---- Real-time Memory Report at c_bands before calling an iterative solver
           267 MiB given to the printing process from OS
             0 MiB allocation reported by mallinfo(arena+hblkhd)
        219762 MiB available memory on the node where the printing process lives
------------------
     ethr =  1.00E-05,  avg # of iterations = 10.1

     negative rho (up, down):  9.561E-04 0.000E+00

     add environment contribution to local potential

     total cpu time spent up to now is      176.0 secs

     total energy              =    -300.69732320 Ry
     estimated scf accuracy    <       0.01157836 Ry

     total charge of GC-SCF    =       0.10183807 e
     the Fermi energy          =      -3.33339058 eV
                        (error :       0.07060942 eV)
     electrostatic embedding   =      -0.01749006 Ry
     cavitation energy         =       0.01534486 Ry
     electrolyte free energy   =      -0.00277321 Ry
     correction to one-el term =      -1.52710234 Ry

     iteration #  4     ecut=    80.00 Ry     beta= 0.20
     Davidson diagonalization with overlap

---- Real-time Memory Report at c_bands before calling an iterative solver
           267 MiB given to the printing process from OS
             0 MiB allocation reported by mallinfo(arena+hblkhd)
        219810 MiB available memory on the node where the printing process lives
------------------
     ethr =  1.00E-05,  avg # of iterations = 12.0

     negative rho (up, down):  7.847E-04 0.000E+00

     add environment contribution to local potential

     total cpu time spent up to now is      194.2 secs

     total energy              =    -300.72086273 Ry
     estimated scf accuracy    <       0.00178648 Ry

     total charge of GC-SCF    =       0.17242889 e
     the Fermi energy          =      -2.94226432 eV
                        (error :       0.46173568 eV)
     electrostatic embedding   =      -0.01544740 Ry
     cavitation energy         =       0.01534486 Ry
     electrolyte free energy   =      -0.00165918 Ry
     correction to one-el term =      -2.76009660 Ry

     iteration #  5     ecut=    80.00 Ry     beta= 0.20
     Davidson diagonalization with overlap

---- Real-time Memory Report at c_bands before calling an iterative solver
           267 MiB given to the printing process from OS
             0 MiB allocation reported by mallinfo(arena+hblkhd)
        219825 MiB available memory on the node where the printing process lives
------------------
     ethr =  2.99E-06,  avg # of iterations = 12.1

     negative rho (up, down):  6.618E-04 0.000E+00

     add environment contribution to local potential

     total cpu time spent up to now is      212.0 secs

     total energy              =    -300.72448061 Ry
     estimated scf accuracy    <       0.00088607 Ry

     total charge of GC-SCF    =       0.25432024 e
     the Fermi energy          =      -2.87309352 eV
                        (error :       0.53090648 eV)
     electrostatic embedding   =      -0.01789551 Ry
     cavitation energy         =       0.01534486 Ry
     electrolyte free energy   =      -0.00139429 Ry
     correction to one-el term =      -4.25580207 Ry

     iteration #  6     ecut=    80.00 Ry     beta= 0.20
     Davidson diagonalization with overlap

---- Real-time Memory Report at c_bands before calling an iterative solver
           267 MiB given to the printing process from OS
             0 MiB allocation reported by mallinfo(arena+hblkhd)
        219825 MiB available memory on the node where the printing process lives
------------------
     ethr =  1.48E-06,  avg # of iterations = 12.1

     negative rho (up, down):  5.881E-04 0.000E+00

     add environment contribution to local potential

     total cpu time spent up to now is      230.0 secs

     total energy              =    -300.72482595 Ry
     estimated scf accuracy    <       0.00042549 Ry

     total charge of GC-SCF    =       0.34436706 e
     the Fermi energy          =      -2.88568294 eV
                        (error :       0.51831706 eV)
     electrostatic embedding   =      -0.02443672 Ry
     cavitation energy         =       0.01534486 Ry
     electrolyte free energy   =      -0.00145297 Ry
     correction to one-el term =      -6.18393864 Ry

     iteration #  7     ecut=    80.00 Ry     beta= 0.20
     Davidson diagonalization with overlap

---- Real-time Memory Report at c_bands before calling an iterative solver
           267 MiB given to the printing process from OS
             0 MiB allocation reported by mallinfo(arena+hblkhd)
        219822 MiB available memory on the node where the printing process lives
------------------
     ethr =  7.13E-07,  avg # of iterations = 12.5

     negative rho (up, down):  5.409E-04 0.000E+00

     add environment contribution to local potential

     total cpu time spent up to now is      247.8 secs

     total energy              =    -300.72756474 Ry
     estimated scf accuracy    <       0.00034906 Ry

     total charge of GC-SCF    =       0.43694933 e
     the Fermi energy          =      -2.98109383 eV
                        (error :       0.42290617 eV)
     electrostatic embedding   =      -0.03504808 Ry
     cavitation energy         =       0.01534486 Ry
     electrolyte free energy   =      -0.00184488 Ry
     correction to one-el term =      -8.82455619 Ry

     iteration #  8     ecut=    80.00 Ry     beta= 0.20
     Davidson diagonalization with overlap

---- Real-time Memory Report at c_bands before calling an iterative solver
           267 MiB given to the printing process from OS
             0 MiB allocation reported by mallinfo(arena+hblkhd)
        219764 MiB available memory on the node where the printing process lives
------------------
     ethr =  5.86E-07,  avg # of iterations = 12.1

     negative rho (up, down):  5.547E-04 0.000E+00

     add environment contribution to local potential

     total cpu time spent up to now is      264.2 secs

     total energy              =    -300.72735967 Ry
     estimated scf accuracy    <       0.00017013 Ry

     total charge of GC-SCF    =       0.56117450 e
     the Fermi energy          =      -2.97725011 eV
                        (error :       0.42674989 eV)
     electrostatic embedding   =      -0.05125088 Ry
     cavitation energy         =       0.01534486 Ry
     electrolyte free energy   =      -0.00201721 Ry
     correction to one-el term =     -11.68946866 Ry

     iteration #  9     ecut=    80.00 Ry     beta= 0.20
     Davidson diagonalization with overlap

---- Real-time Memory Report at c_bands before calling an iterative solver
           267 MiB given to the printing process from OS
             0 MiB allocation reported by mallinfo(arena+hblkhd)
        219761 MiB available memory on the node where the printing process lives
------------------
     ethr =  2.86E-07,  avg # of iterations = 18.3

     negative rho (up, down):  5.189E-04 0.000E+00

     add environment contribution to local potential

     total cpu time spent up to now is      285.9 secs

     total energy              =    -300.73759768 Ry
     estimated scf accuracy    <       0.00007306 Ry

     total charge of GC-SCF    =       0.59875191 e
     the Fermi energy          =      -3.06129024 eV
                        (error :       0.34270976 eV)
     electrostatic embedding   =      -0.08017816 Ry
     cavitation energy         =       0.01534486 Ry
     electrolyte free energy   =      -0.00257099 Ry
     correction to one-el term =     -15.82104831 Ry

     iteration # 10     ecut=    80.00 Ry     beta= 0.20
     Davidson diagonalization with overlap

---- Real-time Memory Report at c_bands before calling an iterative solver
           267 MiB given to the printing process from OS
             0 MiB allocation reported by mallinfo(arena+hblkhd)
        219732 MiB available memory on the node where the printing process lives
------------------
     ethr =  1.23E-07,  avg # of iterations = 13.0

     negative rho (up, down):  4.209E-04 0.000E+00

     add environment contribution to local potential

     total cpu time spent up to now is      304.6 secs

     total energy              =    -300.73699698 Ry
     estimated scf accuracy    <       0.00006112 Ry

     total charge of GC-SCF    =       0.65859758 e
     the Fermi energy          =      -3.10275559 eV
                        (error :       0.30124441 eV)
     electrostatic embedding   =      -0.09084986 Ry
     cavitation energy         =       0.01534486 Ry
     electrolyte free energy   =      -0.00280885 Ry
     correction to one-el term =     -17.12906418 Ry

     iteration # 11     ecut=    80.00 Ry     beta= 0.20
     Davidson diagonalization with overlap

---- Real-time Memory Report at c_bands before calling an iterative solver
           267 MiB given to the printing process from OS
             0 MiB allocation reported by mallinfo(arena+hblkhd)
        219738 MiB available memory on the node where the printing process lives
------------------
     ethr =  1.03E-07,  avg # of iterations = 14.7

     negative rho (up, down):  3.777E-04 0.000E+00

     add environment contribution to local potential

     total cpu time spent up to now is      324.5 secs

     total energy              =    -300.73768945 Ry
     estimated scf accuracy    <       0.00004686 Ry

     total charge of GC-SCF    =       0.86325802 e
     the Fermi energy          =      -3.13960137 eV
                        (error :       0.26439863 eV)
     electrostatic embedding   =      -0.11013000 Ry
     cavitation energy         =       0.01534486 Ry
     electrolyte free energy   =      -0.00310937 Ry
     correction to one-el term =     -19.12826675 Ry

     iteration # 12     ecut=    80.00 Ry     beta= 0.20
     Davidson diagonalization with overlap

---- Real-time Memory Report at c_bands before calling an iterative solver
           267 MiB given to the printing process from OS
             0 MiB allocation reported by mallinfo(arena+hblkhd)
        219754 MiB available memory on the node where the printing process lives
------------------
     ethr =  7.92E-08,  avg # of iterations = 24.8

     negative rho (up, down):  3.920E-04 0.000E+00

     add environment contribution to local potential

     total cpu time spent up to now is      353.9 secs

     total energy              =    -300.74462998 Ry
     estimated scf accuracy    <       0.00001722 Ry

     total charge of GC-SCF    =       1.01829831 e
     the Fermi energy          =      -3.27376210 eV
                        (error :       0.13023790 eV)
     electrostatic embedding   =      -0.19151169 Ry
     cavitation energy         =       0.01534486 Ry
     electrolyte free energy   =      -0.00431953 Ry
     correction to one-el term =     -25.82750226 Ry

     iteration # 13     ecut=    80.00 Ry     beta= 0.20
     Davidson diagonalization with overlap

---- Real-time Memory Report at c_bands before calling an iterative solver
           267 MiB given to the printing process from OS
             0 MiB allocation reported by mallinfo(arena+hblkhd)
        219772 MiB available memory on the node where the printing process lives
------------------
     ethr =  2.92E-08,  avg # of iterations = 29.4

     negative rho (up, down):  3.496E-04 0.000E+00

     add environment contribution to local potential

     total cpu time spent up to now is      388.5 secs

     total energy              =    -300.74417062 Ry
     estimated scf accuracy    <       0.00000622 Ry

     total charge of GC-SCF    =       1.03925464 e
     the Fermi energy          =      -3.37507967 eV
                        (error :       0.02892033 eV)
     electrostatic embedding   =      -0.26898700 Ry
     cavitation energy         =       0.01534486 Ry
     electrolyte free energy   =      -0.00539055 Ry
     correction to one-el term =     -30.75102645 Ry

     iteration # 14     ecut=    80.00 Ry     beta= 0.20
     Davidson diagonalization with overlap

---- Real-time Memory Report at c_bands before calling an iterative solver
           267 MiB given to the printing process from OS
             0 MiB allocation reported by mallinfo(arena+hblkhd)
        219774 MiB available memory on the node where the printing process lives
------------------
     ethr =  1.05E-08,  avg # of iterations = 15.6

     negative rho (up, down):  3.325E-04 0.000E+00

     add environment contribution to local potential

     total cpu time spent up to now is      409.5 secs

     total energy              =    -300.74420309 Ry
     estimated scf accuracy    <       0.00000161 Ry

     total charge of GC-SCF    =       1.04920792 e
     the Fermi energy          =      -3.38966093 eV
                        (error :       0.01433907 eV)
     electrostatic embedding   =      -0.28100401 Ry
     cavitation energy         =       0.01534486 Ry
     electrolyte free energy   =      -0.00555578 Ry
     correction to one-el term =     -31.43557982 Ry

     iteration # 15     ecut=    80.00 Ry     beta= 0.20
     Davidson diagonalization with overlap

---- Real-time Memory Report at c_bands before calling an iterative solver
           267 MiB given to the printing process from OS
             0 MiB allocation reported by mallinfo(arena+hblkhd)
        219752 MiB available memory on the node where the printing process lives
------------------
     ethr =  2.72E-09,  avg # of iterations = 18.3

     negative rho (up, down):  3.278E-04 0.000E+00

     add environment contribution to local potential

     total cpu time spent up to now is      431.7 secs

     total energy              =    -300.74420632 Ry
     estimated scf accuracy    <       0.00000084 Ry

     total charge of GC-SCF    =       1.05636667 e
     the Fermi energy          =      -3.39693274 eV
                        (error :       0.00706726 eV)
     electrostatic embedding   =      -0.28652930 Ry
     cavitation energy         =       0.01534486 Ry
     electrolyte free energy   =      -0.00562839 Ry
     correction to one-el term =     -31.73393845 Ry

     iteration # 16     ecut=    80.00 Ry     beta= 0.20
     Davidson diagonalization with overlap

---- Real-time Memory Report at c_bands before calling an iterative solver
           267 MiB given to the printing process from OS
             0 MiB allocation reported by mallinfo(arena+hblkhd)
        219741 MiB available memory on the node where the printing process lives
------------------
     ethr =  1.43E-09,  avg # of iterations = 20.5

     negative rho (up, down):  2.679E-04 0.000E+00

     total cpu time spent up to now is      454.0 secs

     End of self-consistent calculation

          k = 0.0000 0.0000 0.0000 (152015 PWs)   bands (ev):

   -50.9463 -50.9459 -50.9448 -50.9445 -50.4011 -50.4010 -50.3996 -50.3995
   -49.9455 -49.9433 -49.9418 -49.9414 -49.9095 -49.9053 -49.9041 -49.9018
   -49.8720 -49.8714 -49.8713 -49.8707  -6.8035  -6.2773  -5.3496  -4.1825
    -4.1749  -4.1261  -3.7226  -3.6812  -3.1577  -3.1573  -3.1141  -2.9813
    -2.8538  -2.7719  -2.6032  -2.4801  -2.2672  -1.8952  -1.8319  -1.8080
    -1.6007  -0.3565  -0.3419  -0.2793  -0.1569

     occupation numbers 
     1.0000   1.0000   1.0000   1.0000   1.0000   1.0000   1.0000   1.0000
     1.0000   1.0000   1.0000   1.0000   1.0000   1.0000   1.0000   1.0000
     1.0000   1.0000   1.0000   1.0000   1.0000   1.0000   1.0000   1.0000
     1.0000   1.0000   1.0172   1.0380   0.0009   0.0009   0.0002   0.0000
     0.0000   0.0000   0.0000   0.0000   0.0000   0.0000   0.0000   0.0000
     0.0000   0.0000   0.0000   0.0000   0.0000

          k = 0.0000 0.1054 0.0000 (152006 PWs)   bands (ev):

   -50.9463 -50.9459 -50.9448 -50.9445 -50.4011 -50.4010 -50.3996 -50.3995
   -49.9455 -49.9433 -49.9418 -49.9414 -49.9095 -49.9053 -49.9041 -49.9018
   -49.8720 -49.8714 -49.8713 -49.8707  -6.7771  -6.2510  -5.3237  -4.2990
    -4.1048  -4.0161  -3.8169  -3.6205  -3.5386  -3.2382  -3.1675  -3.0669
    -2.7816  -2.6744  -2.6304  -2.5473  -2.1697  -2.0312  -1.7690  -1.5589
    -1.4461  -0.3470  -0.3208  -0.2504  -0.1211

     occupation numbers 
     1.0000   1.0000   1.0000   1.0000   1.0000   1.0000   1.0000   1.0000
     1.0000   1.0000   1.0000   1.0000   1.0000   1.0000   1.0000   1.0000
     1.0000   1.0000   1.0000   1.0000   1.0000   1.0000   1.0000   1.0000
     1.0000   1.0000   1.0013   1.0770   1.0235   0.0130   0.0013   0.0000
     0.0000   0.0000   0.0000   0.0000   0.0000   0.0000   0.0000   0.0000
     0.0000   0.0000   0.0000   0.0000   0.0000

          k = 0.0000 0.2108 0.0000 (151950 PWs)   bands (ev):

   -50.9463 -50.9459 -50.9448 -50.9445 -50.4011 -50.4010 -50.3996 -50.3995
   -49.9453 -49.9433 -49.9418 -49.9414 -49.9097 -49.9053 -49.9041 -49.9018
   -49.8721 -49.8714 -49.8713 -49.8707  -6.6980  -6.1721  -5.2462  -4.3720
    -4.1801  -4.0036  -3.9093  -3.7862  -3.6790  -3.3489  -3.2881  -3.1586
    -2.8976  -2.8253  -2.6815  -2.5789  -2.0466  -2.0115  -1.5724  -1.2866
    -1.1234  -0.3130  -0.2604  -0.1600  -0.0149

     occupation numbers 
     1.0000   1.0000   1.0000   1.0000   1.0000   1.0000   1.0000   1.0000
     1.0000   1.0000   1.0000   1.0000   1.0000   1.0000   1.0000   1.0000
     1.0000   1.0000   1.0000   1.0000   1.0000   1.0000   1.0000   1.0000
     1.0000   1.0000   1.0000   1.0033   1.0394   0.1737   0.0488   0.0009
     0.0000   0.0000   0.0000   0.0000   0.0000   0.0000   0.0000   0.0000
     0.0000   0.0000   0.0000   0.0000   0.0000

          k = 0.0000 0.3162 0.0000 (151988 PWs)   bands (ev):

   -50.9463 -50.9459 -50.9448 -50.9445 -50.4011 -50.4010 -50.3996 -50.3995
   -49.9451 -49.9432 -49.9418 -49.9414 -49.9099 -49.9053 -49.9041 -49.9019
   -49.8721 -49.8714 -49.8713 -49.8707  -6.5660  -6.0407  -5.1189  -4.6576
    -4.3965  -4.1465  -3.9251  -3.9052  -3.5591  -3.5519  -3.2472  -3.1682
    -3.0907  -3.0832  -2.6179  -2.5704  -2.0664  -2.0428  -1.3911  -1.1816
    -0.7895  -0.2978  -0.0966  -0.0019   0.0538

     occupation numbers 
     1.0000   1.0000   1.0000   1.0000   1.0000   1.0000   1.0000   1.0000
     1.0000   1.0000   1.0000   1.0000   1.0000   1.0000   1.0000   1.0000
     1.0000   1.0000   1.0000   1.0000   1.0000   1.0000   1.0000   1.0000
     1.0000   1.0000   1.0000   1.0000   1.0605   1.0497   0.0168   0.0013
     0.0001   0.0000   0.0000   0.0000   0.0000   0.0000   0.0000   0.0000
     0.0000   0.0000   0.0000   0.0000   0.0000

          k = 0.0000 0.4216 0.0000 (151948 PWs)   bands (ev):

   -50.9463 -50.9459 -50.9448 -50.9445 -50.4011 -50.4010 -50.3996 -50.3995
   -49.9449 -49.9432 -49.9418 -49.9414 -49.9100 -49.9053 -49.9041 -49.9019
   -49.8721 -49.8714 -49.8713 -49.8707  -6.3809  -5.8573  -5.1051  -4.9526
    -4.5614  -4.3721  -3.9095  -3.8447  -3.7860  -3.5354  -3.3495  -3.2892
    -3.1594  -2.8247  -2.6369  -2.5768  -2.1470  -2.0460  -1.3015  -1.2852
    -0.7198  -0.3131  -0.2588   0.1253   0.2741

     occupation numbers 
     1.0000   1.0000   1.0000   1.0000   1.0000   1.0000   1.0000   1.0000
     1.0000   1.0000   1.0000   1.0000   1.0000   1.0000   1.0000   1.0000
     1.0000   1.0000   1.0000   1.0000   1.0000   1.0000   1.0000   1.0000
     1.0000   1.0000   1.0000   1.0005   1.0034   1.0160   0.1757   0.0502
     0.0009   0.0000   0.0000   0.0000   0.0000   0.0000   0.0000   0.0000
     0.0000   0.0000   0.0000   0.0000   0.0000

          k = 0.0000 0.5270 0.0000 (152033 PWs)   bands (ev):

   -50.9463 -50.9459 -50.9448 -50.9445 -50.4011 -50.4010 -50.3996 -50.3995
   -49.9448 -49.9432 -49.9418 -49.9414 -49.9102 -49.9054 -49.9041 -49.9019
   -49.8721 -49.8715 -49.8713 -49.8707  -6.1428  -5.6300  -5.4939  -5.0105
    -4.6620  -4.2990  -4.0893  -4.0160  -3.8174  -3.5391  -3.4610  -3.1689
    -3.0688  -2.8284  -2.6292  -2.5452  -2.0695  -2.0293  -1.5564  -1.3379
    -0.7099  -0.3472  -0.3195  -0.0455   0.2333

     occupation numbers 
     1.0000   1.0000   1.0000   1.0000   1.0000   1.0000   1.0000   1.0000
     1.0000   1.0000   1.0000   1.0000   1.0000   1.0000   1.0000   1.0000
     1.0000   1.0000   1.0000   1.0000   1.0000   1.0000   1.0000   1.0000
     1.0000   1.0000   1.0000   1.0000   1.0013   1.0246   0.7089   0.0013
     0.0000   0.0000   0.0000   0.0000   0.0000   0.0000   0.0000   0.0000
     0.0000   0.0000   0.0000   0.0000   0.0000

          k = 0.0000-0.6325 0.0000 (151994 PWs)   bands (ev):

   -50.9463 -50.9459 -50.9448 -50.9445 -50.4011 -50.4010 -50.3996 -50.3995
   -49.9447 -49.9431 -49.9418 -49.9414 -49.9102 -49.9054 -49.9041 -49.9019
   -49.8721 -49.8715 -49.8713 -49.8707  -5.8533  -5.8508  -5.3427  -5.3187
    -4.4359  -4.3659  -4.1828  -4.1745  -3.7242  -3.6806  -3.3430  -3.1590
    -2.9835  -2.9747  -2.6002  -2.4801  -1.9962  -1.8919  -1.8293  -1.4079
    -0.6574  -0.3568  -0.3408  -0.0478   0.0835

     occupation numbers 
     1.0000   1.0000   1.0000   1.0000   1.0000   1.0000   1.0000   1.0000
     1.0000   1.0000   1.0000   1.0000   1.0000   1.0000   1.0000   1.0000
     1.0000   1.0000   1.0000   1.0000   1.0000   1.0000   1.0000   1.0000
     1.0000   1.0000   1.0000   1.0000   1.0166   1.0384   0.1563   0.0009
     0.0000   0.0000   0.0000   0.0000   0.0000   0.0000   0.0000   0.0000
     0.0000   0.0000   0.0000   0.0000   0.0000

          k = 0.1000 0.0316 0.0000 (152067 PWs)   bands (ev):

   -50.9463 -50.9459 -50.9449 -50.9445 -50.4010 -50.4010 -50.3996 -50.3995
   -49.9454 -49.9432 -49.9419 -49.9415 -49.9095 -49.9057 -49.9038 -49.9018
   -49.8720 -49.8714 -49.8713 -49.8707  -6.7774  -6.2512  -5.3235  -4.6748
    -4.1809  -4.1002  -3.6277  -3.3782  -3.2374  -3.2197  -3.0459  -3.0048
    -2.8054  -2.7438  -2.5165  -2.4840  -2.2350  -1.8742  -1.8018  -1.7793
    -1.5611  -0.4381  -0.2920  -0.2521  -0.1223

     occupation numbers 
     1.0000   1.0000   1.0000   1.0000   1.0000   1.0000   1.0000   1.0000
     1.0000   1.0000   1.0000   1.0000   1.0000   1.0000   1.0000   1.0000
     1.0000   1.0000   1.0000   1.0000   1.0000   1.0000   1.0000   1.0000
     1.0000   1.0000   1.0732   0.2808   0.0127   0.0075   0.0000   0.0000
     0.0000   0.0000   0.0000   0.0000   0.0000   0.0000   0.0000   0.0000
     0.0000   0.0000   0.0000   0.0000   0.0000

          k = 0.1000 0.1370 0.0000 (152026 PWs)   bands (ev):

   -50.9463 -50.9459 -50.9449 -50.9445 -50.4010 -50.4010 -50.3996 -50.3995
   -49.9453 -49.9432 -49.9419 -49.9415 -49.9095 -49.9059 -49.9036 -49.9018
   -49.8720 -49.8714 -49.8713 -49.8707  -6.7352  -6.2091  -5.2820  -4.7851
    -4.2896  -4.0684  -3.7525  -3.4763  -3.4496  -3.3360  -3.0717  -2.8997
    -2.7552  -2.6445  -2.5120  -2.4158  -2.0847  -1.9244  -1.7009  -1.5352
    -1.3354  -0.4625  -0.2240  -0.2045  -0.0705

     occupation numbers 
     1.0000   1.0000   1.0000   1.0000   1.0000   1.0000   1.0000   1.0000
     1.0000   1.0000   1.0000   1.0000   1.0000   1.0000   1.0000   1.0000
     1.0000   1.0000   1.0000   1.0000   1.0000   1.0000   1.0000   1.0000
     1.0000   1.0000   1.0085   0.7887   0.6466   0.1368   0.0000   0.0000
     0.0000   0.0000   0.0000   0.0000   0.0000   0.0000   0.0000   0.0000
     0.0000   0.0000   0.0000   0.0000   0.0000

          k = 0.1000 0.2424 0.0000 (151998 PWs)   bands (ev):

   -50.9463 -50.9459 -50.9449 -50.9445 -50.4010 -50.4010 -50.3996 -50.3995
   -49.9452 -49.9432 -49.9419 -49.9415 -49.9097 -49.9060 -49.9035 -49.9018
   -49.8720 -49.8714 -49.8713 -49.8707  -6.6403  -6.1144  -5.1892  -4.8455
    -4.3492  -4.2974  -3.9647  -3.7916  -3.5159  -3.2630  -2.9961  -2.9673
    -2.8902  -2.6378  -2.5932  -2.4755  -1.9802  -1.8315  -1.4798  -1.2231
    -0.9933  -0.5004  -0.1282  -0.1177  -0.1032

     occupation numbers 
     1.0000   1.0000   1.0000   1.0000   1.0000   1.0000   1.0000   1.0000
     1.0000   1.0000   1.0000   1.0000   1.0000   1.0000   1.0000   1.0000
     1.0000   1.0000   1.0000   1.0000   1.0000   1.0000   1.0000   1.0000
     1.0000   1.0000   1.0000   1.0028   0.9584   0.0260   0.0000   0.0000
     0.0000   0.0000   0.0000   0.0000   0.0000   0.0000   0.0000   0.0000
     0.0000   0.0000   0.0000   0.0000   0.0000

          k = 0.1000 0.3479 0.0000 (151987 PWs)   bands (ev):

   -50.9463 -50.9459 -50.9449 -50.9445 -50.4010 -50.4010 -50.3996 -50.3995
   -49.9450 -49.9432 -49.9419 -49.9415 -49.9098 -49.9060 -49.9035 -49.9019
   -49.8721 -49.8714 -49.8713 -49.8707  -6.4924  -5.9673  -5.0480  -4.8556
    -4.7729  -4.3592  -4.2527  -3.8488  -3.5242  -3.3279  -3.1809  -3.0649
    -2.8220  -2.6652  -2.5778  -2.4715  -2.0774  -1.8030  -1.3304  -1.1459
    -0.7098  -0.5190  -0.1472  -0.0779   0.0946

     occupation numbers 
     1.0000   1.0000   1.0000   1.0000   1.0000   1.0000   1.0000   1.0000
     1.0000   1.0000   1.0000   1.0000   1.0000   1.0000   1.0000   1.0000
     1.0000   1.0000   1.0000   1.0000   1.0000   1.0000   1.0000   1.0000
     1.0000   1.0000   1.0000   1.0004   0.9851   0.1169   0.0021   0.0000
     0.0000   0.0000   0.0000   0.0000   0.0000   0.0000   0.0000   0.0000
     0.0000   0.0000   0.0000   0.0000   0.0000

          k = 0.1000 0.4533 0.0000 (151932 PWs)   bands (ev):

   -50.9463 -50.9459 -50.9449 -50.9445 -50.4010 -50.4010 -50.3996 -50.3995
   -49.9448 -49.9431 -49.9419 -49.9415 -49.9100 -49.9059 -49.9035 -49.9019
   -49.8721 -49.8714 -49.8713 -49.8707  -6.2914  -5.7687  -5.2054  -4.8865
    -4.8153  -4.6371  -4.3195  -3.8651  -3.5218  -3.4927  -3.3817  -3.0068
    -2.9175  -2.6542  -2.5114  -2.4560  -2.1140  -1.8936  -1.3983  -1.2722
    -0.7028  -0.4731  -0.1905  -0.0659   0.1085

     occupation numbers 
     1.0000   1.0000   1.0000   1.0000   1.0000   1.0000   1.0000   1.0000
     1.0000   1.0000   1.0000   1.0000   1.0000   1.0000   1.0000   1.0000
     1.0000   1.0000   1.0000   1.0000   1.0000   1.0000   1.0000   1.0000
     1.0000   1.0000   1.0000   1.0002   0.9778   0.8667   0.2959   0.0000
     0.0000   0.0000   0.0000   0.0000   0.0000   0.0000   0.0000   0.0000
     0.0000   0.0000   0.0000   0.0000   0.0000

          k = 0.1000 0.5587 0.0000 (151966 PWs)   bands (ev):

   -50.9463 -50.9459 -50.9449 -50.9445 -50.4010 -50.4010 -50.3996 -50.3995
   -49.9447 -49.9431 -49.9419 -49.9415 -49.9101 -49.9058 -49.9037 -49.9020
   -49.8721 -49.8714 -49.8713 -49.8707  -6.0373  -5.6044  -5.5004  -5.0829
    -4.7249  -4.5706  -4.2304  -4.1587  -3.5657  -3.4177  -3.3863  -3.1654
    -2.9405  -2.8664  -2.5094  -2.4280  -2.0122  -1.8913  -1.7296  -1.3461
    -0.6651  -0.4464  -0.2648  -0.0607   0.1461

     occupation numbers 
     1.0000   1.0000   1.0000   1.0000   1.0000   1.0000   1.0000   1.0000
     1.0000   1.0000   1.0000   1.0000   1.0000   1.0000   1.0000   1.0000
     1.0000   1.0000   1.0000   1.0000   1.0000   1.0000   1.0000   1.0000
     1.0000   1.0000   1.0000   1.0000   1.0684   0.4715   0.3161   0.0012
     0.0000   0.0000   0.0000   0.0000   0.0000   0.0000   0.0000   0.0000
     0.0000   0.0000   0.0000   0.0000   0.0000

          k = 0.1000-0.6008 0.0000 (151997 PWs)   bands (ev):

   -50.9463 -50.9459 -50.9449 -50.9445 -50.4010 -50.4010 -50.3996 -50.3995
   -49.9446 -49.9431 -49.9418 -49.9415 -49.9101 -49.9056 -49.9039 -49.9020
   -49.8721 -49.8714 -49.8713 -49.8707  -5.9210  -5.7319  -5.3970  -5.2121
    -4.5851  -4.4690  -4.2796  -4.0932  -3.7087  -3.3322  -3.3261  -3.2797
    -3.1468  -2.9321  -2.6452  -2.4985  -2.0178  -1.9795  -1.6701  -1.3788
    -0.6402  -0.4387  -0.3125  -0.0077   0.1199

     occupation numbers 
     1.0000   1.0000   1.0000   1.0000   1.0000   1.0000   1.0000   1.0000
     1.0000   1.0000   1.0000   1.0000   1.0000   1.0000   1.0000   1.0000
     1.0000   1.0000   1.0000   1.0000   1.0000   1.0000   1.0000   1.0000
     1.0000   1.0000   1.0000   1.0000   1.0230   0.1272   0.1128   0.0398
     0.0006   0.0000   0.0000   0.0000   0.0000   0.0000   0.0000   0.0000
     0.0000   0.0000   0.0000   0.0000   0.0000

          k = 0.1000-0.4954 0.0000 (151985 PWs)   bands (ev):

   -50.9463 -50.9459 -50.9449 -50.9445 -50.4010 -50.4010 -50.3996 -50.3995
   -49.9447 -49.9431 -49.9418 -49.9415 -49.9101 -49.9053 -49.9042 -49.9020
   -49.8721 -49.8714 -49.8713 -49.8707  -6.1961  -5.6762  -5.3626  -4.9048
    -4.6821  -4.3972  -3.9718  -3.9181  -3.8004  -3.4825  -3.4761  -3.3596
    -3.1642  -2.9387  -2.7353  -2.5510  -2.1985  -2.0794  -1.4486  -1.2890
    -0.7006  -0.5158  -0.2072   0.1900   0.3112

     occupation numbers 
     1.0000   1.0000   1.0000   1.0000   1.0000   1.0000   1.0000   1.0000
     1.0000   1.0000   1.0000   1.0000   1.0000   1.0000   1.0000   1.0000
     1.0000   1.0000   1.0000   1.0000   1.0000   1.0000   1.0000   1.0000
     1.0000   1.0000   1.0000   1.0000   1.0022   0.8193   0.7877   0.2090
     0.0011   0.0000   0.0000   0.0000   0.0000   0.0000   0.0000   0.0000
     0.0000   0.0000   0.0000   0.0000   0.0000

          k = 0.1000-0.3900 0.0000 (151942 PWs)   bands (ev):

   -50.9463 -50.9459 -50.9449 -50.9445 -50.4010 -50.4010 -50.3996 -50.3995
   -49.9449 -49.9431 -49.9418 -49.9415 -49.9099 -49.9050 -49.9045 -49.9019
   -49.8721 -49.8714 -49.8713 -49.8707  -6.4183  -5.8940  -4.9828  -4.9495
    -4.4204  -4.1644  -3.8804  -3.8162  -3.7806  -3.6548  -3.4518  -3.4229
    -3.2635  -2.9834  -2.6831  -2.5822  -2.2769  -2.1151  -1.3068  -1.2938
    -0.6881  -0.6045  -0.0178   0.2156   0.3257

     occupation numbers 
     1.0000   1.0000   1.0000   1.0000   1.0000   1.0000   1.0000   1.0000
     1.0000   1.0000   1.0000   1.0000   1.0000   1.0000   1.0000   1.0000
     1.0000   1.0000   1.0000   1.0000   1.0000   1.0000   1.0000   1.0000
     1.0000   1.0000   1.0001   1.0013   1.0039   1.0556   0.6592   0.4995
     0.0263   0.0000   0.0000   0.0000   0.0000   0.0000   0.0000   0.0000
     0.0000   0.0000   0.0000   0.0000   0.0000

          k = 0.1000-0.2846 0.0000 (151938 PWs)   bands (ev):

   -50.9463 -50.9459 -50.9449 -50.9445 -50.4010 -50.4010 -50.3996 -50.3995
   -49.9451 -49.9432 -49.9418 -49.9414 -49.9097 -49.9049 -49.9046 -49.9019
   -49.8720 -49.8714 -49.8713 -49.8707  -6.5875  -6.0619  -5.1381  -4.4914
    -4.0603  -3.9950  -3.9064  -3.8940  -3.8869  -3.5591  -3.4415  -3.3674
    -3.1107  -2.9270  -2.7402  -2.6098  -2.2873  -2.0063  -1.4076  -1.2814
    -0.8509  -0.6234  -0.0453   0.0180   0.1458

     occupation numbers 
     1.0000   1.0000   1.0000   1.0000   1.0000   1.0000   1.0000   1.0000
     1.0000   1.0000   1.0000   1.0000   1.0000   1.0000   1.0000   1.0000
     1.0000   1.0000   1.0000   1.0000   1.0000   1.0000   1.0000   1.0000
     1.0000   1.0000   1.0000   1.0001   1.0001   1.0605   0.6019   0.2375
     0.0001   0.0000   0.0000   0.0000   0.0000   0.0000   0.0000   0.0000
     0.0000   0.0000   0.0000   0.0000   0.0000

          k = 0.1000-0.1792 0.0000 (151999 PWs)   bands (ev):

   -50.9463 -50.9459 -50.9449 -50.9445 -50.4010 -50.4010 -50.3996 -50.3995
   -49.9453 -49.9432 -49.9418 -49.9415 -49.9096 -49.9052 -49.9043 -49.9018
   -49.8720 -49.8714 -49.8713 -49.8707  -6.7036  -6.1775  -5.2509  -4.3094
    -4.0675  -3.9375  -3.8718  -3.7888  -3.5888  -3.5156  -3.3928  -3.1264
    -3.0358  -2.7948  -2.6618  -2.5999  -2.2410  -2.0116  -1.6192  -1.3812
    -1.2059  -0.5549  -0.1680  -0.1290  -0.0316

     occupation numbers 
     1.0000   1.0000   1.0000   1.0000   1.0000   1.0000   1.0000   1.0000
     1.0000   1.0000   1.0000   1.0000   1.0000   1.0000   1.0000   1.0000
     1.0000   1.0000   1.0000   1.0000   1.0000   1.0000   1.0000   1.0000
     1.0000   1.0000   1.0002   1.0031   1.0825   0.9575   0.3462   0.0003
     0.0000   0.0000   0.0000   0.0000   0.0000   0.0000   0.0000   0.0000
     0.0000   0.0000   0.0000   0.0000   0.0000

          k = 0.1000-0.0738 0.0000 (152043 PWs)   bands (ev):

   -50.9463 -50.9459 -50.9449 -50.9445 -50.4010 -50.4010 -50.3996 -50.3995
   -49.9454 -49.9432 -49.9418 -49.9415 -49.9095 -49.9055 -49.9040 -49.9018
   -49.8720 -49.8714 -49.8713 -49.8707  -6.7669  -6.2407  -5.3131  -4.5156
    -4.0915  -4.0256  -3.7533  -3.4384  -3.3550  -3.2504  -3.2452  -3.1087
    -2.7614  -2.7589  -2.6911  -2.5126  -2.1945  -2.1044  -1.7682  -1.5776
    -1.4964  -0.4605  -0.2947  -0.2413  -0.1071

     occupation numbers 
     1.0000   1.0000   1.0000   1.0000   1.0000   1.0000   1.0000   1.0000
     1.0000   1.0000   1.0000   1.0000   1.0000   1.0000   1.0000   1.0000
     1.0000   1.0000   1.0000   1.0000   1.0000   1.0000   1.0000   1.0000
     1.0000   1.0000   1.0083   0.5850   0.1932   0.0184   0.0159   0.0001
     0.0000   0.0000   0.0000   0.0000   0.0000   0.0000   0.0000   0.0000
     0.0000   0.0000   0.0000   0.0000   0.0000

          k = 0.2000 0.0632 0.0000 (151969 PWs)   bands (ev):

   -50.9462 -50.9458 -50.9450 -50.9446 -50.4009 -50.4008 -50.3997 -50.3996
   -49.9451 -49.9431 -49.9421 -49.9416 -49.9093 -49.9064 -49.9033 -49.9018
   -49.8720 -49.8714 -49.8713 -49.8707  -6.6991  -6.1729  -5.2451  -5.1222
    -4.6130  -4.0230  -3.7399  -3.3115  -3.1034  -3.0447  -3.0009  -2.8632
    -2.6884  -2.6361  -2.5826  -2.3882  -2.1426  -1.7958  -1.6925  -1.6618
    -1.4484  -0.5461  -0.4843  -0.1756  -0.0198

     occupation numbers 
     1.0000   1.0000   1.0000   1.0000   1.0000   1.0000   1.0000   1.0000
     1.0000   1.0000   1.0000   1.0000   1.0000   1.0000   1.0000   1.0000
     1.0000   1.0000   1.0000   1.0000   1.0000   1.0000   1.0000   1.0000
     1.0000   1.0000   1.0116   0.0832   0.0001   0.0000   0.0000   0.0000
     0.0000   0.0000   0.0000   0.0000   0.0000   0.0000   0.0000   0.0000
     0.0000   0.0000   0.0000   0.0000   0.0000

          k = 0.2000 0.1687 0.0000 (151968 PWs)   bands (ev):

   -50.9462 -50.9458 -50.9450 -50.9446 -50.4009 -50.4008 -50.3997 -50.3996
   -49.9450 -49.9431 -49.9421 -49.9416 -49.9094 -49.9065 -49.9031 -49.9018
   -49.8720 -49.8714 -49.8713 -49.8707  -6.6411  -6.1150  -5.2194  -5.1880
    -4.7102  -3.9901  -3.8318  -3.8270  -3.3950  -2.9129  -2.8410  -2.7937
    -2.6965  -2.5796  -2.3886  -2.2896  -1.9481  -1.7835  -1.5697  -1.4317
    -1.1762  -0.7095  -0.3695  -0.1128  -0.0574

     occupation numbers 
     1.0000   1.0000   1.0000   1.0000   1.0000   1.0000   1.0000   1.0000
     1.0000   1.0000   1.0000   1.0000   1.0000   1.0000   1.0000   1.0000
     1.0000   1.0000   1.0000   1.0000   1.0000   1.0000   1.0000   1.0000
     1.0000   1.0000   1.0008   1.0009   0.3564   0.0000   0.0000   0.0000
     0.0000   0.0000   0.0000   0.0000   0.0000   0.0000   0.0000   0.0000
     0.0000   0.0000   0.0000   0.0000   0.0000

          k = 0.2000 0.2741 0.0000 (152020 PWs)   bands (ev):

   -50.9462 -50.9458 -50.9450 -50.9446 -50.4009 -50.4008 -50.3997 -50.3996
   -49.9449 -49.9431 -49.9421 -49.9416 -49.9095 -49.9066 -49.9030 -49.9019
   -49.8720 -49.8714 -49.8713 -49.8707  -6.5303  -6.0046  -5.2656  -5.0800
    -4.7564  -4.3725  -3.8915  -3.8756  -3.8301  -2.9945  -2.8709  -2.7318
    -2.6756  -2.5371  -2.3400  -2.2427  -1.9151  -1.7277  -1.3482  -1.1707
    -0.9071  -0.8214  -0.2537  -0.1000  -0.0168

     occupation numbers 
     1.0000   1.0000   1.0000   1.0000   1.0000   1.0000   1.0000   1.0000
     1.0000   1.0000   1.0000   1.0000   1.0000   1.0000   1.0000   1.0000
     1.0000   1.0000   1.0000   1.0000   1.0000   1.0000   1.0000   1.0000
     1.0000   1.0000   1.0001   1.0001   1.0008   0.0000   0.0000   0.0000
     0.0000   0.0000   0.0000   0.0000   0.0000   0.0000   0.0000   0.0000
     0.0000   0.0000   0.0000   0.0000   0.0000

          k = 0.2000 0.3795 0.0000 (151962 PWs)   bands (ev):

   -50.9462 -50.9458 -50.9450 -50.9446 -50.4009 -50.4009 -50.3997 -50.3996
   -49.9447 -49.9430 -49.9421 -49.9416 -49.9097 -49.9066 -49.9030 -49.9020
   -49.8720 -49.8714 -49.8713 -49.8707  -6.3666  -5.8418  -5.2604  -4.9263
    -4.8368  -4.7513  -4.3076  -3.8708  -3.7484  -3.3486  -2.8730  -2.7524
    -2.6872  -2.4937  -2.3397  -2.2469  -2.0378  -1.7422  -1.2283  -1.2087
    -0.8731  -0.6100  -0.2800  -0.0594   0.0309

     occupation numbers 
     1.0000   1.0000   1.0000   1.0000   1.0000   1.0000   1.0000   1.0000
     1.0000   1.0000   1.0000   1.0000   1.0000   1.0000   1.0000   1.0000
     1.0000   1.0000   1.0000   1.0000   1.0000   1.0000   1.0000   1.0000
     1.0000   1.0000   1.0000   1.0002   1.0094   0.1727   0.0000   0.0000
     0.0000   0.0000   0.0000   0.0000   0.0000   0.0000   0.0000   0.0000
     0.0000   0.0000   0.0000   0.0000   0.0000

          k = 0.2000 0.4849 0.0000 (151925 PWs)   bands (ev):

   -50.9462 -50.9458 -50.9450 -50.9446 -50.4009 -50.4009 -50.3997 -50.3996
   -49.9445 -49.9430 -49.9421 -49.9416 -49.9098 -49.9065 -49.9031 -49.9020
   -49.8720 -49.8714 -49.8713 -49.8707  -6.1497  -5.6285  -5.2537  -5.2041
    -4.8153  -4.6950  -4.6134  -3.8674  -3.8175  -3.4220  -2.9366  -2.8676
    -2.8281  -2.6326  -2.4094  -2.3124  -2.0212  -1.7743  -1.4929  -1.2143
    -0.6699  -0.6348  -0.3906  -0.0632   0.1296

     occupation numbers 
     1.0000   1.0000   1.0000   1.0000   1.0000   1.0000   1.0000   1.0000
     1.0000   1.0000   1.0000   1.0000   1.0000   1.0000   1.0000   1.0000
     1.0000   1.0000   1.0000   1.0000   1.0000   1.0000   1.0000   1.0000
     1.0000   1.0000   1.0000   1.0002   1.0012   0.4947   0.0000   0.0000
     0.0000   0.0000   0.0000   0.0000   0.0000   0.0000   0.0000   0.0000
     0.0000   0.0000   0.0000   0.0000   0.0000

          k = 0.2000 0.5903 0.0000 (151971 PWs)   bands (ev):

   -50.9462 -50.9458 -50.9450 -50.9446 -50.4009 -50.4009 -50.3997 -50.3996
   -49.9444 -49.9430 -49.9421 -49.9416 -49.9098 -49.9063 -49.9033 -49.9020
   -49.8720 -49.8714 -49.8714 -49.8707  -5.8800  -5.6283  -5.3538  -5.1086
    -5.0966  -4.5876  -4.4223  -4.1766  -3.7163  -3.2660  -3.1731  -3.0743
    -2.8718  -2.8450  -2.6438  -2.3926  -1.9122  -1.8584  -1.6383  -1.3128
    -0.5790  -0.5387  -0.4876   0.0129   0.1894

     occupation numbers 
     1.0000   1.0000   1.0000   1.0000   1.0000   1.0000   1.0000   1.0000
     1.0000   1.0000   1.0000   1.0000   1.0000   1.0000   1.0000   1.0000
     1.0000   1.0000   1.0000   1.0000   1.0000   1.0000   1.0000   1.0000
     1.0000   1.0000   1.0000   1.0000   1.0197   0.0281   0.0016   0.0000
     0.0000   0.0000   0.0000   0.0000   0.0000   0.0000   0.0000   0.0000
     0.0000   0.0000   0.0000   0.0000   0.0000

          k = 0.2000-0.5692 0.0000 (151945 PWs)   bands (ev):

   -50.9462 -50.9458 -50.9450 -50.9446 -50.4009 -50.4009 -50.3997 -50.3996
   -49.9444 -49.9430 -49.9421 -49.9416 -49.9098 -49.9061 -49.9036 -49.9020
   -49.8720 -49.8714 -49.8714 -49.8707  -5.9381  -5.5633  -5.4069  -5.0438
    -4.9385  -4.4735  -4.4298  -4.1157  -3.5711  -3.5374  -3.2944  -3.2015
    -3.0158  -2.8752  -2.8104  -2.3906  -2.2134  -1.9297  -1.5245  -1.2948
    -0.6787  -0.5916  -0.3199   0.2159   0.2222

     occupation numbers 
     1.0000   1.0000   1.0000   1.0000   1.0000   1.0000   1.0000   1.0000
     1.0000   1.0000   1.0000   1.0000   1.0000   1.0000   1.0000   1.0000
     1.0000   1.0000   1.0000   1.0000   1.0000   1.0000   1.0000   1.0000
     1.0000   1.0000   1.0000   1.0000   1.0735   1.0208   0.0567   0.0042
     0.0000   0.0000   0.0000   0.0000   0.0000   0.0000   0.0000   0.0000
     0.0000   0.0000   0.0000   0.0000   0.0000

          k = 0.2000-0.4638 0.0000 (151886 PWs)   bands (ev):

   -50.9462 -50.9458 -50.9450 -50.9446 -50.4009 -50.4009 -50.3997 -50.3996
   -49.9445 -49.9430 -49.9420 -49.9416 -49.9098 -49.9058 -49.9039 -49.9020
   -49.8720 -49.8714 -49.8714 -49.8707  -6.1973  -5.6748  -5.1752  -4.8069
    -4.7307  -4.5901  -4.2241  -3.8998  -3.8132  -3.4460  -3.4426  -3.3255
    -3.2512  -2.9127  -2.5903  -2.5601  -2.3606  -2.0396  -1.4633  -1.2042
    -0.8145  -0.6341  -0.0844   0.3905   0.4503

     occupation numbers 
     1.0000   1.0000   1.0000   1.0000   1.0000   1.0000   1.0000   1.0000
     1.0000   1.0000   1.0000   1.0000   1.0000   1.0000   1.0000   1.0000
     1.0000   1.0000   1.0000   1.0000   1.0000   1.0000   1.0000   1.0000
     1.0000   1.0000   1.0000   1.0001   1.0014   0.6269   0.6081   0.1113
     0.0188   0.0000   0.0000   0.0000   0.0000   0.0000   0.0000   0.0000
     0.0000   0.0000   0.0000   0.0000   0.0000

          k = 0.2000-0.3584 0.0000 (151888 PWs)   bands (ev):

   -50.9462 -50.9458 -50.9450 -50.9446 -50.4009 -50.4009 -50.3997 -50.3996
   -49.9447 -49.9430 -49.9420 -49.9416 -49.9096 -49.9056 -49.9041 -49.9020
   -49.8720 -49.8714 -49.8714 -49.8708  -6.4035  -5.8785  -4.9597  -4.7479
    -4.4751  -4.2401  -4.2235  -3.9621  -3.7657  -3.7281  -3.3130  -3.2852
    -3.1132  -2.9313  -2.8707  -2.4925  -2.3365  -2.0162  -1.4433  -1.2461
    -0.8913  -0.6198   0.1530   0.1570   0.3171

     occupation numbers 
     1.0000   1.0000   1.0000   1.0000   1.0000   1.0000   1.0000   1.0000
     1.0000   1.0000   1.0000   1.0000   1.0000   1.0000   1.0000   1.0000
     1.0000   1.0000   1.0000   1.0000   1.0000   1.0000   1.0000   1.0000
     1.0000   1.0000   1.0000   1.0000   1.0060   1.0152   0.0858   0.0455
     0.0002   0.0000   0.0000   0.0000   0.0000   0.0000   0.0000   0.0000
     0.0000   0.0000   0.0000   0.0000   0.0000

          k = 0.2000-0.2530 0.0000 (151943 PWs)   bands (ev):

   -50.9462 -50.9458 -50.9450 -50.9446 -50.4009 -50.4008 -50.3997 -50.3996
   -49.9449 -49.9431 -49.9420 -49.9416 -49.9095 -49.9056 -49.9040 -49.9019
   -49.8720 -49.8714 -49.8714 -49.8708  -6.5567  -6.0309  -5.1056  -4.5301
    -4.2755  -4.1789  -4.0134  -3.8863  -3.7628  -3.6672  -3.3087  -3.1601
    -2.9282  -2.9217  -2.8148  -2.5519  -2.3403  -1.9004  -1.4455  -1.3844
    -0.8962  -0.8822  -0.0386   0.1104   0.1735

     occupation numbers 
     1.0000   1.0000   1.0000   1.0000   1.0000   1.0000   1.0000   1.0000
     1.0000   1.0000   1.0000   1.0000   1.0000   1.0000   1.0000   1.0000
     1.0000   1.0000   1.0000   1.0000   1.0000   1.0000   1.0000   1.0000
     1.0000   1.0000   1.0000   1.0001   1.0065   1.0472   0.0782   0.0010
     0.0000   0.0000   0.0000   0.0000   0.0000   0.0000   0.0000   0.0000
     0.0000   0.0000   0.0000   0.0000   0.0000

          k = 0.2000-0.1476 0.0000 (151949 PWs)   bands (ev):

   -50.9462 -50.9458 -50.9450 -50.9446 -50.4009 -50.4008 -50.3997 -50.3996
   -49.9451 -49.9431 -49.9420 -49.9416 -49.9094 -49.9058 -49.9038 -49.9018
   -49.8720 -49.8714 -49.8713 -49.8707  -6.6569  -6.1308  -5.2036  -4.7763
    -4.2685  -3.9931  -3.8293  -3.7319  -3.4423  -3.3097  -3.3042  -3.2300
    -2.9062  -2.6789  -2.5678  -2.4944  -2.3689  -1.9891  -1.6097  -1.4723
    -1.2396  -0.7908  -0.1353  -0.1302   0.0129

     occupation numbers 
     1.0000   1.0000   1.0000   1.0000   1.0000   1.0000   1.0000   1.0000
     1.0000   1.0000   1.0000   1.0000   1.0000   1.0000   1.0000   1.0000
     1.0000   1.0000   1.0000   1.0000   1.0000   1.0000   1.0000   1.0000
     1.0000   1.0000   1.0008   1.0139   0.6063   0.0800   0.0709   0.0102
     0.0000   0.0000   0.0000   0.0000   0.0000   0.0000   0.0000   0.0000
     0.0000   0.0000   0.0000   0.0000   0.0000

          k = 0.2000-0.0422 0.0000 (151969 PWs)   bands (ev):

   -50.9462 -50.9458 -50.9450 -50.9446 -50.4009 -50.4008 -50.3997 -50.3996
   -49.9451 -49.9431 -49.9421 -49.9416 -49.9093 -49.9061 -49.9035 -49.9018
   -49.8720 -49.8714 -49.8713 -49.8707  -6.7044  -6.1782  -5.2503  -4.9742
    -4.4652  -4.0274  -3.6018  -3.4635  -3.2088  -3.1781  -2.9657  -2.9568
    -2.8565  -2.7162  -2.6633  -2.3970  -2.1639  -2.1439  -1.6960  -1.5453
    -1.4808  -0.6485  -0.3621  -0.1805  -0.0278

     occupation numbers 
     1.0000   1.0000   1.0000   1.0000   1.0000   1.0000   1.0000   1.0000
     1.0000   1.0000   1.0000   1.0000   1.0000   1.0000   1.0000   1.0000
     1.0000   1.0000   1.0000   1.0000   1.0000   1.0000   1.0000   1.0000
     1.0000   1.0000   1.0830   0.7224   0.0053   0.0019   0.0000   0.0000
     0.0000   0.0000   0.0000   0.0000   0.0000   0.0000   0.0000   0.0000
     0.0000   0.0000   0.0000   0.0000   0.0000

          k = 0.3000 0.0949 0.0000 (151964 PWs)   bands (ev):

   -50.9460 -50.9456 -50.9451 -50.9448 -50.4008 -50.4007 -50.3999 -50.3998
   -49.9447 -49.9429 -49.9425 -49.9418 -49.9091 -49.9071 -49.9028 -49.9019
   -49.8719 -49.8714 -49.8713 -49.8708  -6.5684  -6.0424  -5.5175  -5.1148
    -5.0003  -4.0978  -3.8957  -3.3511  -3.1958  -2.9784  -2.9677  -2.6837
    -2.5518  -2.4452  -2.4351  -2.0713  -1.9959  -1.8071  -1.5518  -1.4786
    -1.2800  -0.7619  -0.5502  -0.0872  -0.0769

     occupation numbers 
     1.0000   1.0000   1.0000   1.0000   1.0000   1.0000   1.0000   1.0000
     1.0000   1.0000   1.0000   1.0000   1.0000   1.0000   1.0000   1.0000
     1.0000   1.0000   1.0000   1.0000   1.0000   1.0000   1.0000   1.0000
     1.0000   1.0000   1.0001   0.1806   0.0034   0.0000   0.0000   0.0000
     0.0000   0.0000   0.0000   0.0000   0.0000   0.0000   0.0000   0.0000
     0.0000   0.0000   0.0000   0.0000   0.0000

          k = 0.3000 0.2003 0.0000 (152028 PWs)   bands (ev):

   -50.9460 -50.9456 -50.9451 -50.9448 -50.4008 -50.4007 -50.3999 -50.3998
   -49.9446 -49.9429 -49.9425 -49.9418 -49.9091 -49.9072 -49.9026 -49.9019
   -49.8719 -49.8714 -49.8713 -49.8708  -6.4946  -5.9687  -5.6004  -5.0835
    -5.0421  -4.1792  -3.9269  -3.7892  -3.4127  -3.0540  -2.7551  -2.6247
    -2.4530  -2.3468  -2.2817  -2.0676  -1.7724  -1.7024  -1.3881  -1.3880
    -0.9937  -0.9649  -0.3680  -0.1709  -0.0354

     occupation numbers 
     1.0000   1.0000   1.0000   1.0000   1.0000   1.0000   1.0000   1.0000
     1.0000   1.0000   1.0000   1.0000   1.0000   1.0000   1.0000   1.0000
     1.0000   1.0000   1.0000   1.0000   1.0000   1.0000   1.0000   1.0000
     1.0000   1.0000   1.0000   1.0030   0.4453   0.0000   0.0000   0.0000
     0.0000   0.0000   0.0000   0.0000   0.0000   0.0000   0.0000   0.0000
     0.0000   0.0000   0.0000   0.0000   0.0000

          k = 0.3000 0.3057 0.0000 (152004 PWs)   bands (ev):

   -50.9460 -50.9456 -50.9451 -50.9448 -50.4008 -50.4007 -50.3999 -50.3998
   -49.9444 -49.9429 -49.9425 -49.9418 -49.9092 -49.9073 -49.9026 -49.9020
   -49.8719 -49.8714 -49.8713 -49.8708  -6.3681  -5.8425  -5.6315  -5.1147
    -4.9190  -4.4000  -4.2099  -3.8864  -3.7004  -3.0755  -2.9772  -2.4315
    -2.3843  -2.3758  -2.0776  -2.0300  -1.8502  -1.8199  -1.2333  -1.1870
    -1.1378  -0.6215  -0.1977  -0.1667  -0.0377

     occupation numbers 
     1.0000   1.0000   1.0000   1.0000   1.0000   1.0000   1.0000   1.0000
     1.0000   1.0000   1.0000   1.0000   1.0000   1.0000   1.0000   1.0000
     1.0000   1.0000   1.0000   1.0000   1.0000   1.0000   1.0000   1.0000
     1.0000   1.0000   1.0000   1.0001   1.0270   0.0000   0.0000   0.0000
     0.0000   0.0000   0.0000   0.0000   0.0000   0.0000   0.0000   0.0000
     0.0000   0.0000   0.0000   0.0000   0.0000

          k = 0.3000 0.4111 0.0000 (151987 PWs)   bands (ev):

   -50.9460 -50.9456 -50.9451 -50.9448 -50.4008 -50.4007 -50.3999 -50.3998
   -49.9443 -49.9429 -49.9425 -49.9418 -49.9093 -49.9072 -49.9026 -49.9021
   -49.8719 -49.8714 -49.8713 -49.8708  -6.1885  -5.6642  -5.6107  -5.0939
    -4.8520  -4.7531  -4.3094  -4.1895  -3.6173  -3.2993  -3.0611  -2.6798
    -2.3739  -2.3293  -2.2216  -2.0695  -1.9472  -1.7277  -1.3448  -1.0994
    -1.0123  -0.4995  -0.3174  -0.1730  -0.0432

     occupation numbers 
     1.0000   1.0000   1.0000   1.0000   1.0000   1.0000   1.0000   1.0000
     1.0000   1.0000   1.0000   1.0000   1.0000   1.0000   1.0000   1.0000
     1.0000   1.0000   1.0000   1.0000   1.0000   1.0000   1.0000   1.0000
     1.0000   1.0000   1.0000   1.0000   1.0784   0.0635   0.0000   0.0000
     0.0000   0.0000   0.0000   0.0000   0.0000   0.0000   0.0000   0.0000
     0.0000   0.0000   0.0000   0.0000   0.0000

          k = 0.3000 0.5165 0.0000 (151948 PWs)   bands (ev):

   -50.9460 -50.9456 -50.9451 -50.9448 -50.4008 -50.4007 -50.3999 -50.3998
   -49.9442 -49.9428 -49.9425 -49.9418 -49.9094 -49.9071 -49.9027 -49.9022
   -49.8719 -49.8714 -49.8713 -49.8708  -5.9560  -5.5382  -5.4386  -5.2481
    -5.0212  -4.7647  -4.4655  -4.1183  -3.8352  -3.2557  -3.1157  -2.9878
    -2.6032  -2.5726  -2.4104  -2.0655  -1.8757  -1.7464  -1.4847  -1.1436
    -0.7738  -0.5452  -0.5428  -0.1142   0.1405

     occupation numbers 
     1.0000   1.0000   1.0000   1.0000   1.0000   1.0000   1.0000   1.0000
     1.0000   1.0000   1.0000   1.0000   1.0000   1.0000   1.0000   1.0000
     1.0000   1.0000   1.0000   1.0000   1.0000   1.0000   1.0000   1.0000
     1.0000   1.0000   1.0000   1.0000   1.0007   0.0213   0.0002   0.0000
     0.0000   0.0000   0.0000   0.0000   0.0000   0.0000   0.0000   0.0000
     0.0000   0.0000   0.0000   0.0000   0.0000

          k = 0.3000 0.6219 0.0000 (151942 PWs)   bands (ev):

   -50.9460 -50.9456 -50.9451 -50.9448 -50.4008 -50.4007 -50.3999 -50.3998
   -49.9441 -49.9428 -49.9424 -49.9418 -49.9094 -49.9069 -49.9030 -49.9022
   -49.8719 -49.8714 -49.8713 -49.8708  -5.6711  -5.6079  -5.4139  -5.1492
    -5.0830  -4.8967  -4.2297  -4.1341  -3.9972  -3.5411  -3.1133  -3.0211
    -2.9029  -2.7566  -2.5302  -2.1500  -2.0551  -1.7776  -1.4277  -1.2446
    -0.8952  -0.5013  -0.3846   0.0372   0.2282

     occupation numbers 
     1.0000   1.0000   1.0000   1.0000   1.0000   1.0000   1.0000   1.0000
     1.0000   1.0000   1.0000   1.0000   1.0000   1.0000   1.0000   1.0000
     1.0000   1.0000   1.0000   1.0000   1.0000   1.0000   1.0000   1.0000
     1.0000   1.0000   1.0000   1.0000   1.0000   1.0291   0.0002   0.0000
     0.0000   0.0000   0.0000   0.0000   0.0000   0.0000   0.0000   0.0000
     0.0000   0.0000   0.0000   0.0000   0.0000

          k = 0.3000-0.5376 0.0000 (151892 PWs)   bands (ev):

   -50.9460 -50.9456 -50.9451 -50.9448 -50.4008 -50.4007 -50.3999 -50.3998
   -49.9441 -49.9428 -49.9424 -49.9418 -49.9094 -49.9067 -49.9032 -49.9022
   -49.8719 -49.8715 -49.8713 -49.8708  -5.9032  -5.3982  -5.3104  -5.2380
    -4.8269  -4.7211  -4.4253  -3.9563  -3.8986  -3.8319  -3.4167  -3.2212
    -2.7981  -2.6258  -2.6209  -2.5023  -2.1499  -1.8496  -1.4428  -1.1687
    -1.0369  -0.5368  -0.1719   0.1911   0.2932

     occupation numbers 
     1.0000   1.0000   1.0000   1.0000   1.0000   1.0000   1.0000   1.0000
     1.0000   1.0000   1.0000   1.0000   1.0000   1.0000   1.0000   1.0000
     1.0000   1.0000   1.0000   1.0000   1.0000   1.0000   1.0000   1.0000
     1.0000   1.0000   1.0000   1.0000   1.0001   1.0008   0.4662   0.0078
     0.0000   0.0000   0.0000   0.0000   0.0000   0.0000   0.0000   0.0000
     0.0000   0.0000   0.0000   0.0000   0.0000

          k = 0.3000-0.4322 0.0000 (151831 PWs)   bands (ev):

   -50.9460 -50.9456 -50.9451 -50.9448 -50.4008 -50.4007 -50.3999 -50.3998
   -49.9443 -49.9428 -49.9424 -49.9418 -49.9093 -49.9065 -49.9034 -49.9021
   -49.8719 -49.8715 -49.8713 -49.8708  -6.1463  -5.6224  -5.0113  -4.9360
    -4.7205  -4.4998  -4.3835  -4.3294  -3.8382  -3.6316  -3.5636  -3.3250
    -2.9271  -2.6860  -2.5951  -2.3996  -2.2507  -1.9484  -1.5434  -1.0943
    -1.0524  -0.5177  -0.0360   0.1811   0.2061

     occupation numbers 
     1.0000   1.0000   1.0000   1.0000   1.0000   1.0000   1.0000   1.0000
     1.0000   1.0000   1.0000   1.0000   1.0000   1.0000   1.0000   1.0000
     1.0000   1.0000   1.0000   1.0000   1.0000   1.0000   1.0000   1.0000
     1.0000   1.0000   1.0000   1.0000   1.0006   1.0710   1.0662   0.1103
     0.0000   0.0000   0.0000   0.0000   0.0000   0.0000   0.0000   0.0000
     0.0000   0.0000   0.0000   0.0000   0.0000

          k = 0.3000-0.3268 0.0000 (151876 PWs)   bands (ev):

   -50.9460 -50.9456 -50.9451 -50.9448 -50.4008 -50.4007 -50.3999 -50.3998
   -49.9444 -49.9429 -49.9423 -49.9417 -49.9092 -49.9064 -49.9035 -49.9020
   -49.8719 -49.8715 -49.8713 -49.8708  -6.3364  -5.8110  -4.8888  -4.7351
    -4.6743  -4.4941  -4.2170  -4.1505  -3.9744  -3.6787  -3.3304  -3.2209
    -3.0521  -2.7111  -2.4798  -2.3703  -2.3555  -1.8515  -1.6005  -1.1631
    -1.0423  -0.5530  -0.0397   0.0750   0.1107

     occupation numbers 
     1.0000   1.0000   1.0000   1.0000   1.0000   1.0000   1.0000   1.0000
     1.0000   1.0000   1.0000   1.0000   1.0000   1.0000   1.0000   1.0000
     1.0000   1.0000   1.0000   1.0000   1.0000   1.0000   1.0000   1.0000
     1.0000   1.0000   1.0000   1.0000   1.0000   1.0396   0.1228   0.0078
     0.0000   0.0000   0.0000   0.0000   0.0000   0.0000   0.0000   0.0000
     0.0000   0.0000   0.0000   0.0000   0.0000

          k = 0.3000-0.2214 0.0000 (151884 PWs)   bands (ev):

   -50.9460 -50.9456 -50.9451 -50.9448 -50.4008 -50.4007 -50.3999 -50.3998
   -49.9446 -49.9429 -49.9424 -49.9418 -49.9091 -49.9065 -49.9035 -49.9019
   -49.8719 -49.8715 -49.8713 -49.8708  -6.4735  -5.9477  -5.0214  -4.9600
    -4.4626  -4.3855  -4.0143  -3.9002  -3.7875  -3.5214  -3.5064  -2.9909
    -2.6945  -2.6851  -2.5677  -2.4444  -2.2768  -1.7583  -1.5614  -1.3367
    -1.0502  -0.9289  -0.0233  -0.0123   0.0690

     occupation numbers 
     1.0000   1.0000   1.0000   1.0000   1.0000   1.0000   1.0000   1.0000
     1.0000   1.0000   1.0000   1.0000   1.0000   1.0000   1.0000   1.0000
     1.0000   1.0000   1.0000   1.0000   1.0000   1.0000   1.0000   1.0000
     1.0000   1.0000   1.0000   1.0001   1.0032   0.9765   0.9237   0.0000
     0.0000   0.0000   0.0000   0.0000   0.0000   0.0000   0.0000   0.0000
     0.0000   0.0000   0.0000   0.0000   0.0000

          k = 0.3000-0.1160 0.0000 (151888 PWs)   bands (ev):

   -50.9460 -50.9456 -50.9451 -50.9448 -50.4008 -50.4007 -50.3999 -50.3998
   -49.9447 -49.9429 -49.9424 -49.9418 -49.9091 -49.9067 -49.9033 -49.9019
   -49.8719 -49.8715 -49.8713 -49.8708  -6.5579  -6.0319  -5.1968  -5.1044
    -4.6799  -4.0344  -3.8876  -3.7975  -3.4883  -3.4585  -3.0485  -2.7841
    -2.6392  -2.5651  -2.5482  -2.4239  -2.1706  -1.9515  -1.5352  -1.4608
    -1.2287  -1.0477  -0.1407  -0.0715   0.0904

     occupation numbers 
     1.0000   1.0000   1.0000   1.0000   1.0000   1.0000   1.0000   1.0000
     1.0000   1.0000   1.0000   1.0000   1.0000   1.0000   1.0000   1.0000
     1.0000   1.0000   1.0000   1.0000   1.0000   1.0000   1.0000   1.0000
     1.0000   1.0000   1.0001   1.0024   0.8468   0.6957   0.0000   0.0000
     0.0000   0.0000   0.0000   0.0000   0.0000   0.0000   0.0000   0.0000
     0.0000   0.0000   0.0000   0.0000   0.0000

          k = 0.3000-0.0105 0.0000 (151946 PWs)   bands (ev):

   -50.9460 -50.9456 -50.9451 -50.9448 -50.4008 -50.4007 -50.3999 -50.3998
   -49.9447 -49.9429 -49.9424 -49.9418 -49.9091 -49.9069 -49.9030 -49.9018
   -49.8719 -49.8714 -49.8713 -49.8708  -6.5895  -6.0635  -5.3828  -5.1357
    -4.8655  -3.9669  -3.9133  -3.6255  -3.1016  -2.9367  -2.8826  -2.8576
    -2.6556  -2.5513  -2.5399  -2.2134  -2.0878  -2.0843  -1.5580  -1.4231
    -1.4031  -0.9344  -0.3374  -0.0889   0.0762

     occupation numbers 
     1.0000   1.0000   1.0000   1.0000   1.0000   1.0000   1.0000   1.0000
     1.0000   1.0000   1.0000   1.0000   1.0000   1.0000   1.0000   1.0000
     1.0000   1.0000   1.0000   1.0000   1.0000   1.0000   1.0000   1.0000
     1.0000   1.0000   1.0000   1.0744   0.0001   0.0000   0.0000   0.0000
     0.0000   0.0000   0.0000   0.0000   0.0000   0.0000   0.0000   0.0000
     0.0000   0.0000   0.0000   0.0000   0.0000

          k = 0.4000 0.1265 0.0000 (151961 PWs)   bands (ev):

   -50.9459 -50.9454 -50.9453 -50.9449 -50.4005 -50.4005 -50.4001 -50.4000
[...]
     1.0000   1.0000   1.0000   1.0000   1.0000   1.0000   1.0000   1.0000
     1.0000   1.0000   1.0000   1.0000   1.0000   1.0000   1.0000   1.0000
     1.0000   1.0000   1.0000   1.0000   1.0000   1.0000   0.1965   0.1964
     0.0000   0.0000   0.0000   0.0000   0.0000   0.0000   0.0000   0.0000
     0.0000   0.0000   0.0000   0.0000   0.0000

     the Fermi energy is    -3.4040 ev

!    total energy              =    -300.74681603 Ry
     total all-electron energy =      -300.746979 Ry
     estimated scf accuracy    <          5.5E-13 Ry

!    total charge of GC-SCF    =       1.16151511 e
     smearing contrib. (-TS)   =      -0.00073572 Ry
     internal energy E=F+TS    =    -300.74608032 Ry

     The total energy is F=E-TS. E is the sum of the following terms:
     one-electron contribution =   -3360.10303328 Ry
     hartree contribution      =    1645.66266890 Ry
     xc contribution           =     -71.17064906 Ry
     ewald contribution        =    1517.70844567 Ry
     one-center paw contrib.   =       1.76610416 Ry
      -> PAW hartree energy AE =       7.35741303 Ry
      -> PAW hartree energy PS =      -7.13451346 Ry
      -> PAW xc energy AE      =      -3.47180764 Ry
      -> PAW xc energy PS      =       3.33720767 Ry
      -> total E_H with PAW    =    1645.88556847 Ry
      -> total E_XC with PAW   =     -71.30524903 Ry
     pot.stat. contrib. (-muN) =      -0.29059875 Ry
     electrostatic embedding   =      -0.34207765 Ry
     cavitation energy         =       0.01593170 Ry
     electrolyte free energy   =      -0.00677665 Ry
     correction to one-el term =     -33.98609536 Ry

     WARNING: you are using the parabolic pbc correction;
              the potential shift above must be added to 
              band and Fermi energies.

     convergence has been achieved in  14 iterations
     The dielectric solvent contribution to forces
     atom    1 type  1   force =    -0.00000042    0.00089680   -0.04203665
     atom    2 type  1   force =     0.00000026   -0.00093262   -0.02996044
     atom    3 type  1   force =    -0.00000025    0.00033005   -0.01944634
     atom    4 type  1   force =     0.00000008   -0.00006364   -0.00584304
     atom    5 type  1   force =     0.00000016    0.00006403    0.00579899
     atom    6 type  1   force =     0.00000024   -0.00033058    0.01939987
     atom    7 type  1   force =    -0.00000007    0.00093285    0.02991773
     atom    8 type  1   force =     0.00000028   -0.00089528    0.04199226
     atom    9 type  1   force =     0.00000044   -0.00051322    0.02120853
     atom   10 type  1   force =    -0.00000009    0.00051228   -0.02123315
     atom   11 type  1   force =    -0.00000018    0.00089690   -0.04203653
     atom   12 type  1   force =     0.00000014   -0.00093247   -0.02996032
     atom   13 type  1   force =     0.00000001    0.00033005   -0.01944645
     atom   14 type  1   force =    -0.00000015   -0.00006368   -0.00584217
     atom   15 type  1   force =    -0.00000010    0.00006396    0.00580041
     atom   16 type  1   force =    -0.00000001   -0.00033056    0.01940049
     atom   17 type  1   force =    -0.00000033    0.00093298    0.02991795
     atom   18 type  1   force =     0.00000034   -0.00089533    0.04199279
     atom   19 type  1   force =     0.00000027   -0.00051297    0.02120287
     atom   20 type  1   force =    -0.00000063    0.00051224   -0.02123907


     Forces acting on atoms (cartesian axes, Ry/au):

     atom    1 type  1   force =    -0.00000185   -0.00019406    0.00027320
     atom    2 type  1   force =    -0.00000341    0.00002458    0.00001448
     atom    3 type  1   force =    -0.00000185   -0.00035140    0.00001646
     atom    4 type  1   force =     0.00000201    0.00008724   -0.00000926
     atom    5 type  1   force =     0.00000035   -0.00007962   -0.00000901
     atom    6 type  1   force =     0.00000224    0.00036235   -0.00001933
     atom    7 type  1   force =     0.00000432   -0.00002992   -0.00003407
     atom    8 type  1   force =     0.00000071    0.00018815   -0.00025236
     atom    9 type  1   force =     0.00000503    0.00031092   -0.00007285
     atom   10 type  1   force =    -0.00000508   -0.00032716    0.00010166
     atom   11 type  1   force =     0.00000040   -0.00019214    0.00027645
     atom   12 type  1   force =    -0.00000387    0.00003037    0.00001425
     atom   13 type  1   force =     0.00000138   -0.00034929    0.00001802
     atom   14 type  1   force =    -0.00000024    0.00008810   -0.00001347
     atom   15 type  1   force =    -0.00000258   -0.00007959   -0.00001484
     atom   16 type  1   force =    -0.00000144    0.00036052   -0.00002210
     atom   17 type  1   force =     0.00000275   -0.00002313   -0.00003392
     atom   18 type  1   force =     0.00000165    0.00018891   -0.00025205
     atom   19 type  1   force =     0.00000539    0.00031015   -0.00007789
     atom   20 type  1   force =    -0.00000592   -0.00032499    0.00009662
     The non-local contrib.  to forces
     atom    1 type  1   force =     0.00002431    0.00747044   -0.04768789
     atom    2 type  1   force =     0.00003547    0.00174099    0.00264841
     atom    3 type  1   force =     0.00001072    0.00077290   -0.00591931
     atom    4 type  1   force =     0.00004345   -0.00145247   -0.00264255
     atom    5 type  1   force =    -0.00003939    0.00145067    0.00261553
     atom    6 type  1   force =    -0.00001092   -0.00078388    0.00590530
     atom    7 type  1   force =    -0.00003205   -0.00172697   -0.00266598
     atom    8 type  1   force =    -0.00002647   -0.00745924    0.04770325
     atom    9 type  1   force =    -0.00002072    0.00376632    0.09681943
     atom   10 type  1   force =     0.00002235   -0.00376475   -0.09680015
     atom   11 type  1   force =     0.00002696    0.00746696   -0.04768953
     atom   12 type  1   force =     0.00003293    0.00174365    0.00265122
     atom   13 type  1   force =     0.00001754    0.00076902   -0.00591800
     atom   14 type  1   force =     0.00003987   -0.00145113   -0.00265001
     atom   15 type  1   force =    -0.00004315    0.00145176    0.00261051
     atom   16 type  1   force =    -0.00001768   -0.00077984    0.00590483
     atom   17 type  1   force =    -0.00003600   -0.00172396   -0.00266383
     atom   18 type  1   force =    -0.00002587   -0.00746339    0.04770470
     atom   19 type  1   force =    -0.00002200    0.00376661    0.09681795
     atom   20 type  1   force =     0.00002073   -0.00376501   -0.09680015
     The ionic contribution  to forces
     atom    1 type  1   force =    -0.00008035    0.06752941   -9.27663756
     atom    2 type  1   force =    -0.00010880   -0.07590580   -6.45793217
     atom    3 type  1   force =    -0.00009014    0.02397342   -4.10372568
     atom    4 type  1   force =    -0.00006050   -0.00469617   -1.22105663
     atom    5 type  1   force =     0.00014142    0.00481608    1.22079694
     atom    6 type  1   force =     0.00009523   -0.02399038    4.10301938
     atom    7 type  1   force =     0.00015320    0.07595200    6.45826849
     atom    8 type  1   force =     0.00006928   -0.06756392    9.27658450
     atom    9 type  1   force =     0.00008953    0.02457342   11.21710919
     atom   10 type  1   force =    -0.00007886   -0.02475531  -11.21678851
     atom   11 type  1   force =    -0.00004571    0.06753164   -9.27676940
     atom   12 type  1   force =    -0.00014100   -0.07582507   -6.45786756
     atom   13 type  1   force =     0.00001246    0.02398932   -4.10374458
     atom   14 type  1   force =    -0.00014060   -0.00471395   -1.22090093
     atom   15 type  1   force =     0.00005489    0.00478597    1.22105593
     atom   16 type  1   force =    -0.00001441   -0.02400194    4.10313063
     atom   17 type  1   force =     0.00009488    0.07603884    6.45835002
     atom   18 type  1   force =     0.00006567   -0.06758013    9.27656182
     atom   19 type  1   force =     0.00008091    0.02457194   11.21721446
     atom   20 type  1   force =    -0.00009710   -0.02472938  -11.21666832
     The local contribution  to forces
     atom    1 type  1   force =     0.00005460   -0.07609030    9.36663830
     atom    2 type  1   force =     0.00006962    0.07512175    6.48526945
     atom    3 type  1   force =     0.00007780   -0.02542758    4.12910736
     atom    4 type  1   force =     0.00001899    0.00629980    1.22953259
     atom    5 type  1   force =    -0.00010185   -0.00641072   -1.22922027
     atom    6 type  1   force =    -0.00008226    0.02546706   -4.12834359
     atom    7 type  1   force =    -0.00011674   -0.07518751   -6.48556479
     atom    8 type  1   force =    -0.00004237    0.07610630   -9.36653548
     atom    9 type  1   force =    -0.00006419   -0.02751539  -11.33520958
     atom   10 type  1   force =     0.00005147    0.02768027   11.33492290
     atom   11 type  1   force =     0.00001932   -0.07608726    9.36677490
     atom   12 type  1   force =     0.00010403    0.07504399    6.48520158
     atom   13 type  1   force =    -0.00002866   -0.02543750    4.12912660
     atom   14 type  1   force =     0.00010066    0.00631717    1.22937929
     atom   15 type  1   force =    -0.00001424   -0.00638159   -1.22948146
     atom   16 type  1   force =     0.00003071    0.02547271   -4.12845776
     atom   17 type  1   force =    -0.00005577   -0.07527071   -6.48564858
     atom   18 type  1   force =    -0.00003849    0.07612744   -9.36651452
     atom   19 type  1   force =    -0.00005375   -0.02751519  -11.33531272
     atom   20 type  1   force =     0.00007103    0.02765685   11.33480367
     The core correction contribution to forces
     atom    1 type  1   force =     0.00000000    0.00000000    0.00000000
     atom    2 type  1   force =     0.00000000    0.00000000    0.00000000
     atom    3 type  1   force =     0.00000000    0.00000000    0.00000000
     atom    4 type  1   force =     0.00000000    0.00000000    0.00000000
     atom    5 type  1   force =     0.00000000    0.00000000    0.00000000
     atom    6 type  1   force =     0.00000000    0.00000000    0.00000000
     atom    7 type  1   force =     0.00000000    0.00000000    0.00000000
     atom    8 type  1   force =     0.00000000    0.00000000    0.00000000
     atom    9 type  1   force =     0.00000000    0.00000000    0.00000000
     atom   10 type  1   force =     0.00000000    0.00000000    0.00000000
     atom   11 type  1   force =     0.00000000    0.00000000    0.00000000
     atom   12 type  1   force =     0.00000000    0.00000000    0.00000000
     atom   13 type  1   force =     0.00000000    0.00000000    0.00000000
     atom   14 type  1   force =     0.00000000    0.00000000    0.00000000
     atom   15 type  1   force =     0.00000000    0.00000000    0.00000000
     atom   16 type  1   force =     0.00000000    0.00000000    0.00000000
     atom   17 type  1   force =     0.00000000    0.00000000    0.00000000
     atom   18 type  1   force =     0.00000000    0.00000000    0.00000000
     atom   19 type  1   force =     0.00000000    0.00000000    0.00000000
     atom   20 type  1   force =     0.00000000    0.00000000    0.00000000
     The Hubbard contrib.    to forces
     atom    1 type  1   force =     0.00000000    0.00000000    0.00000000
     atom    2 type  1   force =     0.00000000    0.00000000    0.00000000
     atom    3 type  1   force =     0.00000000    0.00000000    0.00000000
     atom    4 type  1   force =     0.00000000    0.00000000    0.00000000
     atom    5 type  1   force =     0.00000000    0.00000000    0.00000000
     atom    6 type  1   force =     0.00000000    0.00000000    0.00000000
     atom    7 type  1   force =     0.00000000    0.00000000    0.00000000
     atom    8 type  1   force =     0.00000000    0.00000000    0.00000000
     atom    9 type  1   force =     0.00000000    0.00000000    0.00000000
     atom   10 type  1   force =     0.00000000    0.00000000    0.00000000
     atom   11 type  1   force =     0.00000000    0.00000000    0.00000000
     atom   12 type  1   force =     0.00000000    0.00000000    0.00000000
     atom   13 type  1   force =     0.00000000    0.00000000    0.00000000
     atom   14 type  1   force =     0.00000000    0.00000000    0.00000000
     atom   15 type  1   force =     0.00000000    0.00000000    0.00000000
     atom   16 type  1   force =     0.00000000    0.00000000    0.00000000
     atom   17 type  1   force =     0.00000000    0.00000000    0.00000000
     atom   18 type  1   force =     0.00000000    0.00000000    0.00000000
     atom   19 type  1   force =     0.00000000    0.00000000    0.00000000
     atom   20 type  1   force =     0.00000000    0.00000000    0.00000000
     The SCF correction term to forces
     atom    1 type  1   force =     0.00000001   -0.00000041   -0.00000306
     atom    2 type  1   force =     0.00000005    0.00000025   -0.00001083
     atom    3 type  1   force =     0.00000003   -0.00000018    0.00000038
     atom    4 type  1   force =    -0.00000002   -0.00000029    0.00000030
     atom    5 type  1   force =     0.00000001    0.00000032   -0.00000026
     atom    6 type  1   force =    -0.00000004    0.00000012   -0.00000036
     atom    7 type  1   force =    -0.00000002   -0.00000029    0.00001041
     atom    8 type  1   force =    -0.00000002    0.00000030    0.00000306
     atom    9 type  1   force =    -0.00000002   -0.00000021   -0.00000047
     atom   10 type  1   force =     0.00000005    0.00000035    0.00000050
     atom   11 type  1   force =     0.00000002   -0.00000037   -0.00000305
     atom   12 type  1   force =     0.00000003    0.00000027   -0.00001073
     atom   13 type  1   force =     0.00000003   -0.00000018    0.00000039
     atom   14 type  1   force =    -0.00000002   -0.00000031    0.00000029
     atom   15 type  1   force =     0.00000001    0.00000032   -0.00000028
     atom   16 type  1   force =    -0.00000005    0.00000014   -0.00000036
     atom   17 type  1   force =    -0.00000002   -0.00000028    0.00001046
     atom   18 type  1   force =    -0.00000000    0.00000033    0.00000311
     atom   19 type  1   force =    -0.00000003   -0.00000025   -0.00000050
     atom   20 type  1   force =     0.00000005    0.00000030    0.00000044

     Total force =     0.001185     Total SCF correction =     0.000022
     Energy error            =      2.3E-06 Ry
     Gradient error          =      3.6E-04 Ry/Bohr

     bfgs converged in  32 scf cycles and  31 bfgs steps
     (criteria: energy <  1.0E-05 Ry, force <  3.9E-04 Ry/Bohr)

     End of BFGS Geometry Optimization

     Final energy             =    -300.7468160329 Ry

     File ./Li/Lithium.bfgs deleted, as requested
Begin final coordinates

ATOMIC_POSITIONS (angstrom)
Li               1.7196137424        2.2013652657       21.0934170045
Li               0.0019672050        4.4339912973       22.2791852994
Li               0.0011859689        1.1520227066       23.2494831244
Li               1.7182238421        3.2446650132       24.4639213640
Li               1.7169053134        0.0138087337       25.4694333384
Li              -0.0011947482        2.1066352748       26.6833791491
Li               1.7155367969        4.2562579433       27.6538850231
Li               1.7155251557        1.0578821877       28.8389215380
Li              -0.0026694984        3.4908383363       30.0485307233
Li               3.4378302952       -0.2313736043       19.8835591512
Li               5.1547542662        2.2012745603       21.0933254805
Li               3.4371925056        4.4338631060       22.2792053323
Li               3.4363716628        1.1519334415       23.2494573008
Li               5.1533914214        3.2446367732       24.4640199952
Li               5.1521124845        0.0138007708       25.4695770468
Li               3.4339386188        2.1067008046       26.6834415137
Li               5.1507763324        4.2560999512       27.6539101832
Li               5.1506994148        1.0578368899       28.8389000809
Li               3.4324772548        3.4908704064       30.0486839466
Li               6.8730205691       -0.2314320835       19.8837182891
End final coordinates



     Writing all to output data dir ./Li/Lithium.save/ :
     XML data file
     init_run     :     10.36s CPU     19.28s WALL (       1 calls)
     electrons    :   9956.37s CPU  12990.93s WALL (      32 calls)
     update_pot   :      1.75s CPU      2.20s WALL (      31 calls)
     forces       :     94.10s CPU    100.63s WALL (      32 calls)

     Called by init_run:
     wfcinit      :      1.53s CPU      2.23s WALL (       1 calls)
     wfcinit:wfcr :      1.47s CPU      2.16s WALL (      31 calls)
     potinit      :      0.70s CPU      0.76s WALL (       1 calls)
     hinit0       :      4.42s CPU     12.44s WALL (       1 calls)

     Called by electrons:
     c_bands      :   8308.26s CPU  10931.77s WALL (     577 calls)
     sum_band     :    421.27s CPU    599.46s WALL (     577 calls)
     v_of_rho     :     22.85s CPU     27.78s WALL (     578 calls)
     v_h          :      2.15s CPU      2.64s WALL (     578 calls)
     v_xc         :     20.69s CPU     25.12s WALL (     578 calls)
     newd         :     11.49s CPU     16.68s WALL (     578 calls)
     PAW_pot      :      4.34s CPU      6.37s WALL (     609 calls)
     mix_rho      :     68.38s CPU     90.01s WALL (     577 calls)

     Called by c_bands:
     init_us_2    :     23.98s CPU     27.12s WALL (   37758 calls)
     cegterg      :   7879.33s CPU   9843.15s WALL (   26485 calls)

     Called by sum_band:
     sum_band:wei :      1.11s CPU      1.35s WALL (     577 calls)
     sum_band:loo :    408.04s CPU    584.20s WALL (     577 calls)
     sum_band:buf :      3.38s CPU      3.93s WALL (   17887 calls)
     sum_band:ini :      8.34s CPU      9.16s WALL (   17887 calls)
     sum_band:cal :     46.65s CPU     58.33s WALL (   18848 calls)
     sum_band:bec :      1.00s CPU      1.20s WALL (   18848 calls)
     addusdens    :      8.81s CPU      9.26s WALL (     577 calls)
                                        0.00s GPU  (     577 calls)
     addusd:skk   :      1.34s CPU      1.41s WALL (     577 calls)
                                        0.00s GPU  (     577 calls)

     Called by *egterg:
     cdiaghg      :   2200.33s CPU   2325.48s WALL (  396871 calls)
     cegterg:over :    407.85s CPU    462.92s WALL (  372817 calls)
     cegterg:upda :    410.98s CPU    429.07s WALL (  372817 calls)
     cegterg:last :     83.63s CPU     85.47s WALL (   34678 calls)
     h_psi        :   4377.94s CPU   6106.68s WALL (  399333 calls)
     s_psi        :    231.35s CPU    251.29s WALL (  399333 calls)
     g_psi        :      4.93s CPU      5.30s WALL (  372817 calls)

     Called by h_psi:
     h_psi:calbec :    422.79s CPU    536.57s WALL (  399333 calls)
     vloc_psi     :   3661.68s CPU   5231.03s WALL (  399333 calls)
                                        0.00s GPU  (  399333 calls)
     add_vuspsi   :    274.79s CPU    318.70s WALL (  399333 calls)

     General routines
     calbec       :    476.82s CPU    603.10s WALL (  422149 calls)
     fft          :     22.72s CPU     36.48s WALL (    7576 calls)
     ffts         :     53.43s CPU     70.80s WALL (   64377 calls)
     fftw         :   3847.71s CPU   5525.34s WALL ( 9035971 calls)
     interpolate  :      2.58s CPU      3.15s WALL (     578 calls)

     Parallel routines

     PAW routines
     PAW_pot      :      4.34s CPU      6.37s WALL (     609 calls)

     Environ routines

     PWSCF        :      2h49m CPU      3h40m WALL


   This run was terminated on:  23:18:12   1Jan2025            

=------------------------------------------------------------------------------=
   JOB DONE.
=------------------------------------------------------------------------------=
