
     Program PWSCF v.7.4 starts on  2Jan2025 at 21: 6:32 

     This program is part of the open-source Quantum ESPRESSO suite
     for quantum simulation of materials; please cite
         "P. Giannozzi et al., J. Phys.:Condens. Matter 21 395502 (2009);
         "P. Giannozzi et al., J. Phys.:Condens. Matter 29 465901 (2017);
         "P. Giannozzi et al., J. Chem. Phys. 152 154105 (2020);
          URL http://www.quantum-espresso.org", 
     in publications or presentations arising from this work. More details at
     http://www.quantum-espresso.org/quote

     Parallel version (MPI & OpenMP), running on     384 processor cores
     Number of MPI processes:               384
     Threads/MPI process:                     1

     MPI processes distributed on     3 nodes
     234479 MiB available memory on the printing compute node when the environment starts

     Reading input from espresso.pwi
Warning: card &CELL ignored
Warning: card    PRESS_CONV_THR   = 0.1 ignored
Warning: card    CELL_DOFREE      = 'ALL' ignored
Warning: card / ignored
Warning: card &FCP ignored
Warning: card / ignored
Warning: card &RISM ignored
Warning: card / ignored

     Current dimensions of program PWSCF are:
     Max number of different atomic species (ntypx) = 10
     Max number of k-points (npk) =  40000
     Max angular momentum in pseudopotentials (lmaxx) =  4

     IMPORTANT: XC functional enforced from input :
     Exchange-correlation= PBE
                           (   1   4   3   4   0   0   0)
     Any further DFT definition will be discarded
     Please, verify this is what you really want


     Reading input from environ.in:
     * using ionic solvent mode
     * setting boundary derivatives method to SSCS default
     * setting electrolyte-boundary derivatives method to SSCS default

Environ Warning (1001): card EOF ignored

     
     Found identity + (  0.5000 -0.0000  0.0000) symmetry
     This is a supercell, fractional translations are disabled

     K-points division:     npool     =       2
     R & G space division:  proc/nbgrp/npool/nimage =     192
     Subspace diagonalization in iterative solution of the eigenvalue problem:
     a serial algorithm will be used


     Parallelization info
     --------------------
     sticks:   dense  smooth     PW     G-vecs:    dense   smooth      PW
     Min          96      38     10                56184    14194    1882
     Max          97      39     11                56261    14243    1918
     Sum       18577    7447   1945             10795351  2731157  365513

     Using Slab Decomposition



     bravais-lattice index     =            4
     lattice parameter (alat)  =      18.3607  a.u.
     unit-cell volume          =   28251.3786 (a.u.)^3
     number of atoms/cell      =           48
     number of atomic types    =            1
     number of electrons       =       144.00
     number of Kohn-Sham states=          108
     kinetic-energy cutoff     =      80.0000  Ry
     charge density cutoff     =     800.0000  Ry
     scf convergence threshold =      1.0E-06
     mixing beta               =       0.2000
     number of iterations used =            8  local-TF  mixing
     energy convergence thresh.=      1.0E-05
     force convergence thresh. =      3.9E-04
     Exchange-correlation= PBE
                           (   1   4   3   4   0   0   0)
     nstep                     =          999


     ================================================================================

                                  Environ Setup Summary

     ================================================================================

     Please cite

          O. Andreussi, I. Dabo and N. Marzari, J. Chem. Phys. 136, 064102 (2012)
          F. Nattino, M. Truscott, N. Marzari, and O. Andreussi, J. Chem. Phys. 150, 041722 (2019)

     in publications or presentations arising from this work.

     ================================================================================

     Parameters
     ==========

     compensation onset threshold      =               0.1000E+00
     static permittivity               =                    89.90
     surface tension in input (dyn/cm) =                    37.30
     surface tension in internal units =               0.4792E-04

     Solvent Boundary
     ================

     solvent mode                      =                    ionic
     derivatives method                =                   lowmem
     electrolyte derivatives method    =                   lowmem
     numerical core for derivatives    =                      fft
     switching function adopted        =                     SCCS
     density limit for vacuum region   =               0.5000E-02
     density limit for bulk solvent    =               0.1000E-03
     soft-sphere radius mode           =                    bondi
     soft-sphere softness              =                     0.50
     alpha                             =                     1.32

     Electrostatic Setup
     ===================

     electrostatic problem to solve    =                    modpb
     numerical solver adopted          =                   newton
     type of auxiliary density adopted =                     none
     numerical core for poisson        =                      fft
     adopting a nested solver scheme
     inner solver                      =                       cg
     inner core                        =                      fft
     type of pbc corrections           =                parabolic
     numerical core for corrections    =                      1da

     ================================================================================


     >>>>> Grand-Canonical SCF is activated <<<<<
     Initial Total Charge  =     0.000000 e
     Target Fermi Energy   =    -2.404000 eV
     Thr. of Fermi Energy  =     0.001000 eV
     Wave-shift of Kerker  =     0.400000 bohr^-1
     Wave-shift of Hartree =     1.500000 bohr^-1
     Mixing Rate of Fermi  =     0.050000

     celldm(1)=  18.360747  celldm(2)=   0.000000  celldm(3)=   5.270332
     celldm(4)=   0.000000  celldm(5)=   0.000000  celldm(6)=   0.000000

     crystal axes: (cart. coord. in units of alat)
               a(1) = (   1.000000   0.000000   0.000000 )  
               a(2) = (  -0.500000   0.866025   0.000000 )  
               a(3) = (   0.000000   0.000000   5.270332 )  

     reciprocal axes: (cart. coord. in units 2 pi/alat)
               b(1) = (  1.000000  0.577350 -0.000000 )  
               b(2) = (  0.000000  1.154701  0.000000 )  
               b(3) = (  0.000000 -0.000000  0.189741 )  


     PseudoPot. # 1 for Li read from file:
     /work/e89/e89/ba3g18/Repos/Pseudopotentials/Pslibrary/Li.pbe-sl-kjpaw_psl.1.0.0.UPF
     MD5 check sum: 3f4d2cafebb47c6c3aa8ed472e6f074d
     Pseudo is Projector augmented-wave, Zval =  3.0
     Generated using 'atomic' code by A. Dal Corso  v.7.4
     Shape of augmentation charge: PSQ
     Using radial grid of 1017 points,  4 beta functions with: 
                l(1) =   0
                l(2) =   0
                l(3) =   1
                l(4) =   1
     Q(r) pseudized with 0 coefficients 


     atomic species   valence    mass     pseudopotential
     Li                3.00     6.94000     Li( 1.00)

      2 Sym. Ops. (no inversion) found


                                    s                        frac. trans.

      isym =  1     identity                                     

 cryst.   s( 1) = (     1          0          0      )
                  (     0          1          0      )
                  (     0          0          1      )

 cart.    s( 1) = (  1.0000000  0.0000000  0.0000000 )
                  (  0.0000000  1.0000000  0.0000000 )
                  (  0.0000000  0.0000000  1.0000000 )


      isym =  2     inv. 180 deg rotation - cart. axis [1,0,0]   

 cryst.   s( 2) = (    -1          0          0      )
                  (     1          1          0      )
                  (     0          0          1      )

 cart.    s( 2) = ( -1.0000000  0.0000000  0.0000000 )
                  (  0.0000000  1.0000000  0.0000000 )
                  (  0.0000000  0.0000000  1.0000000 )


     point group C_s (m)    
     there are  2 classes
     the character table:

       E     s    
A'     1.00  1.00
A''    1.00 -1.00

     the symmetry operations in each class and the name of the first element:

     E        1
          identity                                               
     s        2
          inv. 180 deg rotation - cart. axis [1,0,0]             

   Cartesian axes

     site n.     atom                  positions (alat units)
         1        Li     tau(   1) = (  -0.0000000   0.0000027   2.5819631  )
         2        Li     tau(   2) = (   0.2500003   0.1443432   2.1935100  )
         3        Li     tau(   3) = (   0.5000000   0.2886765   2.3727803  )
         4        Li     tau(   4) = (   0.0000000   0.0000056   2.2700504  )
         5        Li     tau(   5) = (   0.2500006   0.1443405   2.4863717  )
         6        Li     tau(   6) = (   0.5000000   0.2886803   2.0639476  )
         7        Li     tau(   7) = (   0.0000000  -0.0000080   3.2064051  )
         8        Li     tau(   8) = (   0.2500015   0.1443369   2.7839684  )
         9        Li     tau(   9) = (   0.5000000   0.2886700   3.0002591  )
        10        Li     tau(  10) = (  -0.0000000  -0.0000016   2.8975746  )
        11        Li     tau(  11) = (   0.2500016   0.1443347   3.0767980  )
        12        Li     tau(  12) = (   0.5000000   0.2886727   2.6883723  )
        13        Li     tau(  13) = (   0.2499990   0.4330120   2.5819621  )
        14        Li     tau(  14) = (   0.5000000   0.5773534   2.1935092  )
        15        Li     tau(  15) = (   0.7500020   0.7216914   2.3727796  )
        16        Li     tau(  16) = (   0.2499988   0.4330162   2.2700489  )
        17        Li     tau(  17) = (   0.5000000   0.5773506   2.4863695  )
        18        Li     tau(  18) = (   0.7499969   0.7216940   2.0639490  )
        19        Li     tau(  19) = (   0.2500003   0.4330114   3.2064043  )
        20        Li     tau(  20) = (   0.5000000   0.5773461   2.7839663  )
        21        Li     tau(  21) = (   0.7500017   0.7216841   3.0002588  )
        22        Li     tau(  22) = (   0.2499994   0.4330083   2.8975737  )
        23        Li     tau(  23) = (   0.5000000   0.5773437   3.0767943  )
        24        Li     tau(  24) = (   0.7500022   0.7216874   2.6883714  )
        25        Li     tau(  25) = (   0.5000000   0.0000012   2.5819634  )
        26        Li     tau(  26) = (   0.7499997   0.1443432   2.1935100  )
        27        Li     tau(  27) = (   1.0000000   0.2886787   2.3727791  )
        28        Li     tau(  28) = (   0.5000000   0.0000041   2.2700508  )
        29        Li     tau(  29) = (   0.7499994   0.1443405   2.4863717  )
        30        Li     tau(  30) = (   1.0000000   0.2886767   2.0639476  )
        31        Li     tau(  31) = (   0.5000000  -0.0000079   3.2064055  )
        32        Li     tau(  32) = (   0.7499985   0.1443369   2.7839684  )
        33        Li     tau(  33) = (   1.0000000   0.2886716   3.0002577  )
        34        Li     tau(  34) = (   0.5000000  -0.0000022   2.8975745  )
        35        Li     tau(  35) = (   0.7499984   0.1443347   3.0767980  )
        36        Li     tau(  36) = (   1.0000000   0.2886755   2.6883702  )
        37        Li     tau(  37) = (   0.7500010   0.4330120   2.5819621  )
        38        Li     tau(  38) = (   1.0000000   0.5773539   2.1935051  )
        39        Li     tau(  39) = (   1.2499980   0.7216914   2.3727796  )
        40        Li     tau(  40) = (   0.7500012   0.4330162   2.2700489  )
        41        Li     tau(  41) = (   1.0000000   0.5773510   2.4863671  )
        42        Li     tau(  42) = (   1.2500031   0.7216940   2.0639490  )
        43        Li     tau(  43) = (   0.7499997   0.4330114   3.2064043  )
        44        Li     tau(  44) = (   1.0000000   0.5773480   2.7839636  )
        45        Li     tau(  45) = (   1.2499983   0.7216841   3.0002588  )
        46        Li     tau(  46) = (   0.7500006   0.4330083   2.8975737  )
        47        Li     tau(  47) = (   1.0000000   0.5773451   3.0767916  )
        48        Li     tau(  48) = (   1.2499978   0.7216874   2.6883714  )

   Crystallographic axes

     site n.     atom                  positions (cryst. coord.)
         1        Li     tau(   1) = (  0.0000015  0.0000031  0.4899052  )
         2        Li     tau(   2) = (  0.3333369  0.1666732  0.4161996  )
         3        Li     tau(   3) = (  0.6666674  0.3333349  0.4502146  )
         4        Li     tau(   4) = (  0.0000032  0.0000064  0.4307225  )
         5        Li     tau(   5) = (  0.3333356  0.1666700  0.4717676  )
         6        Li     tau(   6) = (  0.6666697  0.3333393  0.3916162  )
         7        Li     tau(   7) = ( -0.0000046 -0.0000092  0.6083877  )
         8        Li     tau(   8) = (  0.3333344  0.1666659  0.5282340  )
         9        Li     tau(   9) = (  0.6666637  0.3333274  0.5692733  )
        10        Li     tau(  10) = ( -0.0000009 -0.0000018  0.5497898  )
        11        Li     tau(  11) = (  0.3333333  0.1666634  0.5837959  )
        12        Li     tau(  12) = (  0.6666653  0.3333305  0.5100954  )
        13        Li     tau(  13) = (  0.4999986  0.4999991  0.4899050  )
        14        Li     tau(  14) = (  0.8333351  0.6666703  0.4161994  )
        15        Li     tau(  15) = (  1.1666707  0.8333375  0.4502144  )
        16        Li     tau(  16) = (  0.5000008  0.5000040  0.4307222  )
        17        Li     tau(  17) = (  0.8333335  0.6666670  0.4717672  )
        18        Li     tau(  18) = (  1.1666672  0.8333405  0.3916165  )
        19        Li     tau(  19) = (  0.4999995  0.4999985  0.6083875  )
        20        Li     tau(  20) = (  0.8333309  0.6666619  0.5282336  )
        21        Li     tau(  21) = (  1.1666662  0.8333290  0.5692732  )
        22        Li     tau(  22) = (  0.4999968  0.4999949  0.5497896  )
        23        Li     tau(  23) = (  0.8333295  0.6666591  0.5837952  )
        24        Li     tau(  24) = (  1.1666686  0.8333328  0.5100953  )
        25        Li     tau(  25) = (  0.5000007  0.0000014  0.4899053  )
        26        Li     tau(  26) = (  0.8333363  0.1666732  0.4161996  )
        27        Li     tau(  27) = (  1.1666687  0.3333375  0.4502144  )
        28        Li     tau(  28) = (  0.5000024  0.0000048  0.4307226  )
        29        Li     tau(  29) = (  0.8333344  0.1666700  0.4717676  )
        30        Li     tau(  30) = (  1.1666676  0.3333352  0.3916162  )
        31        Li     tau(  31) = (  0.4999954 -0.0000092  0.6083878  )
        32        Li     tau(  32) = (  0.8333314  0.1666659  0.5282340  )
        33        Li     tau(  33) = (  1.1666646  0.3333293  0.5692730  )
        34        Li     tau(  34) = (  0.4999987 -0.0000026  0.5497898  )
        35        Li     tau(  35) = (  0.8333301  0.1666634  0.5837959  )
        36        Li     tau(  36) = (  1.1666669  0.3333338  0.5100950  )
        37        Li     tau(  37) = (  1.0000005  0.4999991  0.4899050  )
        38        Li     tau(  38) = (  1.3333354  0.6666708  0.4161987  )
        39        Li     tau(  39) = (  1.6666667  0.8333375  0.4502144  )
        40        Li     tau(  40) = (  1.0000032  0.5000040  0.4307222  )
        41        Li     tau(  41) = (  1.3333337  0.6666675  0.4717667  )
        42        Li     tau(  42) = (  1.6666733  0.8333405  0.3916165  )
        43        Li     tau(  43) = (  0.9999990  0.4999985  0.6083875  )
        44        Li     tau(  44) = (  1.3333320  0.6666641  0.5282331  )
        45        Li     tau(  45) = (  1.6666628  0.8333290  0.5692732  )
        46        Li     tau(  46) = (  0.9999981  0.4999949  0.5497896  )
        47        Li     tau(  47) = (  1.3333303  0.6666607  0.5837946  )
        48        Li     tau(  48) = (  1.6666642  0.8333328  0.5100953  )

     number of k points=    16  Marzari-Vanderbilt smearing, width (Ry)=  0.0100
                       cart. coord. in units 2pi/alat
        k(    1) = (   0.0000000   0.0000000   0.0000000), wk =   0.0408163
        k(    2) = (   0.0000000   0.1649572   0.0000000), wk =   0.0816327
        k(    3) = (   0.0000000   0.3299144   0.0000000), wk =   0.0816327
        k(    4) = (   0.0000000   0.4948717   0.0000000), wk =   0.0816327
        k(    5) = (   0.1428571   0.2474358   0.0000000), wk =   0.1632653
        k(    6) = (   0.1428571   0.4123930   0.0000000), wk =   0.1632653
        k(    7) = (   0.1428571   0.5773503   0.0000000), wk =   0.0816327
        k(    8) = (   0.2857143   0.4948717   0.0000000), wk =   0.1632653
        k(    9) = (  -0.1428571   0.0824786   0.0000000), wk =   0.1632653
        k(   10) = (  -0.2857143   0.1649572   0.0000000), wk =   0.1632653
        k(   11) = (  -0.4285714   0.2474358   0.0000000), wk =   0.1632653
        k(   12) = (   0.2857143  -0.0000000   0.0000000), wk =   0.0816327
        k(   13) = (  -0.2857143   0.3299144   0.0000000), wk =   0.1632653
        k(   14) = (   0.4285714   0.0824786   0.0000000), wk =   0.1632653
        k(   15) = (  -0.4285714   0.4123930   0.0000000), wk =   0.1632653
        k(   16) = (   0.5714286  -0.0000000   0.0000000), wk =   0.0816327

                       cryst. coord.
        k(    1) = (   0.0000000   0.0000000   0.0000000), wk =   0.0408163
        k(    2) = (   0.0000000   0.1428571   0.0000000), wk =   0.0816327
        k(    3) = (   0.0000000   0.2857143   0.0000000), wk =   0.0816327
        k(    4) = (   0.0000000   0.4285714   0.0000000), wk =   0.0816327
        k(    5) = (   0.1428571   0.1428571   0.0000000), wk =   0.1632653
        k(    6) = (   0.1428571   0.2857143   0.0000000), wk =   0.1632653
        k(    7) = (   0.1428571   0.4285714   0.0000000), wk =   0.0816327
        k(    8) = (   0.2857143   0.2857143   0.0000000), wk =   0.1632653
        k(    9) = (  -0.1428571   0.1428571   0.0000000), wk =   0.1632653
        k(   10) = (  -0.2857143   0.2857143   0.0000000), wk =   0.1632653
        k(   11) = (  -0.4285714   0.4285714   0.0000000), wk =   0.1632653
        k(   12) = (   0.2857143  -0.1428571   0.0000000), wk =   0.0816327
        k(   13) = (  -0.2857143   0.4285714   0.0000000), wk =   0.1632653
        k(   14) = (   0.4285714  -0.1428571   0.0000000), wk =   0.1632653
        k(   15) = (  -0.4285714   0.5714286   0.0000000), wk =   0.1632653
        k(   16) = (   0.5714286  -0.2857143   0.0000000), wk =   0.0816327

     Dense  grid: 10795351 G-vectors     FFT dimensions: ( 180, 180, 900)

     Smooth grid:  2731157 G-vectors     FFT dimensions: ( 108, 108, 576)

     Dynamical RAM for                 wfc:       2.93 MB

     Dynamical RAM for     wfc (w. buffer):      26.36 MB

     Dynamical RAM for           str. fact:       0.86 MB

     Dynamical RAM for           local pot:       0.00 MB

     Dynamical RAM for          nlocal pot:      10.41 MB

     Dynamical RAM for                qrad:       0.65 MB

     Dynamical RAM for          rho,v,vnew:       6.28 MB

     Dynamical RAM for               rhoin:       2.09 MB

     Dynamical RAM for            rho*nmix:      13.73 MB

     Dynamical RAM for           G-vectors:       3.33 MB

     Dynamical RAM for          h,s,v(r/c):       8.54 MB

     Dynamical RAM for          <psi|beta>:       0.63 MB

     Dynamical RAM for                 psi:      11.71 MB

     Dynamical RAM for                hpsi:      11.71 MB

     Dynamical RAM for                spsi:      11.71 MB

     Dynamical RAM for      wfcinit/wfcrot:       6.12 MB

     Dynamical RAM for           addusdens:      39.47 MB

     Dynamical RAM for          addusforce:      79.84 MB

     Estimated static dynamical RAM per process >      57.87 MB

     Estimated max dynamical RAM per process >     164.72 MB

     Estimated total dynamical RAM >      54.21 GB

     Initial potential from superposition of free atoms

     starting charge     143.7788, renormalised to     144.0000

     negative rho (up, down):  4.707E-03 0.000E+00
     Starting wfcs are random
     Checking if some PAW data can be deallocated... 

     total cpu time spent up to now is       36.5 secs

     Self-consistent Calculation

     iteration #  1     ecut=    80.00 Ry     beta= 0.20
     Davidson diagonalization with overlap

---- Real-time Memory Report at c_bands before calling an iterative solver
          1124 MiB given to the printing process from OS
             0 MiB allocation reported by mallinfo(arena+hblkhd)
        215972 MiB available memory on the node where the printing process lives
------------------
     c_bands:  1 eigenvalues not converged
     ethr =  1.00E-12,  avg # of iterations =139.5

     negative rho (up, down):  3.553E-03 0.000E+00

     total cpu time spent up to now is      274.4 secs

     total energy              =    -721.83164720 Ry
     estimated scf accuracy    <       0.17034768 Ry

     total charge of GC-SCF    =       0.03182867 e
     the Fermi energy          =      -4.49434812 eV
                        (error :       2.09034812 eV)
     electrostatic embedding   =       0.00000000 Ry
     cavitation energy         =       0.03820715 Ry
     electrolyte free energy   =       0.01215974 Ry
     correction to one-el term =      -0.00000000 Ry

     iteration #  2     ecut=    80.00 Ry     beta= 0.20
     Davidson diagonalization with overlap

---- Real-time Memory Report at c_bands before calling an iterative solver
          1124 MiB given to the printing process from OS
             0 MiB allocation reported by mallinfo(arena+hblkhd)
        208444 MiB available memory on the node where the printing process lives
------------------
     ethr =  1.00E-05,  avg # of iterations = 11.9

     negative rho (up, down):  2.690E-03 0.000E+00

     add environment contribution to local potential

     total cpu time spent up to now is      311.7 secs

     total energy              =    -721.75455235 Ry
     estimated scf accuracy    <       0.06529400 Ry

     total charge of GC-SCF    =       0.06080162 e
     the Fermi energy          =      -3.53099347 eV
                        (error :       1.12699347 eV)
     electrostatic embedding   =       0.00025484 Ry
     cavitation energy         =       0.03820715 Ry
     electrolyte free energy   =       0.01215974 Ry
     correction to one-el term =      -0.00000000 Ry

     iteration #  3     ecut=    80.00 Ry     beta= 0.20
     Davidson diagonalization with overlap

---- Real-time Memory Report at c_bands before calling an iterative solver
          1124 MiB given to the printing process from OS
             0 MiB allocation reported by mallinfo(arena+hblkhd)
        207839 MiB available memory on the node where the printing process lives
------------------
     ethr =  1.00E-05,  avg # of iterations = 32.7

     negative rho (up, down):  2.209E-03 0.000E+00

     add environment contribution to local potential

     total cpu time spent up to now is      366.9 secs

     total energy              =    -721.67045196 Ry
     estimated scf accuracy    <       0.04322140 Ry

     total charge of GC-SCF    =      -0.01144238 e
     the Fermi energy          =      -2.94242963 eV
                        (error :       0.53842963 eV)
     electrostatic embedding   =      -0.03630435 Ry
     cavitation energy         =       0.03820715 Ry
     electrolyte free energy   =      -0.00397200 Ry
     correction to one-el term =      -1.57844453 Ry

     iteration #  4     ecut=    80.00 Ry     beta= 0.20
     Davidson diagonalization with overlap

---- Real-time Memory Report at c_bands before calling an iterative solver
          1124 MiB given to the printing process from OS
             0 MiB allocation reported by mallinfo(arena+hblkhd)
        207717 MiB available memory on the node where the printing process lives
------------------
     ethr =  1.00E-05,  avg # of iterations = 19.0

     negative rho (up, down):  1.748E-03 0.000E+00

     add environment contribution to local potential

     total cpu time spent up to now is      415.6 secs

     total energy              =    -721.63375081 Ry
     estimated scf accuracy    <       0.03391439 Ry

     total charge of GC-SCF    =      -0.05670837 e
     the Fermi energy          =      -3.44680142 eV
                        (error :       1.04280142 eV)
     electrostatic embedding   =      -0.03795098 Ry
     cavitation energy         =       0.03820715 Ry
     electrolyte free energy   =      -0.00585993 Ry
     correction to one-el term =       3.16535177 Ry

     iteration #  5     ecut=    80.00 Ry     beta= 0.20
     Davidson diagonalization with overlap

---- Real-time Memory Report at c_bands before calling an iterative solver
          1124 MiB given to the printing process from OS
             0 MiB allocation reported by mallinfo(arena+hblkhd)
        207642 MiB available memory on the node where the printing process lives
------------------
     ethr =  1.00E-05,  avg # of iterations = 24.4

     negative rho (up, down):  1.486E-03 0.000E+00

     add environment contribution to local potential

     total cpu time spent up to now is      469.1 secs

     total energy              =    -721.67690765 Ry
     estimated scf accuracy    <       0.00449293 Ry

     total charge of GC-SCF    =      -0.16581760 e
     the Fermi energy          =      -2.79517007 eV
                        (error :       0.39117007 eV)
     electrostatic embedding   =      -0.03965203 Ry
     cavitation energy         =       0.03820715 Ry
     electrolyte free energy   =      -0.00237111 Ry
     correction to one-el term =       6.39323159 Ry

     iteration #  6     ecut=    80.00 Ry     beta= 0.20
     Davidson diagonalization with overlap

---- Real-time Memory Report at c_bands before calling an iterative solver
          1124 MiB given to the printing process from OS
             0 MiB allocation reported by mallinfo(arena+hblkhd)
        207487 MiB available memory on the node where the printing process lives
------------------
     ethr =  3.12E-06,  avg # of iterations = 23.6

     negative rho (up, down):  1.308E-03 0.000E+00

     add environment contribution to local potential

     total cpu time spent up to now is      519.3 secs

     total energy              =    -721.73927170 Ry
     estimated scf accuracy    <       0.01103609 Ry

     total charge of GC-SCF    =      -0.27668865 e
     the Fermi energy          =      -2.45378396 eV
                        (error :       0.04978396 eV)
     electrostatic embedding   =      -0.05661200 Ry
     cavitation energy         =       0.03820715 Ry
     electrolyte free energy   =      -0.00091708 Ry
     correction to one-el term =      14.28824852 Ry

     iteration #  7     ecut=    80.00 Ry     beta= 0.20
     Davidson diagonalization with overlap

---- Real-time Memory Report at c_bands before calling an iterative solver
          1124 MiB given to the printing process from OS
             0 MiB allocation reported by mallinfo(arena+hblkhd)
        207323 MiB available memory on the node where the printing process lives
------------------
     ethr =  3.12E-06,  avg # of iterations = 11.1

     negative rho (up, down):  1.302E-03 0.000E+00

     add environment contribution to local potential

     total cpu time spent up to now is      551.5 secs

     total energy              =    -721.69911917 Ry
     estimated scf accuracy    <       0.00758638 Ry

     total charge of GC-SCF    =      -0.53609924 e
     the Fermi energy          =      -2.42161491 eV
                        (error :       0.01761491 eV)
     electrostatic embedding   =      -0.07913916 Ry
     cavitation energy         =       0.03820715 Ry
     electrolyte free energy   =      -0.00095606 Ry
     correction to one-el term =      20.15166902 Ry

     iteration #  8     ecut=    80.00 Ry     beta= 0.20
     Davidson diagonalization with overlap

---- Real-time Memory Report at c_bands before calling an iterative solver
          1124 MiB given to the printing process from OS
             0 MiB allocation reported by mallinfo(arena+hblkhd)
        207285 MiB available memory on the node where the printing process lives
------------------
     ethr =  3.12E-06,  avg # of iterations = 11.8

     negative rho (up, down):  1.185E-03 0.000E+00

     add environment contribution to local potential

     total cpu time spent up to now is      588.1 secs

     total energy              =    -721.72799143 Ry
     estimated scf accuracy    <       0.00048709 Ry

     total charge of GC-SCF    =      -0.62255829 e
     the Fermi energy          =      -2.57016757 eV
                        (error :       0.16616757 eV)
     electrostatic embedding   =      -0.13648457 Ry
     cavitation energy         =       0.03820715 Ry
     electrolyte free energy   =      -0.00124864 Ry
     correction to one-el term =      30.12772330 Ry

     iteration #  9     ecut=    80.00 Ry     beta= 0.20
     Davidson diagonalization with overlap

---- Real-time Memory Report at c_bands before calling an iterative solver
          1124 MiB given to the printing process from OS
             0 MiB allocation reported by mallinfo(arena+hblkhd)
        207324 MiB available memory on the node where the printing process lives
------------------
     ethr =  3.37E-07,  avg # of iterations =  9.6

     negative rho (up, down):  1.072E-03 0.000E+00

     add environment contribution to local potential

     total cpu time spent up to now is      620.9 secs

     total energy              =    -721.73260817 Ry
     estimated scf accuracy    <       0.00048360 Ry

     total charge of GC-SCF    =      -0.81799147 e
     the Fermi energy          =      -2.54677861 eV
                        (error :       0.14277861 eV)
     electrostatic embedding   =      -0.15113431 Ry
     cavitation energy         =       0.03820715 Ry
     electrolyte free energy   =      -0.00123067 Ry
     correction to one-el term =      32.88255695 Ry

     iteration # 10     ecut=    80.00 Ry     beta= 0.20
     Davidson diagonalization with overlap

---- Real-time Memory Report at c_bands before calling an iterative solver
          1124 MiB given to the printing process from OS
             0 MiB allocation reported by mallinfo(arena+hblkhd)
        207173 MiB available memory on the node where the printing process lives
------------------
     ethr =  3.34E-07,  avg # of iterations = 12.3

     negative rho (up, down):  9.406E-04 0.000E+00

     add environment contribution to local potential

     total cpu time spent up to now is      658.1 secs

     total energy              =    -721.72975564 Ry
     estimated scf accuracy    <       0.00260570 Ry

     total charge of GC-SCF    =      -0.95545735 e
     the Fermi energy          =      -2.44406236 eV
                        (error :       0.04006236 eV)
     electrostatic embedding   =      -0.19816415 Ry
     cavitation energy         =       0.03820715 Ry
     electrolyte free energy   =      -0.00143109 Ry
     correction to one-el term =      40.09054825 Ry

     iteration # 11     ecut=    80.00 Ry     beta= 0.20
     Davidson diagonalization with overlap

---- Real-time Memory Report at c_bands before calling an iterative solver
          1124 MiB given to the printing process from OS
             0 MiB allocation reported by mallinfo(arena+hblkhd)
        207071 MiB available memory on the node where the printing process lives
------------------
     ethr =  3.34E-07,  avg # of iterations = 10.8

     negative rho (up, down):  8.636E-04 0.000E+00

     add environment contribution to local potential

     total cpu time spent up to now is      691.2 secs

     total energy              =    -721.73108034 Ry
     estimated scf accuracy    <       0.00112094 Ry

     total charge of GC-SCF    =      -1.07353538 e
     the Fermi energy          =      -2.48534029 eV
                        (error :       0.08134029 eV)
     electrostatic embedding   =      -0.23548131 Ry
     cavitation energy         =       0.03820715 Ry
     electrolyte free energy   =      -0.00154718 Ry
     correction to one-el term =      43.99715425 Ry

     iteration # 12     ecut=    80.00 Ry     beta= 0.20
     Davidson diagonalization with overlap

---- Real-time Memory Report at c_bands before calling an iterative solver
          1124 MiB given to the printing process from OS
             0 MiB allocation reported by mallinfo(arena+hblkhd)
        207088 MiB available memory on the node where the printing process lives
------------------
     ethr =  3.34E-07,  avg # of iterations = 12.4

     negative rho (up, down):  7.706E-04 0.000E+00

     add environment contribution to local potential

     total cpu time spent up to now is      726.3 secs

     total energy              =    -721.73476875 Ry
     estimated scf accuracy    <       0.00028571 Ry

     total charge of GC-SCF    =      -1.21225752 e
     the Fermi energy          =      -2.53296169 eV
                        (error :       0.12896169 eV)
     electrostatic embedding   =      -0.27096274 Ry
     cavitation energy         =       0.03820715 Ry
     electrolyte free energy   =      -0.00175193 Ry
     correction to one-el term =      47.15321664 Ry

     iteration # 13     ecut=    80.00 Ry     beta= 0.20
     Davidson diagonalization with overlap

---- Real-time Memory Report at c_bands before calling an iterative solver
          1124 MiB given to the printing process from OS
             0 MiB allocation reported by mallinfo(arena+hblkhd)
        207098 MiB available memory on the node where the printing process lives
------------------
     ethr =  1.97E-07,  avg # of iterations = 16.4

     negative rho (up, down):  6.901E-04 0.000E+00

     add environment contribution to local potential

     total cpu time spent up to now is      770.5 secs

     total energy              =    -721.73785199 Ry
     estimated scf accuracy    <       0.00004173 Ry

     total charge of GC-SCF    =      -1.44738039 e
     the Fermi energy          =      -2.54855687 eV
                        (error :       0.14455687 eV)
     electrostatic embedding   =      -0.31928486 Ry
     cavitation energy         =       0.03820715 Ry
     electrolyte free energy   =      -0.00205726 Ry
     correction to one-el term =      51.43511434 Ry

     iteration # 14     ecut=    80.00 Ry     beta= 0.20
     Davidson diagonalization with overlap

---- Real-time Memory Report at c_bands before calling an iterative solver
          1124 MiB given to the printing process from OS
             0 MiB allocation reported by mallinfo(arena+hblkhd)
        207060 MiB available memory on the node where the printing process lives
------------------
     ethr =  2.87E-08,  avg # of iterations = 22.1

     negative rho (up, down):  6.563E-04 0.000E+00

     add environment contribution to local potential

     total cpu time spent up to now is      819.2 secs

     total energy              =    -721.74459834 Ry
     estimated scf accuracy    <       0.00004115 Ry

     total charge of GC-SCF    =      -1.44707333 e
     the Fermi energy          =      -2.54615401 eV
                        (error :       0.14215401 eV)
     electrostatic embedding   =      -0.40927528 Ry
     cavitation energy         =       0.03820715 Ry
     electrolyte free energy   =      -0.00257876 Ry
     correction to one-el term =      58.79153363 Ry

     iteration # 15     ecut=    80.00 Ry     beta= 0.20
     Davidson diagonalization with overlap

---- Real-time Memory Report at c_bands before calling an iterative solver
          1124 MiB given to the printing process from OS
             0 MiB allocation reported by mallinfo(arena+hblkhd)
        206982 MiB available memory on the node where the printing process lives
------------------
     ethr =  2.83E-08,  avg # of iterations =  7.9

     negative rho (up, down):  6.229E-04 0.000E+00

     add environment contribution to local potential

     total cpu time spent up to now is      848.0 secs

     total energy              =    -721.74455806 Ry
     estimated scf accuracy    <       0.00002556 Ry

     total charge of GC-SCF    =      -1.80945105 e
     the Fermi energy          =      -2.53637004 eV
                        (error :       0.13237004 eV)
     electrostatic embedding   =      -0.40922898 Ry
     cavitation energy         =       0.03820715 Ry
     electrolyte free energy   =      -0.00255322 Ry
     correction to one-el term =      58.92425195 Ry

     iteration # 16     ecut=    80.00 Ry     beta= 0.20
     Davidson diagonalization with overlap

---- Real-time Memory Report at c_bands before calling an iterative solver
          1124 MiB given to the printing process from OS
             0 MiB allocation reported by mallinfo(arena+hblkhd)
        206990 MiB available memory on the node where the printing process lives
------------------
     ethr =  1.75E-08,  avg # of iterations = 24.1

     negative rho (up, down):  6.035E-04 0.000E+00

     add environment contribution to local potential

     total cpu time spent up to now is      903.9 secs

     total energy              =    -721.75307635 Ry
     estimated scf accuracy    <       0.00001290 Ry

     total charge of GC-SCF    =      -2.19016740 e
     the Fermi energy          =      -2.49644161 eV
                        (error :       0.09244161 eV)
     electrostatic embedding   =      -0.57864336 Ry
     cavitation energy         =       0.03820715 Ry
     electrolyte free energy   =      -0.00360467 Ry
     correction to one-el term =      71.23671793 Ry

     iteration # 17     ecut=    80.00 Ry     beta= 0.20
     Davidson diagonalization with overlap

---- Real-time Memory Report at c_bands before calling an iterative solver
          1124 MiB given to the printing process from OS
             0 MiB allocation reported by mallinfo(arena+hblkhd)
        207021 MiB available memory on the node where the printing process lives
------------------
     ethr =  8.82E-09,  avg # of iterations = 22.8

     negative rho (up, down):  5.738E-04 0.000E+00

     add environment contribution to local potential

     total cpu time spent up to now is      960.6 secs

     total energy              =    -721.74822122 Ry
     estimated scf accuracy    <       0.00001091 Ry

     total charge of GC-SCF    =      -2.25628238 e
     the Fermi energy          =      -2.45258327 eV
                        (error :       0.04858327 eV)
     electrostatic embedding   =      -0.79316639 Ry
     cavitation energy         =       0.03820715 Ry
     electrolyte free energy   =      -0.00517844 Ry
     correction to one-el term =      84.40108330 Ry

     iteration # 18     ecut=    80.00 Ry     beta= 0.20
     Davidson diagonalization with overlap

---- Real-time Memory Report at c_bands before calling an iterative solver
          1124 MiB given to the printing process from OS
             0 MiB allocation reported by mallinfo(arena+hblkhd)
        206993 MiB available memory on the node where the printing process lives
------------------
     ethr =  7.46E-09,  avg # of iterations = 15.4

     negative rho (up, down):  5.561E-04 0.000E+00

     add environment contribution to local potential

     total cpu time spent up to now is     1005.3 secs

     total energy              =    -721.75021337 Ry
     estimated scf accuracy    <       0.00000457 Ry

     total charge of GC-SCF    =      -2.41445623 e
     the Fermi energy          =      -2.43704971 eV
                        (error :       0.03304971 eV)
     electrostatic embedding   =      -0.83336854 Ry
     cavitation energy         =       0.03820715 Ry
     electrolyte free energy   =      -0.00549850 Ry
     correction to one-el term =      86.73597710 Ry

     iteration # 19     ecut=    80.00 Ry     beta= 0.20
     Davidson diagonalization with overlap

---- Real-time Memory Report at c_bands before calling an iterative solver
          1124 MiB given to the printing process from OS
             0 MiB allocation reported by mallinfo(arena+hblkhd)
        206981 MiB available memory on the node where the printing process lives
------------------
     ethr =  3.12E-09,  avg # of iterations = 22.6

     negative rho (up, down):  5.480E-04 0.000E+00

     add environment contribution to local potential

     total cpu time spent up to now is     1058.8 secs

     total energy              =    -721.74935313 Ry
     estimated scf accuracy    <       0.00000277 Ry

     total charge of GC-SCF    =      -2.38625942 e
     the Fermi energy          =      -2.42237286 eV
                        (error :       0.01837286 eV)
     electrostatic embedding   =      -0.93312362 Ry
     cavitation energy         =       0.03820715 Ry
     electrolyte free energy   =      -0.00632139 Ry
     correction to one-el term =      91.95332610 Ry

     iteration # 20     ecut=    80.00 Ry     beta= 0.20
     Davidson diagonalization with overlap

---- Real-time Memory Report at c_bands before calling an iterative solver
          1124 MiB given to the printing process from OS
             0 MiB allocation reported by mallinfo(arena+hblkhd)
        206960 MiB available memory on the node where the printing process lives
------------------
     ethr =  1.89E-09,  avg # of iterations = 14.8

     negative rho (up, down):  5.375E-04 0.000E+00

     add environment contribution to local potential

     total cpu time spent up to now is     1103.8 secs

     total energy              =    -721.74911425 Ry
     estimated scf accuracy    <       0.00000396 Ry

     total charge of GC-SCF    =      -2.43637619 e
     the Fermi energy          =      -2.41962742 eV
                        (error :       0.01562742 eV)
     electrostatic embedding   =      -0.91442340 Ry
     cavitation energy         =       0.03820715 Ry
     electrolyte free energy   =      -0.00616600 Ry
     correction to one-el term =      91.02928903 Ry

     iteration # 21     ecut=    80.00 Ry     beta= 0.20
     Davidson diagonalization with overlap

---- Real-time Memory Report at c_bands before calling an iterative solver
          1124 MiB given to the printing process from OS
             0 MiB allocation reported by mallinfo(arena+hblkhd)
        206974 MiB available memory on the node where the printing process lives
------------------
     ethr =  1.89E-09,  avg # of iterations = 14.8

     negative rho (up, down):  5.294E-04 0.000E+00

     add environment contribution to local potential

     total cpu time spent up to now is     1146.9 secs

     total energy              =    -721.74919889 Ry
     estimated scf accuracy    <       0.00000151 Ry

     total charge of GC-SCF    =      -2.47952291 e
     the Fermi energy          =      -2.41646490 eV
                        (error :       0.01246490 eV)
     electrostatic embedding   =      -0.94715507 Ry
     cavitation energy         =       0.03820715 Ry
     electrolyte free energy   =      -0.00644342 Ry
     correction to one-el term =      92.68269078 Ry

     iteration # 22     ecut=    80.00 Ry     beta= 0.20
     Davidson diagonalization with overlap

---- Real-time Memory Report at c_bands before calling an iterative solver
          1124 MiB given to the printing process from OS
             0 MiB allocation reported by mallinfo(arena+hblkhd)
        206937 MiB available memory on the node where the printing process lives
------------------
     ethr =  1.03E-09,  avg # of iterations = 54.9

     negative rho (up, down):  5.196E-04 0.000E+00

     add environment contribution to local potential

     total cpu time spent up to now is     1234.3 secs

     total energy              =    -721.74979075 Ry
     estimated scf accuracy    <       0.00000064 Ry

     total charge of GC-SCF    =      -2.56408280 e
     the Fermi energy          =      -2.41292480 eV
                        (error :       0.00892480 eV)
     electrostatic embedding   =      -0.97566866 Ry
     cavitation energy         =       0.03820715 Ry
     electrolyte free energy   =      -0.00669094 Ry
     correction to one-el term =      94.10562007 Ry

     iteration # 23     ecut=    80.00 Ry     beta= 0.20
     Davidson diagonalization with overlap

---- Real-time Memory Report at c_bands before calling an iterative solver
          1124 MiB given to the printing process from OS
             0 MiB allocation reported by mallinfo(arena+hblkhd)
        206937 MiB available memory on the node where the printing process lives
------------------
     c_bands:  1 eigenvalues not converged
     ethr =  4.35E-10,  avg # of iterations = 51.0

     negative rho (up, down):  4.946E-04 0.000E+00

     total cpu time spent up to now is     1304.6 secs

     End of self-consistent calculation

          k = 0.0000 0.0000 0.0000 (341261 PWs)   bands (ev):

   -49.7971 -49.7970 -49.7970 -49.7970 -49.7967 -49.7967 -49.7967 -49.7966
   -49.1247 -49.1246 -49.1244 -49.1243 -49.1243 -49.1243 -49.1243 -49.1242
   -48.9528 -48.9527 -48.9527 -48.9527 -48.9525 -48.9525 -48.9525 -48.9524
   -48.9381 -48.9330 -48.9329 -48.9328 -48.9293 -48.9292 -48.9291 -48.9260
   -48.8981 -48.8981 -48.8981 -48.8972 -48.8927 -48.8927 -48.8926 -48.8924
   -48.8432 -48.8431 -48.8431 -48.8431 -48.8430 -48.8429 -48.8423 -48.8422
    -5.8342  -5.4294  -4.7583  -4.2460  -4.2460  -4.2460  -4.2414  -4.2414
    -4.2414  -3.9521  -3.8350  -3.8349  -3.8349  -3.8162  -3.8162  -3.8162
    -3.1540  -3.1540  -3.1540  -3.1005  -3.1005  -3.1004  -3.0509  -2.4217
    -2.4217  -2.4216  -2.2350  -2.2350  -2.2350  -2.0407  -1.9718  -1.9718
    -1.9718  -1.4605  -1.4605  -1.4605  -1.4474  -1.4474  -1.4474  -1.1548
    -0.9290  -0.9290  -0.9290  -0.5007  -0.5007  -0.5007  -0.4124  -0.4124
    -0.4124  -0.3554  -0.1607  -0.0084   0.0134   0.0546   0.0546   0.1635
     0.1635   0.3380   0.3380   0.3380

     occupation numbers 
     1.0000   1.0000   1.0000   1.0000   1.0000   1.0000   1.0000   1.0000
     1.0000   1.0000   1.0000   1.0000   1.0000   1.0000   1.0000   1.0000
     1.0000   1.0000   1.0000   1.0000   1.0000   1.0000   1.0000   1.0000
     1.0000   1.0000   1.0000   1.0000   1.0000   1.0000   1.0000   1.0000
     1.0000   1.0000   1.0000   1.0000   1.0000   1.0000   1.0000   1.0000
     1.0000   1.0000   1.0000   1.0000   1.0000   1.0000   1.0000   1.0000
     1.0000   1.0000   1.0000   1.0000   1.0000   1.0000   1.0000   1.0000
     1.0000   1.0000   1.0000   1.0000   1.0000   1.0000   1.0000   1.0000
     1.0000   1.0000   1.0000   1.0000   1.0000   1.0000   1.0000   0.4889
     0.4889   0.4888   0.0116   0.0116   0.0116   0.0000   0.0000   0.0000
     0.0000   0.0000   0.0000   0.0000   0.0000   0.0000   0.0000   0.0000
     0.0000   0.0000   0.0000   0.0000   0.0000   0.0000   0.0000   0.0000
     0.0000   0.0000   0.0000   0.0000   0.0000   0.0000   0.0000   0.0000
     0.0000   0.0000   0.0000   0.0000

          k = 0.0000 0.1650 0.0000 (341287 PWs)   bands (ev):

   -49.7971 -49.7970 -49.7970 -49.7970 -49.7967 -49.7967 -49.7967 -49.7966
   -49.1247 -49.1246 -49.1244 -49.1243 -49.1243 -49.1243 -49.1243 -49.1242
   -48.9528 -48.9527 -48.9527 -48.9527 -48.9525 -48.9525 -48.9525 -48.9524
   -48.9379 -48.9333 -48.9330 -48.9328 -48.9292 -48.9291 -48.9288 -48.9261
   -48.8981 -48.8981 -48.8981 -48.8972 -48.8927 -48.8927 -48.8926 -48.8924
   -48.8431 -48.8431 -48.8431 -48.8430 -48.8429 -48.8429 -48.8423 -48.8423
    -5.8018  -5.3967  -4.7247  -4.6656  -4.4389  -4.4389  -4.2513  -4.0284
    -4.0284  -3.9791  -3.9791  -3.9171  -3.7570  -3.5674  -3.5674  -3.5570
    -3.3353  -3.3230  -3.3230  -3.0170  -2.8674  -2.8674  -2.7290  -2.6489
    -2.5167  -2.5167  -2.1217  -2.1217  -2.1166  -2.1166  -2.0771  -2.0093
    -1.9292  -1.6181  -1.6181  -1.4633  -1.4633  -1.4600  -1.4050  -1.1278
    -0.8872  -0.8872  -0.8334  -0.7929  -0.7929  -0.5427  -0.4588  -0.4433
    -0.4399  -0.3290  -0.2947  -0.2947  -0.1272  -0.0607   0.0419   0.0607
     0.0691   0.2501   0.2501   0.3506

     occupation numbers 
     1.0000   1.0000   1.0000   1.0000   1.0000   1.0000   1.0000   1.0000
     1.0000   1.0000   1.0000   1.0000   1.0000   1.0000   1.0000   1.0000
     1.0000   1.0000   1.0000   1.0000   1.0000   1.0000   1.0000   1.0000
     1.0000   1.0000   1.0000   1.0000   1.0000   1.0000   1.0000   1.0000
     1.0000   1.0000   1.0000   1.0000   1.0000   1.0000   1.0000   1.0000
     1.0000   1.0000   1.0000   1.0000   1.0000   1.0000   1.0000   1.0000
     1.0000   1.0000   1.0000   1.0000   1.0000   1.0000   1.0000   1.0000
     1.0000   1.0000   1.0000   1.0000   1.0000   1.0000   1.0000   1.0000
     1.0000   1.0000   1.0000   1.0000   1.0002   1.0002   1.0152   1.0603
     0.9587   0.9587   0.0002   0.0002   0.0002   0.0002   0.0000   0.0000
     0.0000   0.0000   0.0000   0.0000   0.0000   0.0000   0.0000   0.0000
     0.0000   0.0000   0.0000   0.0000   0.0000   0.0000   0.0000   0.0000
     0.0000   0.0000   0.0000   0.0000   0.0000   0.0000   0.0000   0.0000
     0.0000   0.0000   0.0000   0.0000

          k = 0.0000 0.3299 0.0000 (341325 PWs)   bands (ev):

   -49.7971 -49.7970 -49.7970 -49.7970 -49.7967 -49.7967 -49.7967 -49.7966
   -49.1246 -49.1246 -49.1244 -49.1243 -49.1243 -49.1243 -49.1243 -49.1242
   -48.9528 -48.9527 -48.9527 -48.9527 -48.9525 -48.9525 -48.9525 -48.9524
   -48.9374 -48.9344 -48.9330 -48.9329 -48.9292 -48.9290 -48.9281 -48.9263
   -48.8981 -48.8981 -48.8979 -48.8973 -48.8927 -48.8926 -48.8926 -48.8924
   -48.8431 -48.8431 -48.8431 -48.8430 -48.8429 -48.8428 -48.8424 -48.8424
    -5.7046  -5.2986  -5.0230  -4.6238  -4.6110  -4.5699  -4.5699  -4.1545
    -4.1545  -3.9212  -3.8123  -3.6678  -3.6678  -3.4578  -3.4578  -3.2430
    -3.2430  -3.2082  -3.0947  -2.9162  -2.7812  -2.6242  -2.6242  -2.5519
    -2.5519  -2.4716  -2.4716  -2.3010  -2.0758  -2.0327  -2.0327  -1.9421
    -1.9421  -1.9194  -1.8015  -1.4356  -1.4356  -1.2788  -1.2779  -1.2441
    -1.2103  -1.2103  -1.0786  -0.9089  -0.8030  -0.8030  -0.7996  -0.7451
    -0.3912  -0.3333  -0.3308  -0.2620  -0.2383  -0.2383  -0.0547  -0.0547
    -0.0077   0.0797   0.1639   0.2703

     occupation numbers 
     1.0000   1.0000   1.0000   1.0000   1.0000   1.0000   1.0000   1.0000
     1.0000   1.0000   1.0000   1.0000   1.0000   1.0000   1.0000   1.0000
     1.0000   1.0000   1.0000   1.0000   1.0000   1.0000   1.0000   1.0000
     1.0000   1.0000   1.0000   1.0000   1.0000   1.0000   1.0000   1.0000
     1.0000   1.0000   1.0000   1.0000   1.0000   1.0000   1.0000   1.0000
     1.0000   1.0000   1.0000   1.0000   1.0000   1.0000   1.0000   1.0000
     1.0000   1.0000   1.0000   1.0000   1.0000   1.0000   1.0000   1.0000
     1.0000   1.0000   1.0000   1.0000   1.0000   1.0000   1.0000   1.0000
     1.0000   1.0000   1.0000   1.0000   1.0039   1.0755   1.0755   1.0484
     1.0484   0.7607   0.7607   0.0648   0.0000   0.0000   0.0000   0.0000
     0.0000   0.0000   0.0000   0.0000   0.0000   0.0000   0.0000   0.0000
     0.0000   0.0000   0.0000   0.0000   0.0000   0.0000   0.0000   0.0000
     0.0000   0.0000   0.0000   0.0000   0.0000   0.0000   0.0000   0.0000
     0.0000   0.0000   0.0000   0.0000

          k = 0.0000 0.4949 0.0000 (341402 PWs)   bands (ev):

   -49.7971 -49.7970 -49.7970 -49.7970 -49.7967 -49.7967 -49.7967 -49.7966
   -49.1246 -49.1245 -49.1245 -49.1244 -49.1243 -49.1243 -49.1243 -49.1242
   -48.9528 -48.9528 -48.9527 -48.9527 -48.9525 -48.9525 -48.9525 -48.9524
   -48.9366 -48.9355 -48.9331 -48.9329 -48.9291 -48.9290 -48.9274 -48.9268
   -48.8981 -48.8981 -48.8977 -48.8975 -48.8927 -48.8926 -48.8926 -48.8925
   -48.8431 -48.8431 -48.8431 -48.8430 -48.8428 -48.8427 -48.8426 -48.8425
    -5.5425  -5.3153  -5.1349  -4.9057  -4.6357  -4.6357  -4.4560  -4.2215
    -4.2202  -4.2202  -3.6384  -3.5234  -3.5234  -3.3971  -3.2971  -3.2971
    -2.8990  -2.8990  -2.8632  -2.8632  -2.7515  -2.6808  -2.6808  -2.6057
    -2.5300  -2.4442  -2.4442  -2.1803  -2.1803  -2.1684  -1.9543  -1.9217
    -1.9217  -1.7708  -1.7291  -1.7154  -1.7154  -1.5887  -1.5205  -1.2910
    -1.2133  -1.1816  -1.1816  -1.0662  -0.9402  -0.8568  -0.8568  -0.7704
    -0.6278  -0.5465  -0.3007  -0.3007  -0.2159  -0.1661  -0.1661  -0.1246
    -0.0367   0.1664   0.2270   0.3552

     occupation numbers 
     1.0000   1.0000   1.0000   1.0000   1.0000   1.0000   1.0000   1.0000
     1.0000   1.0000   1.0000   1.0000   1.0000   1.0000   1.0000   1.0000
     1.0000   1.0000   1.0000   1.0000   1.0000   1.0000   1.0000   1.0000
     1.0000   1.0000   1.0000   1.0000   1.0000   1.0000   1.0000   1.0000
     1.0000   1.0000   1.0000   1.0000   1.0000   1.0000   1.0000   1.0000
     1.0000   1.0000   1.0000   1.0000   1.0000   1.0000   1.0000   1.0000
     1.0000   1.0000   1.0000   1.0000   1.0000   1.0000   1.0000   1.0000
     1.0000   1.0000   1.0000   1.0000   1.0000   1.0000   1.0000   1.0000
     1.0001   1.0001   1.0002   1.0002   1.0088   1.0387   1.0387   1.0824
     0.9997   0.6127   0.6127   0.0020   0.0020   0.0013   0.0000   0.0000
     0.0000   0.0000   0.0000   0.0000   0.0000   0.0000   0.0000   0.0000
     0.0000   0.0000   0.0000   0.0000   0.0000   0.0000   0.0000   0.0000
     0.0000   0.0000   0.0000   0.0000   0.0000   0.0000   0.0000   0.0000
     0.0000   0.0000   0.0000   0.0000

          k = 0.1429 0.2474 0.0000 (341214 PWs)   bands (ev):

   -49.7971 -49.7970 -49.7970 -49.7970 -49.7967 -49.7967 -49.7967 -49.7966
   -49.1247 -49.1246 -49.1244 -49.1244 -49.1243 -49.1243 -49.1243 -49.1242
   -48.9528 -48.9527 -48.9527 -48.9527 -48.9525 -48.9525 -48.9525 -48.9524
   -48.9376 -48.9337 -48.9337 -48.9325 -48.9295 -48.9286 -48.9285 -48.9262
   -48.8982 -48.8980 -48.8980 -48.8973 -48.8927 -48.8926 -48.8926 -48.8924
   -48.8431 -48.8431 -48.8431 -48.8430 -48.8429 -48.8429 -48.8424 -48.8424
    -5.7370  -5.3313  -4.8283  -4.8283  -4.6574  -4.4149  -4.4149  -4.1524
    -4.1482  -3.8472  -3.7398  -3.7223  -3.7223  -3.7210  -3.4679  -3.4678
    -3.0547  -3.0534  -3.0534  -3.0018  -2.9496  -2.8809  -2.8809  -2.5106
    -2.3834  -2.3834  -2.3071  -2.1539  -2.0916  -2.0916  -2.0388  -2.0388
    -2.0223  -1.9483  -1.5379  -1.5379  -1.4253  -1.3490  -1.3490  -1.2486
    -1.0846  -0.9445  -0.9388  -0.9307  -0.8625  -0.8625  -0.6402  -0.6402
    -0.4707  -0.4329  -0.2748  -0.2747  -0.2577  -0.1765  -0.0723  -0.0331
     0.1039   0.1271   0.2335   0.2335

     occupation numbers 
     1.0000   1.0000   1.0000   1.0000   1.0000   1.0000   1.0000   1.0000
     1.0000   1.0000   1.0000   1.0000   1.0000   1.0000   1.0000   1.0000
     1.0000   1.0000   1.0000   1.0000   1.0000   1.0000   1.0000   1.0000
     1.0000   1.0000   1.0000   1.0000   1.0000   1.0000   1.0000   1.0000
     1.0000   1.0000   1.0000   1.0000   1.0000   1.0000   1.0000   1.0000
     1.0000   1.0000   1.0000   1.0000   1.0000   1.0000   1.0000   1.0000
     1.0000   1.0000   1.0000   1.0000   1.0000   1.0000   1.0000   1.0000
     1.0000   1.0000   1.0000   1.0000   1.0000   1.0000   1.0000   1.0000
     1.0000   1.0000   1.0000   1.0000   1.0000   1.0001   1.0001   0.9368
     0.3000   0.2999   0.0743   0.0007   0.0001   0.0001   0.0000   0.0000
     0.0000   0.0000   0.0000   0.0000   0.0000   0.0000   0.0000   0.0000
     0.0000   0.0000   0.0000   0.0000   0.0000   0.0000   0.0000   0.0000
     0.0000   0.0000   0.0000   0.0000   0.0000   0.0000   0.0000   0.0000
     0.0000   0.0000   0.0000   0.0000

          k = 0.1429 0.4124 0.0000 (341352 PWs)   bands (ev):

   -49.7971 -49.7970 -49.7970 -49.7970 -49.7967 -49.7967 -49.7967 -49.7966
   -49.1246 -49.1245 -49.1245 -49.1244 -49.1244 -49.1243 -49.1243 -49.1242
   -48.9528 -48.9527 -48.9527 -48.9527 -48.9525 -48.9525 -48.9525 -48.9524
   -48.9369 -48.9348 -48.9340 -48.9321 -48.9297 -48.9284 -48.9278 -48.9266
   -48.8982 -48.8980 -48.8978 -48.8974 -48.8927 -48.8926 -48.8926 -48.8925
   -48.8431 -48.8431 -48.8430 -48.8429 -48.8428 -48.8428 -48.8425 -48.8425
    -5.6074  -5.2004  -5.1531  -4.9263  -4.7421  -4.5231  -4.5133  -4.2494
    -4.0544  -3.8380  -3.8211  -3.7942  -3.7078  -3.3807  -3.2265  -3.1274
    -3.1254  -2.9911  -2.9598  -2.8938  -2.8165  -2.6961  -2.6733  -2.5151
    -2.4808  -2.3633  -2.3604  -2.2995  -2.1987  -2.0057  -1.9029  -1.8842
    -1.8758  -1.8413  -1.8403  -1.7919  -1.5909  -1.3825  -1.3395  -1.3202
    -1.3174  -1.2555  -1.2010  -1.0511  -1.0000  -0.9475  -0.7808  -0.6891
    -0.6813  -0.4827  -0.3404  -0.2741  -0.2152  -0.1721  -0.1557  -0.0786
    -0.0309   0.1306   0.1614   0.3236

     occupation numbers 
     1.0000   1.0000   1.0000   1.0000   1.0000   1.0000   1.0000   1.0000
     1.0000   1.0000   1.0000   1.0000   1.0000   1.0000   1.0000   1.0000
     1.0000   1.0000   1.0000   1.0000   1.0000   1.0000   1.0000   1.0000
     1.0000   1.0000   1.0000   1.0000   1.0000   1.0000   1.0000   1.0000
     1.0000   1.0000   1.0000   1.0000   1.0000   1.0000   1.0000   1.0000
     1.0000   1.0000   1.0000   1.0000   1.0000   1.0000   1.0000   1.0000
     1.0000   1.0000   1.0000   1.0000   1.0000   1.0000   1.0000   1.0000
     1.0000   1.0000   1.0000   1.0000   1.0000   1.0000   1.0000   1.0000
     1.0000   1.0000   1.0000   1.0001   1.0013   1.0297   1.0436   0.9531
     0.8074   0.2193   0.2093   0.0627   0.0037   0.0000   0.0000   0.0000
     0.0000   0.0000   0.0000   0.0000   0.0000   0.0000   0.0000   0.0000
     0.0000   0.0000   0.0000   0.0000   0.0000   0.0000   0.0000   0.0000
     0.0000   0.0000   0.0000   0.0000   0.0000   0.0000   0.0000   0.0000
     0.0000   0.0000   0.0000   0.0000

          k = 0.1429 0.5774 0.0000 (341402 PWs)   bands (ev):

   -49.7971 -49.7970 -49.7970 -49.7970 -49.7967 -49.7967 -49.7967 -49.7966
   -49.1246 -49.1245 -49.1245 -49.1244 -49.1244 -49.1243 -49.1243 -49.1242
   -48.9528 -48.9528 -48.9527 -48.9527 -48.9525 -48.9525 -48.9525 -48.9524
   -48.9360 -48.9359 -48.9341 -48.9320 -48.9298 -48.9283 -48.9272 -48.9271
   -48.8982 -48.8980 -48.8977 -48.8976 -48.8927 -48.8926 -48.8926 -48.8925
   -48.8432 -48.8431 -48.8430 -48.8429 -48.8427 -48.8427 -48.8426 -48.8425
    -5.4128  -5.4127  -5.0040  -5.0040  -4.9590  -4.5462  -4.3219  -4.3219
    -4.2826  -3.8643  -3.8542  -3.5000  -3.5000  -3.4027  -3.4006  -3.1640
    -3.0213  -2.9711  -2.9621  -2.7490  -2.7473  -2.6234  -2.6234  -2.3372
    -2.3186  -2.2925  -2.2852  -2.2670  -2.2670  -2.2217  -2.1745  -1.8349
    -1.8349  -1.7388  -1.7233  -1.7102  -1.7102  -1.6245  -1.6245  -1.5294
    -1.3486  -1.1739  -1.1656  -1.1656  -1.0198  -1.0198  -1.0164  -0.6226
    -0.6226  -0.5683  -0.2777  -0.2496  -0.2495  -0.2337  -0.2304  -0.1057
     0.0170   0.0170   0.3646   0.3646

     occupation numbers 
     1.0000   1.0000   1.0000   1.0000   1.0000   1.0000   1.0000   1.0000
     1.0000   1.0000   1.0000   1.0000   1.0000   1.0000   1.0000   1.0000
     1.0000   1.0000   1.0000   1.0000   1.0000   1.0000   1.0000   1.0000
     1.0000   1.0000   1.0000   1.0000   1.0000   1.0000   1.0000   1.0000
     1.0000   1.0000   1.0000   1.0000   1.0000   1.0000   1.0000   1.0000
     1.0000   1.0000   1.0000   1.0000   1.0000   1.0000   1.0000   1.0000
     1.0000   1.0000   1.0000   1.0000   1.0000   1.0000   1.0000   1.0000
     1.0000   1.0000   1.0000   1.0000   1.0000   1.0000   1.0000   1.0000
     1.0000   1.0000   1.0000   1.0094   1.0098   1.0759   1.0759   0.1380
     0.0952   0.0532   0.0448   0.0283   0.0282   0.0078   0.0016   0.0000
     0.0000   0.0000   0.0000   0.0000   0.0000   0.0000   0.0000   0.0000
     0.0000   0.0000   0.0000   0.0000   0.0000   0.0000   0.0000   0.0000
     0.0000   0.0000   0.0000   0.0000   0.0000   0.0000   0.0000   0.0000
     0.0000   0.0000   0.0000   0.0000

          k = 0.2857 0.4949 0.0000 (341466 PWs)   bands (ev):

   -49.7971 -49.7970 -49.7970 -49.7970 -49.7967 -49.7967 -49.7967 -49.7966
   -49.1246 -49.1245 -49.1245 -49.1244 -49.1244 -49.1244 -49.1243 -49.1242
   -48.9528 -48.9528 -48.9527 -48.9527 -48.9525 -48.9525 -48.9525 -48.9524
   -48.9361 -48.9351 -48.9351 -48.9314 -48.9304 -48.9276 -48.9276 -48.9270
   -48.8983 -48.8978 -48.8978 -48.8976 -48.8927 -48.8926 -48.8926 -48.8925
   -48.8432 -48.8431 -48.8429 -48.8428 -48.8428 -48.8428 -48.8426 -48.8426
    -5.4452  -5.2182  -5.2182  -5.0368  -4.8077  -4.8077  -4.3554  -4.1211
    -4.1211  -3.8715  -3.8684  -3.5344  -3.4711  -3.4360  -3.4189  -3.2934
    -3.2934  -3.0083  -2.7522  -2.7076  -2.6537  -2.5402  -2.5401  -2.4362
    -2.4361  -2.2788  -2.1774  -2.1774  -2.0923  -2.0923  -1.9804  -1.9280
    -1.9192  -1.8585  -1.7202  -1.7202  -1.6925  -1.6480  -1.6479  -1.4925
    -1.4535  -1.4451  -1.2596  -1.1978  -1.1978  -0.8953  -0.8294  -0.8294
    -0.5852  -0.4689  -0.4689  -0.4150  -0.2860  -0.1757  -0.1009  -0.1009
     0.1003   0.1965   0.1966   0.3568

     occupation numbers 
     1.0000   1.0000   1.0000   1.0000   1.0000   1.0000   1.0000   1.0000
     1.0000   1.0000   1.0000   1.0000   1.0000   1.0000   1.0000   1.0000
     1.0000   1.0000   1.0000   1.0000   1.0000   1.0000   1.0000   1.0000
     1.0000   1.0000   1.0000   1.0000   1.0000   1.0000   1.0000   1.0000
     1.0000   1.0000   1.0000   1.0000   1.0000   1.0000   1.0000   1.0000
     1.0000   1.0000   1.0000   1.0000   1.0000   1.0000   1.0000   1.0000
     1.0000   1.0000   1.0000   1.0000   1.0000   1.0000   1.0000   1.0000
     1.0000   1.0000   1.0000   1.0000   1.0000   1.0000   1.0000   1.0000
     1.0000   1.0000   1.0087   1.0239   1.0570   1.0253   1.0252   0.5681
     0.5681   0.0382   0.0018   0.0018   0.0001   0.0001   0.0000   0.0000
     0.0000   0.0000   0.0000   0.0000   0.0000   0.0000   0.0000   0.0000
     0.0000   0.0000   0.0000   0.0000   0.0000   0.0000   0.0000   0.0000
     0.0000   0.0000   0.0000   0.0000   0.0000   0.0000   0.0000   0.0000
     0.0000   0.0000   0.0000   0.0000

          k =-0.1429 0.0825 0.0000 (341287 PWs)   bands (ev):

   -49.7971 -49.7970 -49.7970 -49.7970 -49.7967 -49.7967 -49.7967 -49.7966
   -49.1247 -49.1246 -49.1244 -49.1244 -49.1243 -49.1243 -49.1243 -49.1242
   -48.9528 -48.9527 -48.9527 -48.9527 -48.9525 -48.9525 -48.9525 -48.9524
   -48.9379 -48.9334 -48.9329 -48.9329 -48.9292 -48.9292 -48.9288 -48.9261
   -48.8981 -48.8981 -48.8981 -48.8972 -48.8927 -48.8927 -48.8926 -48.8924
   -48.8431 -48.8431 -48.8431 -48.8430 -48.8429 -48.8429 -48.8423 -48.8423
    -5.8018  -5.3967  -4.7247  -4.6656  -4.4389  -4.4389  -4.2513  -4.0284
    -4.0284  -3.9791  -3.9791  -3.9171  -3.7570  -3.5674  -3.5674  -3.5570
    -3.3353  -3.3230  -3.3230  -3.0170  -2.8674  -2.8674  -2.7290  -2.6489
    -2.5167  -2.5167  -2.1217  -2.1217  -2.1166  -2.1166  -2.0771  -2.0093
    -1.9292  -1.6181  -1.6181  -1.4633  -1.4633  -1.4600  -1.4050  -1.1278
    -0.8872  -0.8872  -0.8334  -0.7929  -0.7929  -0.5427  -0.4588  -0.4433
    -0.4398  -0.3290  -0.2948  -0.2947  -0.1272  -0.0607   0.0419   0.0607
     0.0691   0.2501   0.2501   0.3506

     occupation numbers 
     1.0000   1.0000   1.0000   1.0000   1.0000   1.0000   1.0000   1.0000
     1.0000   1.0000   1.0000   1.0000   1.0000   1.0000   1.0000   1.0000
     1.0000   1.0000   1.0000   1.0000   1.0000   1.0000   1.0000   1.0000
     1.0000   1.0000   1.0000   1.0000   1.0000   1.0000   1.0000   1.0000
     1.0000   1.0000   1.0000   1.0000   1.0000   1.0000   1.0000   1.0000
     1.0000   1.0000   1.0000   1.0000   1.0000   1.0000   1.0000   1.0000
     1.0000   1.0000   1.0000   1.0000   1.0000   1.0000   1.0000   1.0000
     1.0000   1.0000   1.0000   1.0000   1.0000   1.0000   1.0000   1.0000
     1.0000   1.0000   1.0000   1.0000   1.0002   1.0002   1.0152   1.0603
     0.9587   0.9586   0.0002   0.0002   0.0002   0.0002   0.0000   0.0000
     0.0000   0.0000   0.0000   0.0000   0.0000   0.0000   0.0000   0.0000
     0.0000   0.0000   0.0000   0.0000   0.0000   0.0000   0.0000   0.0000
     0.0000   0.0000   0.0000   0.0000   0.0000   0.0000   0.0000   0.0000
     0.0000   0.0000   0.0000   0.0000

          k =-0.2857 0.1650 0.0000 (341325 PWs)   bands (ev):

   -49.7971 -49.7970 -49.7970 -49.7970 -49.7967 -49.7967 -49.7967 -49.7966
   -49.1246 -49.1246 -49.1244 -49.1244 -49.1244 -49.1243 -49.1243 -49.1243
   -48.9528 -48.9527 -48.9527 -48.9527 -48.9525 -48.9525 -48.9525 -48.9524
   -48.9374 -48.9344 -48.9330 -48.9329 -48.9291 -48.9291 -48.9281 -48.9263
   -48.8981 -48.8981 -48.8979 -48.8973 -48.8927 -48.8927 -48.8926 -48.8924
   -48.8431 -48.8431 -48.8430 -48.8430 -48.8429 -48.8428 -48.8424 -48.8424
    -5.7046  -5.2986  -5.0230  -4.6238  -4.6110  -4.5699  -4.5699  -4.1545
    -4.1545  -3.9212  -3.8123  -3.6678  -3.6678  -3.4578  -3.4578  -3.2430
    -3.2430  -3.2082  -3.0947  -2.9162  -2.7812  -2.6242  -2.6242  -2.5519
    -2.5518  -2.4716  -2.4716  -2.3010  -2.0758  -2.0327  -2.0327  -1.9421
    -1.9421  -1.9194  -1.8015  -1.4356  -1.4356  -1.2787  -1.2779  -1.2441
    -1.2103  -1.2103  -1.0786  -0.9089  -0.8030  -0.8030  -0.7996  -0.7451
    -0.3912  -0.3333  -0.3308  -0.2620  -0.2383  -0.2383  -0.0547  -0.0547
    -0.0077   0.0797   0.1639   0.2703

     occupation numbers 
     1.0000   1.0000   1.0000   1.0000   1.0000   1.0000   1.0000   1.0000
     1.0000   1.0000   1.0000   1.0000   1.0000   1.0000   1.0000   1.0000
     1.0000   1.0000   1.0000   1.0000   1.0000   1.0000   1.0000   1.0000
     1.0000   1.0000   1.0000   1.0000   1.0000   1.0000   1.0000   1.0000
     1.0000   1.0000   1.0000   1.0000   1.0000   1.0000   1.0000   1.0000
     1.0000   1.0000   1.0000   1.0000   1.0000   1.0000   1.0000   1.0000
     1.0000   1.0000   1.0000   1.0000   1.0000   1.0000   1.0000   1.0000
     1.0000   1.0000   1.0000   1.0000   1.0000   1.0000   1.0000   1.0000
     1.0000   1.0000   1.0000   1.0000   1.0039   1.0755   1.0755   1.0484
     1.0484   0.7607   0.7607   0.0649   0.0000   0.0000   0.0000   0.0000
     0.0000   0.0000   0.0000   0.0000   0.0000   0.0000   0.0000   0.0000
     0.0000   0.0000   0.0000   0.0000   0.0000   0.0000   0.0000   0.0000
     0.0000   0.0000   0.0000   0.0000   0.0000   0.0000   0.0000   0.0000
     0.0000   0.0000   0.0000   0.0000

          k =-0.4286 0.2474 0.0000 (341402 PWs)   bands (ev):

   -49.7971 -49.7970 -49.7970 -49.7970 -49.7967 -49.7967 -49.7967 -49.7966
   -49.1246 -49.1245 -49.1245 -49.1244 -49.1244 -49.1243 -49.1243 -49.1243
   -48.9528 -48.9527 -48.9527 -48.9527 -48.9525 -48.9525 -48.9525 -48.9524
   -48.9366 -48.9355 -48.9330 -48.9330 -48.9291 -48.9291 -48.9274 -48.9268
   -48.8981 -48.8981 -48.8977 -48.8975 -48.8927 -48.8927 -48.8926 -48.8925
   -48.8431 -48.8431 -48.8430 -48.8430 -48.8428 -48.8427 -48.8425 -48.8425
    -5.5425  -5.3153  -5.1349  -4.9057  -4.6357  -4.6357  -4.4560  -4.2215
    -4.2202  -4.2202  -3.6384  -3.5234  -3.5234  -3.3971  -3.2971  -3.2971
    -2.8990  -2.8990  -2.8632  -2.8632  -2.7515  -2.6808  -2.6808  -2.6057
    -2.5300  -2.4442  -2.4442  -2.1803  -2.1803  -2.1684  -1.9543  -1.9217
    -1.9217  -1.7708  -1.7291  -1.7154  -1.7154  -1.5887  -1.5205  -1.2910
    -1.2133  -1.1816  -1.1816  -1.0662  -0.9402  -0.8568  -0.8568  -0.7704
    -0.6278  -0.5465  -0.3007  -0.3007  -0.2159  -0.1661  -0.1661  -0.1246
    -0.0367   0.1664   0.2270   0.3552

     occupation numbers 
     1.0000   1.0000   1.0000   1.0000   1.0000   1.0000   1.0000   1.0000
     1.0000   1.0000   1.0000   1.0000   1.0000   1.0000   1.0000   1.0000
     1.0000   1.0000   1.0000   1.0000   1.0000   1.0000   1.0000   1.0000
     1.0000   1.0000   1.0000   1.0000   1.0000   1.0000   1.0000   1.0000
     1.0000   1.0000   1.0000   1.0000   1.0000   1.0000   1.0000   1.0000
     1.0000   1.0000   1.0000   1.0000   1.0000   1.0000   1.0000   1.0000
     1.0000   1.0000   1.0000   1.0000   1.0000   1.0000   1.0000   1.0000
     1.0000   1.0000   1.0000   1.0000   1.0000   1.0000   1.0000   1.0000
     1.0001   1.0001   1.0002   1.0002   1.0088   1.0387   1.0387   1.0824
     0.9997   0.6127   0.6127   0.0020   0.0020   0.0013   0.0000   0.0000
     0.0000   0.0000   0.0000   0.0000   0.0000   0.0000   0.0000   0.0000
     0.0000   0.0000   0.0000   0.0000   0.0000   0.0000   0.0000   0.0000
     0.0000   0.0000   0.0000   0.0000   0.0000   0.0000   0.0000   0.0000
     0.0000   0.0000   0.0000   0.0000

          k = 0.2857-0.0000 0.0000 (341214 PWs)   bands (ev):

   -49.7971 -49.7970 -49.7970 -49.7970 -49.7967 -49.7967 -49.7967 -49.7966
   -49.1247 -49.1246 -49.1244 -49.1244 -49.1244 -49.1243 -49.1243 -49.1243
   -48.9528 -48.9527 -48.9527 -48.9527 -48.9525 -48.9525 -48.9525 -48.9524
   -48.9376 -48.9338 -48.9336 -48.9325 -48.9295 -48.9286 -48.9285 -48.9262
   -48.8982 -48.8980 -48.8980 -48.8973 -48.8927 -48.8927 -48.8926 -48.8924
   -48.8432 -48.8431 -48.8430 -48.8430 -48.8429 -48.8429 -48.8424 -48.8424
    -5.7370  -5.3313  -4.8283  -4.8283  -4.6574  -4.4149  -4.4149  -4.1524
    -4.1482  -3.8472  -3.7398  -3.7223  -3.7223  -3.7210  -3.4679  -3.4678
    -3.0547  -3.0534  -3.0534  -3.0018  -2.9496  -2.8809  -2.8809  -2.5106
    -2.3834  -2.3834  -2.3071  -2.1539  -2.0916  -2.0916  -2.0388  -2.0388
    -2.0223  -1.9483  -1.5380  -1.5379  -1.4253  -1.3490  -1.3490  -1.2486
    -1.0846  -0.9445  -0.9388  -0.9307  -0.8625  -0.8625  -0.6402  -0.6402
    -0.4707  -0.4329  -0.2748  -0.2747  -0.2577  -0.1766  -0.0723  -0.0331
     0.1039   0.1271   0.2335   0.2335

     occupation numbers 
     1.0000   1.0000   1.0000   1.0000   1.0000   1.0000   1.0000   1.0000
     1.0000   1.0000   1.0000   1.0000   1.0000   1.0000   1.0000   1.0000
     1.0000   1.0000   1.0000   1.0000   1.0000   1.0000   1.0000   1.0000
     1.0000   1.0000   1.0000   1.0000   1.0000   1.0000   1.0000   1.0000
     1.0000   1.0000   1.0000   1.0000   1.0000   1.0000   1.0000   1.0000
     1.0000   1.0000   1.0000   1.0000   1.0000   1.0000   1.0000   1.0000
     1.0000   1.0000   1.0000   1.0000   1.0000   1.0000   1.0000   1.0000
     1.0000   1.0000   1.0000   1.0000   1.0000   1.0000   1.0000   1.0000
     1.0000   1.0000   1.0000   1.0000   1.0000   1.0001   1.0001   0.9368
     0.3000   0.3000   0.0742   0.0007   0.0001   0.0001   0.0000   0.0000
     0.0000   0.0000   0.0000   0.0000   0.0000   0.0000   0.0000   0.0000
     0.0000   0.0000   0.0000   0.0000   0.0000   0.0000   0.0000   0.0000
     0.0000   0.0000   0.0000   0.0000   0.0000   0.0000   0.0000   0.0000
     0.0000   0.0000   0.0000   0.0000

          k =-0.2857 0.3299 0.0000 (341352 PWs)   bands (ev):

   -49.7971 -49.7970 -49.7970 -49.7970 -49.7967 -49.7967 -49.7967 -49.7966
   -49.1246 -49.1245 -49.1245 -49.1244 -49.1244 -49.1243 -49.1243 -49.1242
   -48.9528 -48.9527 -48.9527 -48.9527 -48.9525 -48.9525 -48.9525 -48.9524
   -48.9369 -48.9348 -48.9340 -48.9321 -48.9297 -48.9284 -48.9278 -48.9266
   -48.8982 -48.8980 -48.8978 -48.8974 -48.8927 -48.8926 -48.8926 -48.8925
   -48.8432 -48.8431 -48.8430 -48.8429 -48.8428 -48.8428 -48.8425 -48.8425
    -5.6074  -5.2004  -5.1531  -4.9263  -4.7421  -4.5231  -4.5133  -4.2494
    -4.0544  -3.8380  -3.8211  -3.7942  -3.7078  -3.3807  -3.2265  -3.1274
    -3.1254  -2.9911  -2.9598  -2.8938  -2.8165  -2.6961  -2.6733  -2.5151
    -2.4808  -2.3633  -2.3604  -2.2995  -2.1986  -2.0057  -1.9029  -1.8842
    -1.8758  -1.8413  -1.8403  -1.7919  -1.5909  -1.3825  -1.3395  -1.3202
    -1.3174  -1.2555  -1.2010  -1.0511  -1.0000  -0.9475  -0.7808  -0.6891
    -0.6813  -0.4827  -0.3404  -0.2741  -0.2152  -0.1721  -0.1557  -0.0786
    -0.0310   0.1306   0.1614   0.3236

     occupation numbers 
     1.0000   1.0000   1.0000   1.0000   1.0000   1.0000   1.0000   1.0000
     1.0000   1.0000   1.0000   1.0000   1.0000   1.0000   1.0000   1.0000
     1.0000   1.0000   1.0000   1.0000   1.0000   1.0000   1.0000   1.0000
     1.0000   1.0000   1.0000   1.0000   1.0000   1.0000   1.0000   1.0000
     1.0000   1.0000   1.0000   1.0000   1.0000   1.0000   1.0000   1.0000
     1.0000   1.0000   1.0000   1.0000   1.0000   1.0000   1.0000   1.0000
     1.0000   1.0000   1.0000   1.0000   1.0000   1.0000   1.0000   1.0000
     1.0000   1.0000   1.0000   1.0000   1.0000   1.0000   1.0000   1.0000
     1.0000   1.0000   1.0000   1.0001   1.0013   1.0297   1.0436   0.9531
     0.8074   0.2194   0.2093   0.0627   0.0037   0.0000   0.0000   0.0000
     0.0000   0.0000   0.0000   0.0000   0.0000   0.0000   0.0000   0.0000
     0.0000   0.0000   0.0000   0.0000   0.0000   0.0000   0.0000   0.0000
     0.0000   0.0000   0.0000   0.0000   0.0000   0.0000   0.0000   0.0000
     0.0000   0.0000   0.0000   0.0000

          k = 0.4286 0.0825 0.0000 (341352 PWs)   bands (ev):

   -49.7971 -49.7970 -49.7970 -49.7970 -49.7967 -49.7967 -49.7967 -49.7966
   -49.1246 -49.1245 -49.1244 -49.1244 -49.1244 -49.1243 -49.1243 -49.1242
   -48.9528 -48.9527 -48.9527 -48.9527 -48.9525 -48.9525 -48.9525 -48.9524
   -48.9369 -48.9348 -48.9340 -48.9321 -48.9297 -48.9284 -48.9278 -48.9266
   -48.8982 -48.8980 -48.8978 -48.8974 -48.8927 -48.8926 -48.8926 -48.8925
   -48.8432 -48.8431 -48.8430 -48.8429 -48.8429 -48.8428 -48.8425 -48.8425
    -5.6074  -5.2004  -5.1531  -4.9263  -4.7421  -4.5231  -4.5133  -4.2494
    -4.0544  -3.8380  -3.8211  -3.7942  -3.7078  -3.3807  -3.2265  -3.1274
    -3.1254  -2.9911  -2.9598  -2.8938  -2.8165  -2.6961  -2.6733  -2.5151
    -2.4808  -2.3633  -2.3604  -2.2995  -2.1987  -2.0057  -1.9029  -1.8842
    -1.8758  -1.8413  -1.8403  -1.7919  -1.5909  -1.3825  -1.3396  -1.3202
    -1.3174  -1.2555  -1.2010  -1.0511  -1.0000  -0.9475  -0.7808  -0.6891
    -0.6813  -0.4827  -0.3404  -0.2741  -0.2152  -0.1721  -0.1557  -0.0786
    -0.0310   0.1306   0.1614   0.3236

     occupation numbers 
     1.0000   1.0000   1.0000   1.0000   1.0000   1.0000   1.0000   1.0000
     1.0000   1.0000   1.0000   1.0000   1.0000   1.0000   1.0000   1.0000
     1.0000   1.0000   1.0000   1.0000   1.0000   1.0000   1.0000   1.0000
     1.0000   1.0000   1.0000   1.0000   1.0000   1.0000   1.0000   1.0000
     1.0000   1.0000   1.0000   1.0000   1.0000   1.0000   1.0000   1.0000
     1.0000   1.0000   1.0000   1.0000   1.0000   1.0000   1.0000   1.0000
     1.0000   1.0000   1.0000   1.0000   1.0000   1.0000   1.0000   1.0000
     1.0000   1.0000   1.0000   1.0000   1.0000   1.0000   1.0000   1.0000
     1.0000   1.0000   1.0000   1.0001   1.0013   1.0297   1.0436   0.9531
     0.8074   0.2194   0.2093   0.0627   0.0037   0.0000   0.0000   0.0000
     0.0000   0.0000   0.0000   0.0000   0.0000   0.0000   0.0000   0.0000
     0.0000   0.0000   0.0000   0.0000   0.0000   0.0000   0.0000   0.0000
     0.0000   0.0000   0.0000   0.0000   0.0000   0.0000   0.0000   0.0000
     0.0000   0.0000   0.0000   0.0000

          k =-0.4286 0.4124 0.0000 (341402 PWs)   bands (ev):

   -49.7971 -49.7970 -49.7970 -49.7970 -49.7967 -49.7967 -49.7967 -49.7966
   -49.1246 -49.1245 -49.1245 -49.1244 -49.1244 -49.1243 -49.1243 -49.1242
   -48.9528 -48.9528 -48.9527 -48.9527 -48.9525 -48.9525 -48.9525 -48.9524
   -48.9360 -48.9359 -48.9340 -48.9320 -48.9298 -48.9283 -48.9271 -48.9271
   -48.8982 -48.8980 -48.8976 -48.8976 -48.8927 -48.8926 -48.8925 -48.8925
   -48.8432 -48.8431 -48.8430 -48.8429 -48.8428 -48.8427 -48.8426 -48.8426
    -5.4128  -5.4127  -5.0040  -5.0040  -4.9590  -4.5462  -4.3219  -4.3219
    -4.2826  -3.8643  -3.8542  -3.5000  -3.5000  -3.4027  -3.4006  -3.1640
    -3.0213  -2.9711  -2.9621  -2.7490  -2.7473  -2.6234  -2.6234  -2.3372
    -2.3186  -2.2925  -2.2852  -2.2670  -2.2670  -2.2217  -2.1745  -1.8349
    -1.8349  -1.7387  -1.7233  -1.7102  -1.7102  -1.6245  -1.6245  -1.5294
    -1.3486  -1.1739  -1.1656  -1.1656  -1.0198  -1.0197  -1.0164  -0.6226
    -0.6226  -0.5684  -0.2777  -0.2496  -0.2496  -0.2337  -0.2304  -0.1057
     0.0170   0.0171   0.3646   0.3646

     occupation numbers 
     1.0000   1.0000   1.0000   1.0000   1.0000   1.0000   1.0000   1.0000
     1.0000   1.0000   1.0000   1.0000   1.0000   1.0000   1.0000   1.0000
     1.0000   1.0000   1.0000   1.0000   1.0000   1.0000   1.0000   1.0000
     1.0000   1.0000   1.0000   1.0000   1.0000   1.0000   1.0000   1.0000
     1.0000   1.0000   1.0000   1.0000   1.0000   1.0000   1.0000   1.0000
     1.0000   1.0000   1.0000   1.0000   1.0000   1.0000   1.0000   1.0000
     1.0000   1.0000   1.0000   1.0000   1.0000   1.0000   1.0000   1.0000
     1.0000   1.0000   1.0000   1.0000   1.0000   1.0000   1.0000   1.0000
     1.0000   1.0000   1.0000   1.0094   1.0098   1.0759   1.0759   0.1380
     0.0952   0.0532   0.0448   0.0283   0.0283   0.0078   0.0016   0.0000
     0.0000   0.0000   0.0000   0.0000   0.0000   0.0000   0.0000   0.0000
     0.0000   0.0000   0.0000   0.0000   0.0000   0.0000   0.0000   0.0000
     0.0000   0.0000   0.0000   0.0000   0.0000   0.0000   0.0000   0.0000
     0.0000   0.0000   0.0000   0.0000

          k = 0.5714-0.0000 0.0000 (341466 PWs)   bands (ev):

   -49.7971 -49.7970 -49.7970 -49.7970 -49.7967 -49.7967 -49.7967 -49.7966
   -49.1246 -49.1245 -49.1244 -49.1244 -49.1244 -49.1243 -49.1243 -49.1242
   -48.9528 -48.9528 -48.9527 -48.9527 -48.9525 -48.9525 -48.9525 -48.9524
   -48.9361 -48.9351 -48.9350 -48.9314 -48.9304 -48.9277 -48.9276 -48.9270
   -48.8983 -48.8978 -48.8978 -48.8976 -48.8927 -48.8926 -48.8926 -48.8925
   -48.8432 -48.8431 -48.8429 -48.8429 -48.8428 -48.8428 -48.8426 -48.8426
    -5.4452  -5.2182  -5.2182  -5.0368  -4.8077  -4.8077  -4.3554  -4.1211
    -4.1211  -3.8715  -3.8684  -3.5344  -3.4711  -3.4360  -3.4189  -3.2934
    -3.2934  -3.0083  -2.7523  -2.7076  -2.6537  -2.5402  -2.5401  -2.4362
    -2.4361  -2.2788  -2.1774  -2.1774  -2.0923  -2.0923  -1.9804  -1.9280
    -1.9192  -1.8585  -1.7202  -1.7202  -1.6925  -1.6479  -1.6479  -1.4925
    -1.4535  -1.4451  -1.2596  -1.1978  -1.1978  -0.8953  -0.8294  -0.8294
    -0.5852  -0.4689  -0.4689  -0.4150  -0.2860  -0.1757  -0.1009  -0.1009
     0.1003   0.1965   0.1965   0.3568

     occupation numbers 
     1.0000   1.0000   1.0000   1.0000   1.0000   1.0000   1.0000   1.0000
     1.0000   1.0000   1.0000   1.0000   1.0000   1.0000   1.0000   1.0000
     1.0000   1.0000   1.0000   1.0000   1.0000   1.0000   1.0000   1.0000
     1.0000   1.0000   1.0000   1.0000   1.0000   1.0000   1.0000   1.0000
     1.0000   1.0000   1.0000   1.0000   1.0000   1.0000   1.0000   1.0000
     1.0000   1.0000   1.0000   1.0000   1.0000   1.0000   1.0000   1.0000
     1.0000   1.0000   1.0000   1.0000   1.0000   1.0000   1.0000   1.0000
     1.0000   1.0000   1.0000   1.0000   1.0000   1.0000   1.0000   1.0000
     1.0000   1.0000   1.0087   1.0239   1.0570   1.0253   1.0252   0.5682
     0.5681   0.0382   0.0018   0.0018   0.0001   0.0001   0.0000   0.0000
     0.0000   0.0000   0.0000   0.0000   0.0000   0.0000   0.0000   0.0000
     0.0000   0.0000   0.0000   0.0000   0.0000   0.0000   0.0000   0.0000
     0.0000   0.0000   0.0000   0.0000   0.0000   0.0000   0.0000   0.0000
     0.0000   0.0000   0.0000   0.0000

     the Fermi energy is    -2.4048 ev

!    total energy              =    -721.74922391 Ry
     total all-electron energy =      -721.749614 Ry
     estimated scf accuracy    <       0.00000038 Ry

!    total charge of GC-SCF    =      -2.56510775 e
     smearing contrib. (-TS)   =      -0.00005183 Ry
     internal energy E=F+TS    =    -721.74917208 Ry

     The total energy is F=E-TS. E is the sum of the following terms:
     one-electron contribution =   -9161.42203369 Ry
     hartree contribution      =    4504.64886959 Ry
     xc contribution           =    -172.73370461 Ry
     ewald contribution        =    4007.16566031 Ry
     one-center paw contrib.   =       4.23355156 Ry
      -> PAW hartree energy AE =       7.50459851 Ry
      -> PAW hartree energy PS =      -7.28206148 Ry
      -> PAW xc energy AE      =      -3.49989972 Ry
      -> PAW xc energy PS      =       3.36553581 Ry
      -> total E_H with PAW    =    4504.87140663 Ry
[...]
     atom   32 type  1   force =     0.00000787   -0.00004480   -3.46443742
     atom   33 type  1   force =     0.00000334   -0.00003070   -8.60116516
     atom   34 type  1   force =     0.00000254   -0.00002470   -5.78863343
     atom   35 type  1   force =     0.00001057   -0.00001908  -10.40571257
     atom   36 type  1   force =     0.00000392   -0.00000998   -1.32279650
     atom   37 type  1   force =    -0.00000425    0.00002885    1.32284819
     atom   38 type  1   force =     0.00000276    0.00000352   10.40578082
     atom   39 type  1   force =    -0.00000135   -0.00002980    5.78854521
     atom   40 type  1   force =    -0.00003670    0.00001396    8.60126793
     atom   41 type  1   force =     0.00000335    0.00003126    3.46454821
     atom   42 type  1   force =     0.00001532   -0.00002600   12.39841931
     atom   43 type  1   force =    -0.00000573   -0.00000203  -12.39845826
     atom   44 type  1   force =     0.00000335    0.00004636   -3.46434358
     atom   45 type  1   force =     0.00001253    0.00001734   -8.60118857
     atom   46 type  1   force =     0.00000308    0.00001973   -5.78855648
     atom   47 type  1   force =     0.00000334    0.00001587  -10.40551944
     atom   48 type  1   force =    -0.00000943    0.00000723   -1.32280103
     The core correction contribution to forces
     atom    1 type  1   force =     0.00000000    0.00000000    0.00000000
     atom    2 type  1   force =     0.00000000    0.00000000    0.00000000
     atom    3 type  1   force =     0.00000000    0.00000000    0.00000000
     atom    4 type  1   force =     0.00000000    0.00000000    0.00000000
     atom    5 type  1   force =     0.00000000    0.00000000    0.00000000
     atom    6 type  1   force =     0.00000000    0.00000000    0.00000000
     atom    7 type  1   force =     0.00000000    0.00000000    0.00000000
     atom    8 type  1   force =     0.00000000    0.00000000    0.00000000
     atom    9 type  1   force =     0.00000000    0.00000000    0.00000000
     atom   10 type  1   force =     0.00000000    0.00000000    0.00000000
     atom   11 type  1   force =     0.00000000    0.00000000    0.00000000
     atom   12 type  1   force =     0.00000000    0.00000000    0.00000000
     atom   13 type  1   force =     0.00000000    0.00000000    0.00000000
     atom   14 type  1   force =     0.00000000    0.00000000    0.00000000
     atom   15 type  1   force =     0.00000000    0.00000000    0.00000000
     atom   16 type  1   force =     0.00000000    0.00000000    0.00000000
     atom   17 type  1   force =     0.00000000    0.00000000    0.00000000
     atom   18 type  1   force =     0.00000000    0.00000000    0.00000000
     atom   19 type  1   force =     0.00000000    0.00000000    0.00000000
     atom   20 type  1   force =     0.00000000    0.00000000    0.00000000
     atom   21 type  1   force =     0.00000000    0.00000000    0.00000000
     atom   22 type  1   force =     0.00000000    0.00000000    0.00000000
     atom   23 type  1   force =     0.00000000    0.00000000    0.00000000
     atom   24 type  1   force =     0.00000000    0.00000000    0.00000000
     atom   25 type  1   force =     0.00000000    0.00000000    0.00000000
     atom   26 type  1   force =     0.00000000    0.00000000    0.00000000
     atom   27 type  1   force =     0.00000000    0.00000000    0.00000000
     atom   28 type  1   force =     0.00000000    0.00000000    0.00000000
     atom   29 type  1   force =     0.00000000    0.00000000    0.00000000
     atom   30 type  1   force =     0.00000000    0.00000000    0.00000000
     atom   31 type  1   force =     0.00000000    0.00000000    0.00000000
     atom   32 type  1   force =     0.00000000    0.00000000    0.00000000
     atom   33 type  1   force =     0.00000000    0.00000000    0.00000000
     atom   34 type  1   force =     0.00000000    0.00000000    0.00000000
     atom   35 type  1   force =     0.00000000    0.00000000    0.00000000
     atom   36 type  1   force =     0.00000000    0.00000000    0.00000000
     atom   37 type  1   force =     0.00000000    0.00000000    0.00000000
     atom   38 type  1   force =     0.00000000    0.00000000    0.00000000
     atom   39 type  1   force =     0.00000000    0.00000000    0.00000000
     atom   40 type  1   force =     0.00000000    0.00000000    0.00000000
     atom   41 type  1   force =     0.00000000    0.00000000    0.00000000
     atom   42 type  1   force =     0.00000000    0.00000000    0.00000000
     atom   43 type  1   force =     0.00000000    0.00000000    0.00000000
     atom   44 type  1   force =     0.00000000    0.00000000    0.00000000
     atom   45 type  1   force =     0.00000000    0.00000000    0.00000000
     atom   46 type  1   force =     0.00000000    0.00000000    0.00000000
     atom   47 type  1   force =     0.00000000    0.00000000    0.00000000
     atom   48 type  1   force =     0.00000000    0.00000000    0.00000000
     The Hubbard contrib.    to forces
     atom    1 type  1   force =     0.00000000    0.00000000    0.00000000
     atom    2 type  1   force =     0.00000000    0.00000000    0.00000000
     atom    3 type  1   force =     0.00000000    0.00000000    0.00000000
     atom    4 type  1   force =     0.00000000    0.00000000    0.00000000
     atom    5 type  1   force =     0.00000000    0.00000000    0.00000000
     atom    6 type  1   force =     0.00000000    0.00000000    0.00000000
     atom    7 type  1   force =     0.00000000    0.00000000    0.00000000
     atom    8 type  1   force =     0.00000000    0.00000000    0.00000000
     atom    9 type  1   force =     0.00000000    0.00000000    0.00000000
     atom   10 type  1   force =     0.00000000    0.00000000    0.00000000
     atom   11 type  1   force =     0.00000000    0.00000000    0.00000000
     atom   12 type  1   force =     0.00000000    0.00000000    0.00000000
     atom   13 type  1   force =     0.00000000    0.00000000    0.00000000
     atom   14 type  1   force =     0.00000000    0.00000000    0.00000000
     atom   15 type  1   force =     0.00000000    0.00000000    0.00000000
     atom   16 type  1   force =     0.00000000    0.00000000    0.00000000
     atom   17 type  1   force =     0.00000000    0.00000000    0.00000000
     atom   18 type  1   force =     0.00000000    0.00000000    0.00000000
     atom   19 type  1   force =     0.00000000    0.00000000    0.00000000
     atom   20 type  1   force =     0.00000000    0.00000000    0.00000000
     atom   21 type  1   force =     0.00000000    0.00000000    0.00000000
     atom   22 type  1   force =     0.00000000    0.00000000    0.00000000
     atom   23 type  1   force =     0.00000000    0.00000000    0.00000000
     atom   24 type  1   force =     0.00000000    0.00000000    0.00000000
     atom   25 type  1   force =     0.00000000    0.00000000    0.00000000
     atom   26 type  1   force =     0.00000000    0.00000000    0.00000000
     atom   27 type  1   force =     0.00000000    0.00000000    0.00000000
     atom   28 type  1   force =     0.00000000    0.00000000    0.00000000
     atom   29 type  1   force =     0.00000000    0.00000000    0.00000000
     atom   30 type  1   force =     0.00000000    0.00000000    0.00000000
     atom   31 type  1   force =     0.00000000    0.00000000    0.00000000
     atom   32 type  1   force =     0.00000000    0.00000000    0.00000000
     atom   33 type  1   force =     0.00000000    0.00000000    0.00000000
     atom   34 type  1   force =     0.00000000    0.00000000    0.00000000
     atom   35 type  1   force =     0.00000000    0.00000000    0.00000000
     atom   36 type  1   force =     0.00000000    0.00000000    0.00000000
     atom   37 type  1   force =     0.00000000    0.00000000    0.00000000
     atom   38 type  1   force =     0.00000000    0.00000000    0.00000000
     atom   39 type  1   force =     0.00000000    0.00000000    0.00000000
     atom   40 type  1   force =     0.00000000    0.00000000    0.00000000
     atom   41 type  1   force =     0.00000000    0.00000000    0.00000000
     atom   42 type  1   force =     0.00000000    0.00000000    0.00000000
     atom   43 type  1   force =     0.00000000    0.00000000    0.00000000
     atom   44 type  1   force =     0.00000000    0.00000000    0.00000000
     atom   45 type  1   force =     0.00000000    0.00000000    0.00000000
     atom   46 type  1   force =     0.00000000    0.00000000    0.00000000
     atom   47 type  1   force =     0.00000000    0.00000000    0.00000000
     atom   48 type  1   force =     0.00000000    0.00000000    0.00000000
     The SCF correction term to forces
     atom    1 type  1   force =     0.00000000    0.00000002   -0.00000010
     atom    2 type  1   force =     0.00000003    0.00000002    0.00000236
     atom    3 type  1   force =    -0.00000000   -0.00000003    0.00000022
     atom    4 type  1   force =    -0.00000000    0.00000002   -0.00000048
     atom    5 type  1   force =     0.00000003    0.00000001    0.00000009
     atom    6 type  1   force =     0.00000000   -0.00000003    0.00000459
     atom    7 type  1   force =     0.00000000   -0.00000000   -0.00000466
     atom    8 type  1   force =    -0.00000003    0.00000000   -0.00000014
     atom    9 type  1   force =     0.00000000    0.00000003    0.00000060
     atom   10 type  1   force =    -0.00000000    0.00000002   -0.00000016
     atom   11 type  1   force =    -0.00000004    0.00000002   -0.00000228
     atom   12 type  1   force =    -0.00000000   -0.00000002   -0.00000007
     atom   13 type  1   force =    -0.00000000   -0.00000001   -0.00000012
     atom   14 type  1   force =     0.00000000   -0.00000003    0.00000240
     atom   15 type  1   force =     0.00000003    0.00000001    0.00000025
     atom   16 type  1   force =     0.00000003   -0.00000002   -0.00000045
     atom   17 type  1   force =    -0.00000000   -0.00000003    0.00000008
     atom   18 type  1   force =    -0.00000001   -0.00000000    0.00000463
     atom   19 type  1   force =    -0.00000002    0.00000000   -0.00000456
     atom   20 type  1   force =    -0.00000000    0.00000002   -0.00000011
     atom   21 type  1   force =    -0.00000003    0.00000000    0.00000059
     atom   22 type  1   force =    -0.00000002   -0.00000001   -0.00000016
     atom   23 type  1   force =     0.00000000    0.00000002   -0.00000229
     atom   24 type  1   force =     0.00000001    0.00000001   -0.00000005
     atom   25 type  1   force =     0.00000000    0.00000001   -0.00000015
     atom   26 type  1   force =    -0.00000003    0.00000002    0.00000236
     atom   27 type  1   force =    -0.00000000   -0.00000000    0.00000025
     atom   28 type  1   force =     0.00000000    0.00000004   -0.00000043
     atom   29 type  1   force =    -0.00000003    0.00000001    0.00000009
     atom   30 type  1   force =     0.00000000   -0.00000003    0.00000462
     atom   31 type  1   force =    -0.00000000    0.00000001   -0.00000463
     atom   32 type  1   force =     0.00000003    0.00000000   -0.00000014
     atom   33 type  1   force =     0.00000000   -0.00000003    0.00000058
     atom   34 type  1   force =    -0.00000000   -0.00000000   -0.00000019
     atom   35 type  1   force =     0.00000004    0.00000002   -0.00000228
     atom   36 type  1   force =     0.00000000   -0.00000001   -0.00000005
     atom   37 type  1   force =     0.00000000   -0.00000001   -0.00000012
     atom   38 type  1   force =     0.00000000    0.00000000    0.00000234
     atom   39 type  1   force =    -0.00000003    0.00000001    0.00000025
     atom   40 type  1   force =    -0.00000003   -0.00000002   -0.00000045
     atom   41 type  1   force =    -0.00000000    0.00000003    0.00000012
     atom   42 type  1   force =     0.00000001   -0.00000000    0.00000463
     atom   43 type  1   force =     0.00000002    0.00000000   -0.00000456
     atom   44 type  1   force =    -0.00000000   -0.00000001   -0.00000015
     atom   45 type  1   force =     0.00000003    0.00000000    0.00000059
     atom   46 type  1   force =     0.00000002   -0.00000001   -0.00000016
     atom   47 type  1   force =     0.00000000   -0.00000003   -0.00000228
     atom   48 type  1   force =    -0.00000001    0.00000001   -0.00000005

     Total force =     0.001767     Total SCF correction =     0.000015
     Energy error            =      5.1E-06 Ry
     Gradient error          =      3.9E-04 Ry/Bohr

     bfgs converged in  17 scf cycles and  16 bfgs steps
     (criteria: energy <  1.0E-05 Ry, force <  3.9E-04 Ry/Bohr)

     End of BFGS Geometry Optimization

     Final energy             =    -721.7572255747 Ry

     File ./Li/Lithium.bfgs deleted, as requested
Begin final coordinates

ATOMIC_POSITIONS (angstrom)
Li              -0.0000000100        0.0000213102       25.0396408881
Li               2.4290685140        1.4024405963       21.2219740552
Li               4.8580444100        2.8048636382       23.1292189992
Li               0.0000000100        0.0000489229       21.9905243398
Li               2.4290472823        1.4024290154       24.1227101838
Li               4.8580445000        2.8048336061       20.1536903826
Li               0.0000000000       -0.0000628374       31.0532986913
Li               2.4290090631        1.4023523239       27.0843233796
Li               4.8580444100        2.8047409783       29.2166036178
Li              -0.0000000100       -0.0000459237       28.0778313197
Li               2.4289981229        1.4023523635       29.9850104798
Li               4.8580444200        2.8047685947       26.1674391652
Li               2.4290161561        4.2072042389       25.0396170745
Li               4.8580443900        5.6096111798       21.2219852271
Li               7.2870320805        7.0119915482       23.1292284239
Li               2.4290212243        4.2072319813       21.9905108909
Li               4.8580444100        5.6095898300       24.1227050997
Li               7.2870597207        7.0120350887       20.1536909220
Li               2.4290048990        4.2071820357       31.0532861056
Li               4.8580444000        5.6095772109       27.0843004313
Li               7.2870774732        7.0119564718       29.2164475257
Li               2.4290503447        4.2071470005       28.0778192123
Li               4.8580444000        5.6095788919       29.9849592297
Li               7.2870630425        7.0119710500       26.1673954619
Li               4.8580444000       -0.0000137225       25.0397045320
Li               7.2870203060        1.4024405763       21.2219742052
Li               9.7160888200        2.8048534693       23.1292055351
Li               4.8580443900        0.0000228911       21.9906849760
Li               7.2870415377        1.4024290154       24.1227102638
Li               9.7160887400        2.8048039326       20.1536601775
Li               4.8580444000       -0.0000912263       31.0532927602
Li               7.2870797569        1.4023523239       27.0843234296
Li               9.7160888300        2.8047310833       29.2164443855
Li               4.8580444000       -0.0000040181       28.0778401846
Li               7.2870906971        1.4023523535       29.9850105198
Li               9.7160888200        2.8047890788       26.1673949857
Li               7.2870726540        4.2072042489       25.0396170745
Li               9.7160888400        5.6096515023       21.2219340442
Li              12.1451455695        7.0119915582       23.1292284339
Li               7.2870675857        4.2072320013       21.9905109009
Li               9.7160888300        5.6096278238       24.1226770636
Li              12.1451179293        7.0120351987       20.1536909320
Li               7.2870839110        4.2071820457       31.0532860956
Li               9.7160888300        5.6095871578       27.0842753114
Li              12.1451001769        7.0119564718       29.2164475257
Li               7.2870384753        4.2071470005       28.0778192023
Li               9.7160888300        5.6095225557       29.9849214705
Li              12.1451146175        7.0119710600       26.1673954619
End final coordinates



     Writing all to output data dir ./Li/Lithium.save/ :
     XML data file
     init_run     :     28.07s CPU     36.17s WALL (       1 calls)
     electrons    :  16380.49s CPU  20413.52s WALL (      17 calls)
     update_pot   :      3.67s CPU      4.39s WALL (      16 calls)
     forces       :   1473.84s CPU   1552.83s WALL (      17 calls)

     Called by init_run:
     wfcinit      :      2.85s CPU      3.30s WALL (       1 calls)
     wfcinit:wfcr :      2.58s CPU      3.02s WALL (       8 calls)
     potinit      :      1.05s CPU      1.14s WALL (       1 calls)
     hinit0       :      7.88s CPU      8.91s WALL (       1 calls)

     Called by electrons:
     c_bands      :  11021.30s CPU  14210.32s WALL (     408 calls)
     sum_band     :    549.78s CPU    696.13s WALL (     408 calls)
     v_of_rho     :     71.64s CPU     83.90s WALL (     409 calls)
     v_h          :      5.44s CPU      6.71s WALL (     409 calls)
     v_xc         :     66.19s CPU     77.17s WALL (     409 calls)
     newd         :     37.52s CPU     57.20s WALL (     409 calls)
     PAW_pot      :      4.36s CPU      5.85s WALL (     425 calls)
     mix_rho      :    160.30s CPU    200.02s WALL (     408 calls)

     Called by c_bands:
     init_us_2    :    129.26s CPU    130.19s WALL (    6800 calls)
     cegterg      :   9778.88s CPU  10996.89s WALL (    4806 calls)

     Called by sum_band:
     sum_band:wei :      0.60s CPU      0.69s WALL (     408 calls)
     sum_band:loo :    498.89s CPU    596.07s WALL (     408 calls)
     sum_band:buf :     12.64s CPU     12.77s WALL (    3264 calls)
     sum_band:ini :     62.24s CPU     62.53s WALL (    3264 calls)
     sum_band:cal :    102.20s CPU    108.33s WALL (    3392 calls)
     sum_band:bec :      0.84s CPU      0.94s WALL (    3392 calls)
     addusdens    :     21.33s CPU     33.53s WALL (     408 calls)
                                        0.00s GPU  (     408 calls)
     addusd:skk   :      2.26s CPU      8.58s WALL (     408 calls)
                                        0.00s GPU  (     408 calls)

     Called by *egterg:
     cdiaghg      :   2893.03s CPU   3005.66s WALL (   71570 calls)
     cegterg:over :    683.25s CPU    732.60s WALL (   67097 calls)
     cegterg:upda :    608.70s CPU    627.63s WALL (   67097 calls)
     cegterg:last :    206.49s CPU    207.08s WALL (    5963 calls)
     h_psi        :   4544.06s CPU   5518.93s WALL (   71911 calls)
     s_psi        :    651.66s CPU    657.11s WALL (   71911 calls)
     g_psi        :      6.88s CPU      7.56s WALL (   67097 calls)

     Called by h_psi:
     h_psi:calbec :    779.88s CPU    834.57s WALL (   71911 calls)
     vloc_psi     :   3083.95s CPU   3973.21s WALL (   71911 calls)
                                        0.00s GPU  (   71911 calls)
     add_vuspsi   :    650.27s CPU    654.93s WALL (   71911 calls)

     General routines
     calbec       :    895.41s CPU    957.21s WALL (   75847 calls)
     fft          :     44.33s CPU     61.56s WALL (    5349 calls)
     ffts         :     76.32s CPU    102.04s WALL (   46942 calls)
     fftw         :   3172.97s CPU   4092.16s WALL ( 3797926 calls)
     interpolate  :      5.62s CPU      6.81s WALL (     409 calls)

     Parallel routines

     PAW routines
     PAW_pot      :      4.36s CPU      5.85s WALL (     425 calls)
     PAW_symme    :      0.17s CPU      0.24s WALL (     833 calls)

     Environ routines

     PWSCF        :      5h 3m CPU      6h12m WALL


   This run was terminated on:   3:19:16   3Jan2025            

=------------------------------------------------------------------------------=
   JOB DONE.
=------------------------------------------------------------------------------=
