
     Program PWSCF v.7.4 starts on 23Jan2025 at  0:35:40 

     This program is part of the open-source Quantum ESPRESSO suite
     for quantum simulation of materials; please cite
         "P. Giannozzi et al., J. Phys.:Condens. Matter 21 395502 (2009);
         "P. Giannozzi et al., J. Phys.:Condens. Matter 29 465901 (2017);
         "P. Giannozzi et al., J. Chem. Phys. 152 154105 (2020);
          URL http://www.quantum-espresso.org", 
     in publications or presentations arising from this work. More details at
     http://www.quantum-espresso.org/quote

     Parallel version (MPI & OpenMP), running on     384 processor cores
     Number of MPI processes:               384
     Threads/MPI process:                     1

     MPI processes distributed on     2 nodes
     646575 MiB available memory on the printing compute node when the environment starts
 
     Reading input from espresso.pwi
Warning: card &FCP ignored
Warning: card / ignored
Warning: card &RISM ignored
Warning: card / ignored

     Current dimensions of program PWSCF are:
     Max number of different atomic species (ntypx) = 10
     Max number of k-points (npk) =  40000
     Max angular momentum in pseudopotentials (lmaxx) =  4

     IMPORTANT: XC functional enforced from input :
     Exchange-correlation= PBE
                           (   1   4   3   4   0   0   0)
     Any further DFT definition will be discarded
     Please, verify this is what you really want

     Found identity + (  0.5000  0.5000  0.5000) symmetry
     This is a supercell, fractional translations are disabled
     Message from routine setup:
     using ibrav=0 with symmetry is DISCOURAGED, use correct ibrav instead
 
     K-points division:     npool     =      24
     R & G space division:  proc/nbgrp/npool/nimage =      16
     Subspace diagonalization in iterative solution of the eigenvalue problem:
     a serial algorithm will be used

 
     Parallelization info
     --------------------
     sticks:   dense  smooth     PW     G-vecs:    dense   smooth      PW
     Min         168      67     20                 6525     1657     272
     Max         170      68     21                 6527     1660     275
     Sum        2701    1085    325               104415    26529    4385
 
     Using Slab Decomposition
 


     bravais-lattice index     =            0
     lattice parameter (alat)  =       6.4915  a.u.
     unit-cell volume          =     273.5496 (a.u.)^3
     number of atoms/cell      =            2
     number of atomic types    =            1
     number of electrons       =         6.00
     number of Kohn-Sham states=            7
     kinetic-energy cutoff     =      80.0000  Ry
     charge density cutoff     =     800.0000  Ry
     scf convergence threshold =      1.0E-10
     mixing beta               =       0.8000
     number of iterations used =            8  plain     mixing
     energy convergence thresh.=      1.0E-10
     force convergence thresh. =      1.0E-10
     press convergence thresh. =      1.0E-01
     Exchange-correlation= PBE
                           (   1   4   3   4   0   0   0)
     nstep                     =           50


     celldm(1)=   6.491504  celldm(2)=   0.000000  celldm(3)=   0.000000
     celldm(4)=   0.000000  celldm(5)=   0.000000  celldm(6)=   0.000000

     crystal axes: (cart. coord. in units of alat)
               a(1) = (   1.000000   0.000000   0.000000 )  
               a(2) = (   0.000000   1.000000   0.000000 )  
               a(3) = (   0.000000   0.000000   1.000000 )  

     reciprocal axes: (cart. coord. in units 2 pi/alat)
               b(1) = (  1.000000  0.000000  0.000000 )  
               b(2) = (  0.000000  1.000000  0.000000 )  
               b(3) = (  0.000000  0.000000  1.000000 )  


     PseudoPot. # 1 for Li read from file:
     /iridisfs/home/ba3g18/Repos/Pseudopotentials/pslibrary.1.0.0/pbe/PSEUDOPOTENTIALS/Li.pbe-sl-kjpaw_psl.1.0.0.UPF
     MD5 check sum: 3f4d2cafebb47c6c3aa8ed472e6f074d
     Pseudo is Projector augmented-wave, Zval =  3.0
     Generated using 'atomic' code by A. Dal Corso  v.7.4
     Shape of augmentation charge: PSQ
     Using radial grid of 1017 points,  4 beta functions with: 
                l(1) =   0
                l(2) =   0
                l(3) =   1
                l(4) =   1
     Q(r) pseudized with 0 coefficients 


     atomic species   valence    mass     pseudopotential
     Li                3.00     6.94000     Li( 1.00)

     48 Sym. Ops., with inversion, found



   Cartesian axes

     site n.     atom                  positions (alat units)
         1        Li     tau(   1) = (   0.0000000   0.0000000   0.0000000  )
         2        Li     tau(   2) = (   0.5000000   0.5000000   0.5000000  )

     number of k points=   816  Marzari-Vanderbilt smearing, width (Ry)=  0.0100

     Number of k-points >= 100: set verbosity='high' to print them.

     Dense  grid:   104415 G-vectors     FFT dimensions: (  60,  60,  60)

     Smooth grid:    26529 G-vectors     FFT dimensions: (  40,  40,  40)

     Estimated max dynamical RAM per process >       6.06 MB

     Estimated total dynamical RAM >       1.70 GB

     Initial potential from superposition of free atoms

     starting charge       5.9908, renormalised to       6.0000
     Starting wfcs are   10 randomized atomic wfcs
     Checking if some PAW data can be deallocated... 

     total cpu time spent up to now is        2.1 secs

     Self-consistent Calculation

     iteration #  1     ecut=    80.00 Ry     beta= 0.80
     Davidson diagonalization with overlap
     ethr =  1.00E-02,  avg # of iterations =  3.4

     Threshold (ethr) on eigenvalues was too large:
     Diagonalizing with lowered threshold

     Davidson diagonalization with overlap
     c_bands:  1 eigenvalues not converged
     ethr =  1.95E-05,  avg # of iterations =  6.3

     total cpu time spent up to now is        3.1 secs

     total energy              =     -30.08818789 Ry
     estimated scf accuracy    <       0.00064247 Ry

     iteration #  2     ecut=    80.00 Ry     beta= 0.80
     Davidson diagonalization with overlap
     ethr =  1.07E-05,  avg # of iterations =  1.2

     total cpu time spent up to now is        3.3 secs

     total energy              =     -30.08822043 Ry
     estimated scf accuracy    <       0.00001500 Ry

     iteration #  3     ecut=    80.00 Ry     beta= 0.80
     Davidson diagonalization with overlap
     c_bands:  1 eigenvalues not converged
     ethr =  2.50E-07,  avg # of iterations =  5.1

     total cpu time spent up to now is        3.6 secs

     total energy              =     -30.08823911 Ry
     estimated scf accuracy    <       0.00000228 Ry

     iteration #  4     ecut=    80.00 Ry     beta= 0.80
     Davidson diagonalization with overlap
     ethr =  3.80E-08,  avg # of iterations =  2.0

     total cpu time spent up to now is        3.8 secs

     total energy              =     -30.08823893 Ry
     estimated scf accuracy    <       0.00000079 Ry

     iteration #  5     ecut=    80.00 Ry     beta= 0.80
     Davidson diagonalization with overlap
     ethr =  1.32E-08,  avg # of iterations =  1.3

     total cpu time spent up to now is        4.0 secs

     End of self-consistent calculation

     Number of k-points >= 100: set verbosity='high' to print the bands.

     the Fermi energy is     0.9304 ev

!    total energy              =     -30.08823900 Ry
     total all-electron energy =       -30.088255 Ry
     estimated scf accuracy    <          5.5E-11 Ry
     smearing contrib. (-TS)   =      -0.00003857 Ry
     internal energy E=F+TS    =     -30.08820043 Ry

     The total energy is F=E-TS. E is the sum of the following terms:
     one-electron contribution =     -21.14879429 Ry
     hartree contribution      =       8.16623999 Ry
     xc contribution           =      -7.19087348 Ry
     ewald contribution        =     -10.09106656 Ry
     one-center paw contrib.   =       0.17629392 Ry

     convergence has been achieved in   5 iterations

     Forces acting on atoms (cartesian axes, Ry/au):

     atom    1 type  1   force =     0.00000000    0.00000000    0.00000000
     atom    2 type  1   force =     0.00000000    0.00000000    0.00000000

     Total force =     0.000000     Total SCF correction =     0.000000


     Computing stress (Cartesian axis) and pressure

          total   stress  (Ry/bohr**3)                   (kbar)     P=       -0.14
  -0.00000092   0.00000000   0.00000000           -0.14        0.00        0.00
   0.00000000  -0.00000092   0.00000000            0.00       -0.14        0.00
   0.00000000   0.00000000  -0.00000092            0.00        0.00       -0.14


     BFGS Geometry Optimization
     Energy error            =      1.7E-08 Ry
     Gradient error          =      0.0E+00 Ry/Bohr
     Cell gradient error     =      1.4E-01 kbar

     number of scf cycles    =   1
     number of bfgs steps    =   0

     enthalpy           new  =     -30.0882390040 Ry

     new trust radius        =       0.0000759411 bohr
     new conv_thr            =            1.0E-10 Ry

     new unit-cell volume =    273.53074 a.u.^3 (    40.53307 Ang^3 )
     density =      0.56863 g/cm^3

CELL_PARAMETERS (angstrom)
   3.435077283   0.000000000   0.000000000
   0.000000000   3.435077283   0.000000000
   0.000000000   0.000000000   3.435077283

ATOMIC_POSITIONS (angstrom)
Li               0.0000000000        0.0000000000        0.0000000000
Li               1.7175386383        1.7175386383        1.7175386383


     Message from routine punch:
     Nothing written, as per user request (disk_io='none')
     NEW-OLD atomic charge density approx. for the potential
     New effective cutoffs (rho, wfc):  799.17   80.00

     total cpu time spent up to now is        4.2 secs

     Self-consistent Calculation

     iteration #  1     ecut=    80.00 Ry     beta= 0.80
     Davidson diagonalization with overlap
     ethr =  1.00E-06,  avg # of iterations =  2.0

     Threshold (ethr) on eigenvalues was too large:
     Diagonalizing with lowered threshold

     Davidson diagonalization with overlap
     ethr =  3.70E-12,  avg # of iterations =  6.2

     total cpu time spent up to now is        4.8 secs

     total energy              =     -30.08823903 Ry
     estimated scf accuracy    <          3.0E-10 Ry

     iteration #  2     ecut=    80.00 Ry     beta= 0.80
     Davidson diagonalization with overlap
     ethr =  4.93E-12,  avg # of iterations =  1.7

     total cpu time spent up to now is        5.0 secs

     End of self-consistent calculation

     Number of k-points >= 100: set verbosity='high' to print the bands.

     the Fermi energy is     0.9307 ev

!    total energy              =     -30.08823903 Ry
     total all-electron energy =       -30.088255 Ry
     estimated scf accuracy    <          2.5E-12 Ry
     smearing contrib. (-TS)   =      -0.00003857 Ry
     internal energy E=F+TS    =     -30.08820046 Ry

     The total energy is F=E-TS. E is the sum of the following terms:
     one-electron contribution =     -21.14848970 Ry
     hartree contribution      =       8.16621948 Ry
     xc contribution           =      -7.19092630 Ry
     ewald contribution        =     -10.09129824 Ry
     one-center paw contrib.   =       0.17629430 Ry

     convergence has been achieved in   2 iterations

     Forces acting on atoms (cartesian axes, Ry/au):

     atom    1 type  1   force =     0.00000000    0.00000000    0.00000000
     atom    2 type  1   force =     0.00000000    0.00000000    0.00000000

     Total force =     0.000000     Total SCF correction =     0.000000


     Computing stress (Cartesian axis) and pressure

          total   stress  (Ry/bohr**3)                   (kbar)     P=       -0.10
  -0.00000069   0.00000000  -0.00000000           -0.10        0.00       -0.00
   0.00000000  -0.00000069   0.00000000            0.00       -0.10        0.00
  -0.00000000   0.00000000  -0.00000069           -0.00        0.00       -0.10

     Energy error            =      2.9E-08 Ry
     Gradient error          =      0.0E+00 Ry/Bohr
     Cell gradient error     =      1.0E-01 kbar

     number of scf cycles    =   2
     number of bfgs steps    =   1

     enthalpy           old  =     -30.0882390040 Ry
     enthalpy           new  =     -30.0882390334 Ry

     CASE: enthalpy          _new < enthalpy          _old

     small trust_radius: resetting bfgs history

     new trust radius        =       0.0000567085 bohr
     new conv_thr            =            1.0E-16 Ry

     new unit-cell volume =    273.51667 a.u.^3 (    40.53099 Ang^3 )
     density =      0.56866 g/cm^3

CELL_PARAMETERS (angstrom)
   3.435018391   0.000000000  -0.000000000
   0.000000000   3.435018391   0.000000000
  -0.000000000   0.000000000   3.435018391

ATOMIC_POSITIONS (angstrom)
Li               0.0000000000        0.0000000000        0.0000000000
Li               1.7175091926        1.7175091926        1.7175091926


     Message from routine punch:
     Nothing written, as per user request (disk_io='none')
     NEW-OLD atomic charge density approx. for the potential
     New effective cutoffs (rho, wfc):  799.20   80.01

     total cpu time spent up to now is        5.1 secs

     Self-consistent Calculation

     iteration #  1     ecut=    80.00 Ry     beta= 0.80
     Davidson diagonalization with overlap
     ethr =  1.00E-06,  avg # of iterations =  2.0

     Threshold (ethr) on eigenvalues was too large:
     Diagonalizing with lowered threshold

     Davidson diagonalization with overlap
     ethr =  3.31E-13,  avg # of iterations =  6.4

     total cpu time spent up to now is        5.6 secs

     total energy              =     -30.08823904 Ry
     estimated scf accuracy    <          9.6E-13 Ry

     iteration #  2     ecut=    80.00 Ry     beta= 0.80
     Davidson diagonalization with overlap
     ethr =  1.00E-13,  avg # of iterations =  1.0

     total cpu time spent up to now is        5.7 secs

     total energy              =     -30.08823904 Ry
     estimated scf accuracy    <          1.1E-13 Ry

     iteration #  3     ecut=    80.00 Ry     beta= 0.80
     Davidson diagonalization with overlap
     ethr =  1.00E-13,  avg # of iterations =  1.0

     total cpu time spent up to now is        5.9 secs

     total energy              =     -30.08823904 Ry
     estimated scf accuracy    <          1.3E-15 Ry

     iteration #  4     ecut=    80.00 Ry     beta= 0.80
     Davidson diagonalization with overlap
     ethr =  1.00E-13,  avg # of iterations =  1.0

     total cpu time spent up to now is        6.0 secs

     total energy              =     -30.08823904 Ry
     estimated scf accuracy    <          1.6E-15 Ry

     iteration #  5     ecut=    80.00 Ry     beta= 0.80
     Davidson diagonalization with overlap
     ethr =  1.00E-13,  avg # of iterations =  1.0

     total cpu time spent up to now is        6.2 secs

     End of self-consistent calculation

     Number of k-points >= 100: set verbosity='high' to print the bands.

     the Fermi energy is     0.9308 ev

!    total energy              =     -30.08823904 Ry
     total all-electron energy =       -30.088255 Ry
     estimated scf accuracy    <          8.8E-17 Ry
     smearing contrib. (-TS)   =      -0.00003857 Ry
     internal energy E=F+TS    =     -30.08820047 Ry

     The total energy is F=E-TS. E is the sum of the following terms:
     one-electron contribution =     -21.14822326 Ry
     hartree contribution      =       8.16613862 Ry
     xc contribution           =      -7.19093843 Ry
     ewald contribution        =     -10.09147124 Ry
     one-center paw contrib.   =       0.17629385 Ry

     convergence has been achieved in   5 iterations

     Forces acting on atoms (cartesian axes, Ry/au):

     atom    1 type  1   force =     0.00000000    0.00000000    0.00000000
     atom    2 type  1   force =     0.00000000    0.00000000    0.00000000

     Total force =     0.000000     Total SCF correction =     0.000000


     Computing stress (Cartesian axis) and pressure

          total   stress  (Ry/bohr**3)                   (kbar)     P=       -0.09
  -0.00000064   0.00000000   0.00000000           -0.09        0.00        0.00
   0.00000000  -0.00000064   0.00000000            0.00       -0.09        0.00
   0.00000000   0.00000000  -0.00000064            0.00        0.00       -0.09

     Energy error            =      9.3E-09 Ry
     Gradient error          =      0.0E+00 Ry/Bohr
     Cell gradient error     =      9.4E-02 kbar

     number of scf cycles    =   3
     number of bfgs steps    =   2

     enthalpy           old  =     -30.0882390334 Ry
     enthalpy           new  =     -30.0882390427 Ry

     CASE: enthalpy          _new < enthalpy          _old


     WARNING: bfgs curvature condition failed, Theta= 0.863
     Message from routine bfgs :: compute_trust_radius:
     history already reset at previous step: stopping
     small trust_radius: resetting bfgs history

     new trust radius        =       0.0000525886 bohr
     new conv_thr            =            1.0E-16 Ry

     new unit-cell volume =    273.50362 a.u.^3 (    40.52906 Ang^3 )
     density =      0.56869 g/cm^3

CELL_PARAMETERS (angstrom)
   3.434963778   0.000000000   0.000000000
   0.000000000   3.434963778   0.000000000
   0.000000000   0.000000000   3.434963778

ATOMIC_POSITIONS (angstrom)
Li               0.0000000000        0.0000000000        0.0000000000
Li               1.7174818859        1.7174818859        1.7174818859


     Message from routine punch:
     Nothing written, as per user request (disk_io='none')
     NEW-OLD atomic charge density approx. for the potential
     New effective cutoffs (rho, wfc):  799.22   80.01

     total cpu time spent up to now is        6.2 secs

     Self-consistent Calculation

     iteration #  1     ecut=    80.00 Ry     beta= 0.80
     Davidson diagonalization with overlap
     ethr =  1.00E-06,  avg # of iterations =  2.0

     Threshold (ethr) on eigenvalues was too large:
     Diagonalizing with lowered threshold

     Davidson diagonalization with overlap
     ethr =  3.91E-13,  avg # of iterations =  5.6

     total cpu time spent up to now is        6.7 secs

     total energy              =     -30.08823905 Ry
     estimated scf accuracy    <          1.4E-12 Ry

     iteration #  2     ecut=    80.00 Ry     beta= 0.80
     Davidson diagonalization with overlap
     ethr =  1.00E-13,  avg # of iterations =  2.1

     total cpu time spent up to now is        6.9 secs

     total energy              =     -30.08823905 Ry
     estimated scf accuracy    <          6.1E-14 Ry

     iteration #  3     ecut=    80.00 Ry     beta= 0.80
     Davidson diagonalization with overlap
     ethr =  1.00E-13,  avg # of iterations =  1.0

     total cpu time spent up to now is        7.1 secs

     total energy              =     -30.08823905 Ry
     estimated scf accuracy    <          1.4E-14 Ry

     iteration #  4     ecut=    80.00 Ry     beta= 0.80
     Davidson diagonalization with overlap
     ethr =  1.00E-13,  avg # of iterations =  1.0

     total cpu time spent up to now is        7.2 secs

     End of self-consistent calculation

     Number of k-points >= 100: set verbosity='high' to print the bands.

     the Fermi energy is     0.9310 ev

!    total energy              =     -30.08823905 Ry
     total all-electron energy =       -30.088255 Ry
     estimated scf accuracy    <          9.4E-17 Ry
     smearing contrib. (-TS)   =      -0.00003857 Ry
     internal energy E=F+TS    =     -30.08820048 Ry

     The total energy is F=E-TS. E is the sum of the following terms:
     one-electron contribution =     -21.14797944 Ry
     hartree contribution      =       8.16606949 Ry
     xc contribution           =      -7.19095251 Ry
     ewald contribution        =     -10.09163169 Ry
     one-center paw contrib.   =       0.17629368 Ry

     convergence has been achieved in   4 iterations

     Forces acting on atoms (cartesian axes, Ry/au):

     atom    1 type  1   force =     0.00000000    0.00000000    0.00000000
     atom    2 type  1   force =     0.00000000    0.00000000    0.00000000

     Total force =     0.000000     Total SCF correction =     0.000000


     Computing stress (Cartesian axis) and pressure

          total   stress  (Ry/bohr**3)                   (kbar)     P=       -0.09
  -0.00000059   0.00000000  -0.00000000           -0.09        0.00       -0.00
   0.00000000  -0.00000059   0.00000000            0.00       -0.09        0.00
  -0.00000000   0.00000000  -0.00000059           -0.00        0.00       -0.09

     Message from routine bfgs:
     history already reset at previous step: exiting
     Energy error            =      8.0E-09 Ry
     Gradient error          =      0.0E+00 Ry/Bohr
     Cell gradient error     =      8.7E-02 kbar

     bfgs failed after   4 scf cycles and   3 bfgs steps, convergence not achieved
     (criteria: energy <  1.0E-10 Ry, force <  1.0E-10 Ry/Bohr, cell <  1.0E-01 kbar)

     End of BFGS Geometry Optimization

     Final enthalpy           =     -30.0882390506 Ry

     File ./pwscf.bfgs deleted, as requested
Begin final coordinates
     new unit-cell volume =    273.50362 a.u.^3 (    40.52906 Ang^3 )
     density =      0.56869 g/cm^3

CELL_PARAMETERS (angstrom)
   3.434963778   0.000000000   0.000000000
   0.000000000   3.434963778   0.000000000
   0.000000000   0.000000000   3.434963778

ATOMIC_POSITIONS (angstrom)
Li               0.0000000000        0.0000000000        0.0000000000
Li               1.7174818859        1.7174818859        1.7174818859
End final coordinates


     Message from routine punch:
     Nothing written, as per user request (disk_io='none')
     Message from routine punch:
     Nothing written, as per user request (disk_io='none')
 
     init_run     :      0.16s CPU      0.45s WALL (       1 calls)
     electrons    :      3.52s CPU      4.72s WALL (       4 calls)
     update_pot   :      0.07s CPU      0.09s WALL (       3 calls)
     forces       :      0.03s CPU      0.04s WALL (       4 calls)
     stress       :      0.08s CPU      0.11s WALL (       4 calls)

     Called by init_run:
     wfcinit      :      0.04s CPU      0.11s WALL (       1 calls)
     potinit      :      0.03s CPU      0.10s WALL (       1 calls)
     hinit0       :      0.04s CPU      0.16s WALL (       1 calls)

     Called by electrons:
     c_bands      :      1.98s CPU      2.63s WALL (      20 calls)
     sum_band     :      1.04s CPU      1.17s WALL (      20 calls)
     v_of_rho     :      0.09s CPU      0.12s WALL (      20 calls)
     newd         :      0.01s CPU      0.04s WALL (      20 calls)
     PAW_pot      :      0.37s CPU      0.54s WALL (      23 calls)
     mix_rho      :      0.01s CPU      0.01s WALL (      20 calls)

     Called by c_bands:
     init_us_2    :      0.03s CPU      0.04s WALL (    1768 calls)
     cegterg      :      1.42s CPU      2.02s WALL (     680 calls)

     Called by *egterg:
     cdiaghg      :      0.09s CPU      0.15s WALL (    2535 calls)
     h_psi        :      1.14s CPU      1.63s WALL (    2807 calls)
     s_psi        :      0.02s CPU      0.03s WALL (    2807 calls)
     g_psi        :      0.01s CPU      0.01s WALL (    2093 calls)

     Called by h_psi:
     h_psi:calbec :      0.05s CPU      0.08s WALL (    2807 calls)
     vloc_psi     :      1.03s CPU      1.45s WALL (    2807 calls)
                                        0.00s GPU  (    2807 calls)
     add_vuspsi   :      0.02s CPU      0.03s WALL (    2807 calls)

     General routines
     calbec       :      0.08s CPU      0.12s WALL (    5901 calls)
     fft          :      0.07s CPU      0.13s WALL (     291 calls)
     ffts         :      0.19s CPU      0.19s WALL (      40 calls)
     fftw         :      1.05s CPU      1.49s WALL (   31000 calls)
     interpolate  :      0.01s CPU      0.01s WALL (      20 calls)
 
     Parallel routines
 
     PWSCF        :      4.36s CPU      7.26s WALL

 
   This run was terminated on:   0:35:47  23Jan2025            

=------------------------------------------------------------------------------=
   JOB DONE.
=------------------------------------------------------------------------------=
