
     Program PWSCF v.7.4 starts on 20Jan2025 at  4:24:33 

     This program is part of the open-source Quantum ESPRESSO suite
     for quantum simulation of materials; please cite
         "P. Giannozzi et al., J. Phys.:Condens. Matter 21 395502 (2009);
         "P. Giannozzi et al., J. Phys.:Condens. Matter 29 465901 (2017);
         "P. Giannozzi et al., J. Chem. Phys. 152 154105 (2020);
          URL http://www.quantum-espresso.org", 
     in publications or presentations arising from this work. More details at
     http://www.quantum-espresso.org/quote

     Parallel version (MPI & OpenMP), running on     512 processor cores
     Number of MPI processes:               512
     Threads/MPI process:                     1

     MPI processes distributed on     4 nodes
     233179 MiB available memory on the printing compute node when the environment starts

     Reading input from espresso.pwi
Warning: card &CELL ignored
Warning: card    PRESS_CONV_THR   = 0.1 ignored
Warning: card    CELL_DOFREE      = 'ALL' ignored
Warning: card / ignored
Warning: card &FCP ignored
Warning: card / ignored
Warning: card &RISM ignored
Warning: card / ignored

     Current dimensions of program PWSCF are:
     Max number of different atomic species (ntypx) = 10
     Max number of k-points (npk) =  40000
     Max angular momentum in pseudopotentials (lmaxx) =  4

     IMPORTANT: XC functional enforced from input :
     Exchange-correlation= PBE
                           (   1   4   3   4   0   0   0)
     Any further DFT definition will be discarded
     Please, verify this is what you really want


     Reading input from environ.in:
     * using ionic solvent mode
     * setting boundary derivatives method to SSCS default
     * setting electrolyte-boundary derivatives method to SSCS default

Environ Warning (1001): card EOF ignored

     

     K-points division:     npool     =       2
     R & G space division:  proc/nbgrp/npool/nimage =     256
     Subspace diagonalization in iterative solution of the eigenvalue problem:
     one sub-group per band group will be used
     ELPA distributed-memory algorithm (size of sub-group:  2*  2 procs)


     Parallelization info
     --------------------
     sticks:   dense  smooth     PW     G-vecs:    dense   smooth      PW
     Min          91      36      9                56517    14280    1907
     Max          92      37     10                56562    14325    1964
     Sum       23389    9361   2459             14473305  3661695  495499

     Using Slab Decomposition



     bravais-lattice index     =           12
     lattice parameter (alat)  =      18.3607  a.u.
     unit-cell volume          =   37876.5244 (a.u.)^3
     number of atoms/cell      =           76
     number of atomic types    =            1
     number of electrons       =       228.00
     number of Kohn-Sham states=          171
     kinetic-energy cutoff     =      80.0000  Ry
     charge density cutoff     =     800.0000  Ry
     scf convergence threshold =      1.0E-16
     mixing beta               =       0.2000
     number of iterations used =            8  local-TF  mixing
     Exchange-correlation= PBE
                           (   1   4   3   4   0   0   0)

     ================================================================================

                                  Environ Setup Summary

     ================================================================================

     Please cite

          O. Andreussi, I. Dabo and N. Marzari, J. Chem. Phys. 136, 064102 (2012)
          F. Nattino, M. Truscott, N. Marzari, and O. Andreussi, J. Chem. Phys. 150, 041722 (2019)

     in publications or presentations arising from this work.

     ================================================================================

     Parameters
     ==========

     compensation onset threshold      =               0.1000E+00
     static permittivity               =                    89.90
     surface tension in input (dyn/cm) =                    37.30
     surface tension in internal units =               0.4792E-04

     Solvent Boundary
     ================

     solvent mode                      =                    ionic
     derivatives method                =                   lowmem
     electrolyte derivatives method    =                   lowmem
     numerical core for derivatives    =                      fft
     switching function adopted        =                     SCCS
     density limit for vacuum region   =               0.5000E-02
     density limit for bulk solvent    =               0.1000E-03
     soft-sphere radius mode           =                    bondi
     soft-sphere softness              =                     0.50
     alpha                             =                     1.32

     Electrostatic Setup
     ===================

     electrostatic problem to solve    =                    modpb
     numerical solver adopted          =                   newton
     type of auxiliary density adopted =                     none
     numerical core for poisson        =                      fft
     adopting a nested solver scheme
     inner solver                      =                       cg
     inner core                        =                      fft
     type of pbc corrections           =                parabolic
     numerical core for corrections    =                      1da

     ================================================================================


     >>>>> Grand-Canonical SCF is activated <<<<<
     Initial Total Charge  =     0.000000 e
     Target Fermi Energy   =    -4.904000 eV
     Thr. of Fermi Energy  =     0.001000 eV
     Wave-shift of Kerker  =     0.400000 bohr^-1
     Wave-shift of Hartree =     1.500000 bohr^-1
     Mixing Rate of Fermi  =     0.050000

     celldm(1)=  18.360747  celldm(2)=   1.118034  celldm(3)=   5.615419
     celldm(4)=   0.223607  celldm(5)=   0.000000  celldm(6)=   0.000000

     crystal axes: (cart. coord. in units of alat)
               a(1) = (   1.000000   0.000000   0.000000 )  
               a(2) = (   0.250000   1.089725   0.000000 )  
               a(3) = (   0.000000   0.000000   5.615419 )  

     reciprocal axes: (cart. coord. in units 2 pi/alat)
               b(1) = (  1.000000 -0.229416  0.000000 )  
               b(2) = (  0.000000  0.917663  0.000000 )  
               b(3) = (  0.000000  0.000000  0.178081 )  


     PseudoPot. # 1 for Li read from file:
     /work/e89/e89/ba3g18/Repos/Pseudopotentials/Pslibrary/Li.pbe-sl-kjpaw_psl.1.0.0.UPF
     MD5 check sum: 3f4d2cafebb47c6c3aa8ed472e6f074d
     Pseudo is Projector augmented-wave, Zval =  3.0
     Generated using 'atomic' code by A. Dal Corso  v.7.4
     Shape of augmentation charge: PSQ
     Using radial grid of 1017 points,  4 beta functions with: 
                l(1) =   0
                l(2) =   0
                l(3) =   1
                l(4) =   1
     Q(r) pseudized with 0 coefficients 


     atomic species   valence    mass     pseudopotential
     Li                3.00     6.94000     Li( 1.00)

     No symmetry found


                                    s                        frac. trans.

      isym =  1     identity                                     

 cryst.   s( 1) = (     1          0          0      )
                  (     0          1          0      )
                  (     0          0          1      )

 cart.    s( 1) = (  1.0000000  0.0000000  0.0000000 )
                  (  0.0000000  1.0000000  0.0000000 )
                  (  0.0000000  0.0000000  1.0000000 )


     point group C_1 (1)    
     there are  1 classes
     the character table:

       E    
A      1.00

     the symmetry operations in each class and the name of the first element:

     E        1
          identity                                               

   Cartesian axes

     site n.     atom                  positions (alat units)
         1        Li     tau(   1) = (   0.0010561  -0.1123642   3.5992759  )
         2        Li     tau(   2) = (   0.2488911   0.7744397   2.0690103  )
         3        Li     tau(   3) = (   0.2488373   0.3816473   2.1847404  )
         4        Li     tau(   4) = (   0.2487648   0.0507373   2.3159096  )
         5        Li     tau(   5) = (   0.4988079   0.8076182   2.3148500  )
         6        Li     tau(   6) = (   0.4988330   0.4465442   2.3986963  )
         7        Li     tau(   7) = (   0.4988604   0.1191461   2.4955993  )
         8        Li     tau(   8) = (   0.2492531   0.8522408   2.5854124  )
         9        Li     tau(   9) = (   0.2494376   0.5195376   2.6633830  )
        10        Li     tau(  10) = (   0.2495473   0.1730453   2.7440642  )
        11        Li     tau(  11) = (   0.5002357   0.9105072   2.8392160  )
        12        Li     tau(  12) = (   0.5005176   0.5717033   2.9096297  )
        13        Li     tau(  13) = (   0.5006523   0.2359270   3.0046138  )
        14        Li     tau(  14) = (   0.2508777   0.9914629   3.0500175  )
        15        Li     tau(  15) = (   0.2511953   0.6237102   3.1457247  )
        16        Li     tau(  16) = (   0.2511772   0.2859130   3.2541707  )
        17        Li     tau(  17) = (   0.5012249   1.0372970   3.3077353  )
        18        Li     tau(  18) = (   0.5011926   0.7314894   3.4220903  )
        19        Li     tau(  19) = (   0.5010784   0.3491441   3.5028071  )
        20        Li     tau(  20) = (   0.2487733   0.9701030   2.3076956  )
        21        Li     tau(  21) = (   0.2488248   0.6317504   2.3612703  )
        22        Li     tau(  22) = (   0.2488044   0.2939379   2.4696947  )
        23        Li     tau(  23) = (   0.4991249   1.0159561   2.5653116  )
        24        Li     tau(  24) = (   0.4993542   0.6817563   2.6107969  )
        25        Li     tau(  25) = (   0.4994764   0.3459786   2.7057796  )
        26        Li     tau(  26) = (   0.4997666   0.0071870   2.7761839  )
        27        Li     tau(  27) = (   0.2504515   0.7446213   2.8713346  )
        28        Li     tau(  28) = (   0.2505622   0.3981320   2.9519905  )
        29        Li     tau(  29) = (   0.2507446   0.0654322   3.0299934  )
        30        Li     tau(  30) = (   0.5011378   0.7985234   3.1197757  )
        31        Li     tau(  31) = (   0.5011690   0.4711191   3.2167502  )
        32        Li     tau(  32) = (   0.5011962   0.1100293   3.3005815  )
        33        Li     tau(  33) = (   0.2512357   0.8669229   3.2995155  )
        34        Li     tau(  34) = (   0.2511638   0.5360058   3.4307246  )
        35        Li     tau(  35) = (   0.2511102   0.1431794   3.5464517  )
        36        Li     tau(  36) = (   0.4989401   1.0299913   2.0161484  )
        37        Li     tau(  37) = (   0.4988858   0.5684677   2.1126582  )
        38        Li     tau(  38) = (   0.4988227   0.1861966   2.1933258  )
        39        Li     tau(  39) = (   0.5011026  -0.1123519   3.5992921  )
        40        Li     tau(  40) = (   0.7488781   0.7744059   2.0690280  )
        41        Li     tau(  41) = (   0.7488488   0.3816725   2.1847392  )
        42        Li     tau(  42) = (   0.7487656   0.0507293   2.3159066  )
        43        Li     tau(  43) = (   0.9988063   0.8076267   2.3148520  )
        44        Li     tau(  44) = (   0.9988311   0.4465330   2.3986936  )
        45        Li     tau(  45) = (   0.9988637   0.1191551   2.4955895  )
        46        Li     tau(  46) = (   0.7492579   0.8522490   2.5854206  )
        47        Li     tau(  47) = (   0.7494354   0.5195301   2.6633868  )
        48        Li     tau(  48) = (   0.7495515   0.1730532   2.7440779  )
        49        Li     tau(  49) = (   1.0002304   0.9105057   2.8392101  )
        50        Li     tau(  50) = (   1.0005237   0.5717058   2.9096277  )
        51        Li     tau(  51) = (   1.0006437   0.2359211   3.0046045  )
        52        Li     tau(  52) = (   0.7508667   0.9914586   3.0500202  )
        53        Li     tau(  53) = (   0.7512088   0.6237201   3.1457489  )
        54        Li     tau(  54) = (   0.7511693   0.2859136   3.2541670  )
        55        Li     tau(  55) = (   1.0012359   1.0372926   3.3077619  )
        56        Li     tau(  56) = (   1.0011748   0.7314660   3.4220641  )
        57        Li     tau(  57) = (   1.0011206   0.3491572   3.5028052  )
        58        Li     tau(  58) = (   0.7487667   0.9701050   2.3076896  )
        59        Li     tau(  59) = (   0.7488301   0.6317530   2.3612842  )
        60        Li     tau(  60) = (   0.7487934   0.2939308   2.4696937  )
        61        Li     tau(  61) = (   0.9991305   1.0159658   2.5653160  )
        62        Li     tau(  62) = (   0.9993495   0.6817527   2.6107921  )
        63        Li     tau(  63) = (   0.9994807   0.3459811   2.7057765  )
        64        Li     tau(  64) = (   0.9997648   0.0071792   2.7761744  )
        65        Li     tau(  65) = (   0.7504493   0.7446122   2.8713422  )
        66        Li     tau(  66) = (   0.7505640   0.3981456   2.9520025  )
        67        Li     tau(  67) = (   0.7507422   0.0654187   3.0300065  )
        68        Li     tau(  68) = (   1.0011377   0.7985378   3.1197692  )
        69        Li     tau(  69) = (   1.0011675   0.4711037   3.2167448  )
        70        Li     tau(  70) = (   1.0011908   0.1100374   3.3005761  )
        71        Li     tau(  71) = (   0.7512362   0.8669418   3.2995245  )
        72        Li     tau(  72) = (   0.7511508   0.5359728   3.4307462  )
        73        Li     tau(  73) = (   0.7511196   0.1432284   3.5464464  )
        74        Li     tau(  74) = (   0.9989009   1.0299777   2.0161461  )
        75        Li     tau(  75) = (   0.9989146   0.5684853   2.1126616  )
        76        Li     tau(  76) = (   0.9988105   0.1861795   2.1933000  )

   Crystallographic axes

     site n.     atom                  positions (cryst. coord.)
         1        Li     tau(   1) = (  0.0268342 -0.1031124  0.6409630  )
         2        Li     tau(   2) = (  0.0712225  0.7106745  0.3684516  )
         3        Li     tau(   3) = (  0.1612814  0.3502235  0.3890610  )
         4        Li     tau(   4) = (  0.2371249  0.0465597  0.4124197  )
         5        Li     tau(   5) = (  0.3135277  0.7411211  0.4122310  )
         6        Li     tau(   6) = (  0.3963888  0.4097770  0.4271625  )
         7        Li     tau(   7) = (  0.4715265  0.1093359  0.4444191  )
         8        Li     tau(   8) = (  0.0537357  0.7820696  0.4604131  )
         9        Li     tau(   9) = (  0.1302475  0.4767603  0.4742982  )
        10        Li     tau(  10) = (  0.2098480  0.1587972  0.4886660  )
        11        Li     tau(  11) = (  0.2913510  0.8355385  0.5056107  )
        12        Li     tau(  12) = (  0.3693599  0.5246308  0.5181501  )
        13        Li     tau(  13) = (  0.4465270  0.2165014  0.5350649  )
        14        Li     tau(  14) = (  0.0234206  0.9098285  0.5431505  )
        15        Li     tau(  15) = (  0.1081064  0.5723556  0.5601941  )
        16        Li     tau(  16) = (  0.1855843  0.2623717  0.5795063  )
        17        Li     tau(  17) = (  0.2632527  0.9518888  0.5890451  )
        18        Li     tau(  18) = (  0.3333775  0.6712605  0.6094096  )
        19        Li     tau(  19) = (  0.4209792  0.3203965  0.6237837  )
        20        Li     tau(  20) = (  0.0262164  0.8902274  0.4109570  )
        21        Li     tau(  21) = (  0.1038914  0.5797338  0.4204976  )
        22        Li     tau(  22) = (  0.1813705  0.2697358  0.4398059  )
        23        Li     tau(  23) = (  0.2660486  0.9323050  0.4568335  )
        24        Li     tau(  24) = (  0.3429486  0.6256223  0.4649336  )
        25        Li     tau(  25) = (  0.4201035  0.3174916  0.4818482  )
        26        Li     tau(  26) = (  0.4981178  0.0065952  0.4943859  )
        27        Li     tau(  27) = (  0.0796238  0.6833112  0.5113304  )
        28        Li     tau(  28) = (  0.1592244  0.3653508  0.5256937  )
        29        Li     tau(  29) = (  0.2357334  0.0600447  0.5395846  )
        30        Li     tau(  30) = (  0.3179440  0.7327751  0.5555731  )
        31        Li     tau(  31) = (  0.3930869  0.4323285  0.5728424  )
        32        Li     tau(  32) = (  0.4759537  0.1009697  0.5877712  )
        33        Li     tau(  33) = (  0.0523500  0.7955428  0.5875814  )
        34        Li     tau(  34) = (  0.1281956  0.4918725  0.6109472  )
        35        Li     tau(  35) = (  0.2182626  0.1313904  0.6315560  )
        36        Li     tau(  36) = (  0.2626439  0.9451846  0.3590379  )
        37        Li     tau(  37) = (  0.3684704  0.5216616  0.3762245  )
        38        Li     tau(  38) = (  0.4561063  0.1708657  0.3905899  )
        39        Li     tau(  39) = (  0.5268779 -0.1031012  0.6409659  )
        40        Li     tau(  40) = (  0.5712173  0.7106434  0.3684548  )
        41        Li     tau(  41) = (  0.6612871  0.3502466  0.3890608  )
        42        Li     tau(  42) = (  0.7371275  0.0465524  0.4124192  )
        43        Li     tau(  43) = (  0.8135240  0.7411289  0.4122314  )
        44        Li     tau(  44) = (  0.8963894  0.4097667  0.4271620  )
        45        Li     tau(  45) = (  0.9715276  0.1093442  0.4444173  )
        46        Li     tau(  46) = (  0.5537386  0.7820771  0.4604145  )
        47        Li     tau(  47) = (  0.6302470  0.4767534  0.4742989  )
        48        Li     tau(  48) = (  0.7098504  0.1588045  0.4886684  )
        49        Li     tau(  49) = (  0.7913462  0.8355371  0.5056097  )
        50        Li     tau(  50) = (  0.8693654  0.5246331  0.5181497  )
        51        Li     tau(  51) = (  0.9465197  0.2164960  0.5350633  )
        52        Li     tau(  52) = (  0.5234106  0.9098246  0.5431509  )
        53        Li     tau(  53) = (  0.6081176  0.5723647  0.5601984  )
        54        Li     tau(  54) = (  0.6855763  0.2623722  0.5795056  )
        55        Li     tau(  55) = (  0.7632647  0.9518848  0.5890499  )
        56        Li     tau(  56) = (  0.8333651  0.6712391  0.6094049  )
        57        Li     tau(  57) = (  0.9210185  0.3204085  0.6237834  )
        58        Li     tau(  58) = (  0.5262094  0.8902292  0.4109559  )
        59        Li     tau(  59) = (  0.6038961  0.5797361  0.4205001  )
        60        Li     tau(  60) = (  0.6813611  0.2697293  0.4398058  )
        61        Li     tau(  61) = (  0.7660520  0.9323139  0.4568343  )
        62        Li     tau(  62) = (  0.8429448  0.6256190  0.4649327  )
        63        Li     tau(  63) = (  0.9201073  0.3174939  0.4818477  )
        64        Li     tau(  64) = (  0.9981178  0.0065881  0.4943842  )
        65        Li     tau(  65) = (  0.5796236  0.6833028  0.5113318  )
        66        Li     tau(  66) = (  0.6592232  0.3653633  0.5256959  )
        67        Li     tau(  67) = (  0.7357341  0.0600323  0.5395869  )
        68        Li     tau(  68) = (  0.8179406  0.7327883  0.5555719  )
        69        Li     tau(  69) = (  0.8930889  0.4323143  0.5728415  )
        70        Li     tau(  70) = (  0.9759465  0.1009772  0.5877702  )
        71        Li     tau(  71) = (  0.5523461  0.7955601  0.5875829  )
        72        Li     tau(  72) = (  0.6281902  0.4918423  0.6109511  )
        73        Li     tau(  73) = (  0.7182608  0.1314354  0.6315551  )
        74        Li     tau(  74) = (  0.7626079  0.9451721  0.3590375  )
        75        Li     tau(  75) = (  0.8684951  0.5216778  0.3762251  )
        76        Li     tau(  76) = (  0.9560980  0.1708500  0.3905853  )

     number of k points=    22  Marzari-Vanderbilt smearing, width (Ry)=  0.0100
                       cart. coord. in units 2pi/alat
        k(    1) = (   0.0000000   0.0000000   0.0000000), wk =   0.0476190
        k(    2) = (   0.0000000   0.1529438   0.0000000), wk =   0.0952381
        k(    3) = (   0.0000000   0.3058876   0.0000000), wk =   0.0952381
        k(    4) = (   0.0000000  -0.4588314   0.0000000), wk =   0.0476190
        k(    5) = (   0.1428571  -0.0327737   0.0000000), wk =   0.0952381
        k(    6) = (   0.1428571   0.1201701   0.0000000), wk =   0.0952381
        k(    7) = (   0.1428571   0.2731139   0.0000000), wk =   0.0952381
        k(    8) = (   0.1428571  -0.4916050   0.0000000), wk =   0.0952381
        k(    9) = (   0.1428571  -0.3386612   0.0000000), wk =   0.0952381
        k(   10) = (   0.1428571  -0.1857175   0.0000000), wk =   0.0952381
        k(   11) = (   0.2857143  -0.0655473   0.0000000), wk =   0.0952381
        k(   12) = (   0.2857143   0.0873964   0.0000000), wk =   0.0952381
        k(   13) = (   0.2857143   0.2403402   0.0000000), wk =   0.0952381
        k(   14) = (   0.2857143  -0.5243787   0.0000000), wk =   0.0952381
        k(   15) = (   0.2857143  -0.3714349   0.0000000), wk =   0.0952381
        k(   16) = (   0.2857143  -0.2184911   0.0000000), wk =   0.0952381
        k(   17) = (   0.4285714  -0.0983210   0.0000000), wk =   0.0952381
        k(   18) = (   0.4285714   0.0546228   0.0000000), wk =   0.0952381
        k(   19) = (   0.4285714   0.2075666   0.0000000), wk =   0.0952381
        k(   20) = (   0.4285714  -0.5571524   0.0000000), wk =   0.0952381
        k(   21) = (   0.4285714  -0.4042086   0.0000000), wk =   0.0952381
        k(   22) = (   0.4285714  -0.2512648   0.0000000), wk =   0.0952381

                       cryst. coord.
        k(    1) = (   0.0000000   0.0000000   0.0000000), wk =   0.0476190
        k(    2) = (   0.0000000   0.1666667   0.0000000), wk =   0.0952381
        k(    3) = (   0.0000000   0.3333333   0.0000000), wk =   0.0952381
        k(    4) = (   0.0000000  -0.5000000   0.0000000), wk =   0.0476190
        k(    5) = (   0.1428571   0.0000000   0.0000000), wk =   0.0952381
        k(    6) = (   0.1428571   0.1666667   0.0000000), wk =   0.0952381
        k(    7) = (   0.1428571   0.3333333   0.0000000), wk =   0.0952381
        k(    8) = (   0.1428571  -0.5000000   0.0000000), wk =   0.0952381
        k(    9) = (   0.1428571  -0.3333333   0.0000000), wk =   0.0952381
        k(   10) = (   0.1428571  -0.1666667   0.0000000), wk =   0.0952381
        k(   11) = (   0.2857143   0.0000000   0.0000000), wk =   0.0952381
        k(   12) = (   0.2857143   0.1666667   0.0000000), wk =   0.0952381
        k(   13) = (   0.2857143   0.3333333   0.0000000), wk =   0.0952381
        k(   14) = (   0.2857143  -0.5000000   0.0000000), wk =   0.0952381
        k(   15) = (   0.2857143  -0.3333333   0.0000000), wk =   0.0952381
        k(   16) = (   0.2857143  -0.1666667   0.0000000), wk =   0.0952381
        k(   17) = (   0.4285714   0.0000000   0.0000000), wk =   0.0952381
        k(   18) = (   0.4285714   0.1666667   0.0000000), wk =   0.0952381
        k(   19) = (   0.4285714   0.3333333   0.0000000), wk =   0.0952381
        k(   20) = (   0.4285714  -0.5000000   0.0000000), wk =   0.0952381
        k(   21) = (   0.4285714  -0.3333333   0.0000000), wk =   0.0952381
        k(   22) = (   0.4285714  -0.1666667   0.0000000), wk =   0.0952381

     Dense  grid: 14473305 G-vectors     FFT dimensions: ( 180, 192, 960)

     Smooth grid:  3661695 G-vectors     FFT dimensions: ( 108, 120, 600)

     Dynamical RAM for                 wfc:       4.66 MB

     Dynamical RAM for     wfc (w. buffer):      55.95 MB

     Dynamical RAM for           str. fact:       0.86 MB

     Dynamical RAM for           local pot:       0.00 MB

     Dynamical RAM for          nlocal pot:      16.58 MB

     Dynamical RAM for                qrad:       0.65 MB

     Dynamical RAM for          rho,v,vnew:       5.75 MB

     Dynamical RAM for               rhoin:       1.92 MB

     Dynamical RAM for            rho*nmix:      13.80 MB

     Dynamical RAM for           G-vectors:       3.34 MB

     Dynamical RAM for          h,s,v(r/c):       5.35 MB

     Dynamical RAM for          <psi|beta>:       1.59 MB

     Dynamical RAM for                 psi:      18.65 MB

     Dynamical RAM for                hpsi:      18.65 MB

     Dynamical RAM for                spsi:      18.65 MB

     Dynamical RAM for      wfcinit/wfcrot:      10.00 MB

     Dynamical RAM for           addusdens:      51.75 MB

     Dynamical RAM for          addusforce:     116.51 MB

     Estimated static dynamical RAM per process >      92.05 MB

     Estimated max dynamical RAM per process >     222.36 MB

     Estimated total dynamical RAM >     107.73 GB

     Initial potential from superposition of free atoms

     starting charge     227.6497, renormalised to     228.0000

     negative rho (up, down):  6.188E-03 0.000E+00
     Starting wfcs are random
     Checking if some PAW data can be deallocated... 

     total cpu time spent up to now is       51.6 secs

     Self-consistent Calculation

     iteration #  1     ecut=    80.00 Ry     beta= 0.20
     Davidson diagonalization with overlap

---- Real-time Memory Report at c_bands before calling an iterative solver
          1418 MiB given to the printing process from OS
             0 MiB allocation reported by mallinfo(arena+hblkhd)
        210418 MiB available memory on the node where the printing process lives
------------------
     c_bands:  1 eigenvalues not converged
     c_bands:  1 eigenvalues not converged
     ethr =  1.00E-12,  avg # of iterations =133.9

     negative rho (up, down):  4.588E-03 0.000E+00

     total cpu time spent up to now is      762.8 secs

     total energy              =   -1142.63917493 Ry
     estimated scf accuracy    <       0.21027246 Ry

     total charge of GC-SCF    =       0.21359883 e
     the Fermi energy          =      -4.27599815 eV
                        (error :       0.62800185 eV)
     electrostatic embedding   =       0.00000000 Ry
     cavitation energy         =       0.04435275 Ry
     electrolyte free energy   =       0.01630252 Ry
     correction to one-el term =      -0.00000000 Ry

     iteration #  2     ecut=    80.00 Ry     beta= 0.20
     Davidson diagonalization with overlap

---- Real-time Memory Report at c_bands before calling an iterative solver
          1418 MiB given to the printing process from OS
             0 MiB allocation reported by mallinfo(arena+hblkhd)
        207091 MiB available memory on the node where the printing process lives
------------------
     ethr =  1.00E-05,  avg # of iterations = 13.0

     negative rho (up, down):  3.540E-03 0.000E+00

     total cpu time spent up to now is      836.0 secs

     total energy              =   -1143.13559371 Ry
     estimated scf accuracy    <       0.10310749 Ry

     total charge of GC-SCF    =       0.36620922 e
     the Fermi energy          =      -3.66294837 eV
                        (error :       1.24105163 eV)
     electrostatic embedding   =       0.00201968 Ry
     cavitation energy         =       0.04435275 Ry
     electrolyte free energy   =       0.01630252 Ry
     correction to one-el term =      -0.00000000 Ry

     iteration #  3     ecut=    80.00 Ry     beta= 0.20
     Davidson diagonalization with overlap

---- Real-time Memory Report at c_bands before calling an iterative solver
          1418 MiB given to the printing process from OS
             0 MiB allocation reported by mallinfo(arena+hblkhd)
        206796 MiB available memory on the node where the printing process lives
------------------
     ethr =  1.00E-05,  avg # of iterations = 11.4

     negative rho (up, down):  2.640E-03 0.000E+00

     add environment contribution to local potential

     total cpu time spent up to now is      913.1 secs

     total energy              =   -1142.89281007 Ry
     estimated scf accuracy    <       0.05427530 Ry

     total charge of GC-SCF    =       0.80701009 e
     the Fermi energy          =      -3.88144553 eV
                        (error :       1.02255447 eV)
     electrostatic embedding   =       0.00346269 Ry
     cavitation energy         =       0.04435275 Ry
     electrolyte free energy   =       0.01630252 Ry
     correction to one-el term =      -0.00000000 Ry

     iteration #  4     ecut=    80.00 Ry     beta= 0.20
     Davidson diagonalization with overlap

---- Real-time Memory Report at c_bands before calling an iterative solver
          1418 MiB given to the printing process from OS
             0 MiB allocation reported by mallinfo(arena+hblkhd)
        206848 MiB available memory on the node where the printing process lives
------------------
     ethr =  1.00E-05,  avg # of iterations = 38.0

     negative rho (up, down):  2.197E-03 0.000E+00

     add environment contribution to local potential

     total cpu time spent up to now is     1071.2 secs

     total energy              =   -1143.33304881 Ry
     estimated scf accuracy    <       0.01570769 Ry

     total charge of GC-SCF    =       0.96264695 e
     the Fermi energy          =      -2.98971202 eV
                        (error :       1.91428798 eV)
     electrostatic embedding   =      -0.06131183 Ry
     cavitation energy         =       0.04435275 Ry
     electrolyte free energy   =      -0.00615004 Ry
     correction to one-el term =     -23.17204382 Ry

     iteration #  5     ecut=    80.00 Ry     beta= 0.20
     Davidson diagonalization with overlap

---- Real-time Memory Report at c_bands before calling an iterative solver
          1418 MiB given to the printing process from OS
             0 MiB allocation reported by mallinfo(arena+hblkhd)
        206527 MiB available memory on the node where the printing process lives
------------------
     ethr =  6.92E-06,  avg # of iterations = 16.7

     negative rho (up, down):  1.797E-03 0.000E+00

     add environment contribution to local potential

     total cpu time spent up to now is     1174.1 secs

     total energy              =   -1142.92875809 Ry
     estimated scf accuracy    <       0.01512275 Ry

     total charge of GC-SCF    =       2.04449270 e
     the Fermi energy          =      -3.25645138 eV
                        (error :       1.64754862 eV)
     electrostatic embedding   =      -0.07330381 Ry
     cavitation energy         =       0.04435275 Ry
     electrolyte free energy   =      -0.00957758 Ry
     correction to one-el term =     -27.41256834 Ry

     iteration #  6     ecut=    80.00 Ry     beta= 0.20
     Davidson diagonalization with overlap

---- Real-time Memory Report at c_bands before calling an iterative solver
          1418 MiB given to the printing process from OS
             0 MiB allocation reported by mallinfo(arena+hblkhd)
        206627 MiB available memory on the node where the printing process lives
------------------
     ethr =  6.69E-06,  avg # of iterations = 16.6

     negative rho (up, down):  1.537E-03 0.000E+00

     add environment contribution to local potential

     total cpu time spent up to now is     1284.7 secs

     total energy              =   -1143.08688120 Ry
     estimated scf accuracy    <       0.01512331 Ry

     total charge of GC-SCF    =       2.96333596 e
     the Fermi energy          =      -3.37432444 eV
                        (error :       1.52967556 eV)
     electrostatic embedding   =      -0.29479817 Ry
     cavitation energy         =       0.04435275 Ry
     electrolyte free energy   =      -0.01298978 Ry
     correction to one-el term =     -59.57060462 Ry

     iteration #  7     ecut=    80.00 Ry     beta= 0.20
     Davidson diagonalization with overlap

---- Real-time Memory Report at c_bands before calling an iterative solver
          1418 MiB given to the printing process from OS
             0 MiB allocation reported by mallinfo(arena+hblkhd)
        206511 MiB available memory on the node where the printing process lives
------------------
     ethr =  6.69E-06,  avg # of iterations = 18.6

     negative rho (up, down):  7.174E-02 0.000E+00

     add environment contribution to local potential

     total cpu time spent up to now is     1405.3 secs

     total energy              =   -1143.19210277 Ry
     estimated scf accuracy    <       0.00737548 Ry

     total charge of GC-SCF    =       4.19739871 e
     the Fermi energy          =      -3.22094255 eV
                        (error :       1.68305745 eV)
     electrostatic embedding   =      -0.65793150 Ry
     cavitation energy         =       0.04435275 Ry
     electrolyte free energy   =      -0.01585616 Ry
     correction to one-el term =     -88.40165772 Ry

     iteration #  8     ecut=    80.00 Ry     beta= 0.20
     Davidson diagonalization with overlap

---- Real-time Memory Report at c_bands before calling an iterative solver
          1418 MiB given to the printing process from OS
             0 MiB allocation reported by mallinfo(arena+hblkhd)
        206507 MiB available memory on the node where the printing process lives
------------------
     ethr =  3.30E-06,  avg # of iterations = 24.1

     negative rho (up, down):  7.485E-02 0.000E+00

     add environment contribution to local potential

     total cpu time spent up to now is     1546.1 secs

     total energy              =   -1143.57959198 Ry
     estimated scf accuracy    <       0.00650845 Ry

     total charge of GC-SCF    =       4.37297766 e
     the Fermi energy          =      -3.51550448 eV
                        (error :       1.38849552 eV)
     electrostatic embedding   =      -1.35232007 Ry
     cavitation energy         =       0.04435275 Ry
     electrolyte free energy   =      -0.02895450 Ry
     correction to one-el term =    -125.00609095 Ry

     iteration #  9     ecut=    80.00 Ry     beta= 0.20
     Davidson diagonalization with overlap

---- Real-time Memory Report at c_bands before calling an iterative solver
          1418 MiB given to the printing process from OS
             0 MiB allocation reported by mallinfo(arena+hblkhd)
        206127 MiB available memory on the node where the printing process lives
------------------
     ethr =  2.91E-06,  avg # of iterations = 18.2

     negative rho (up, down):  1.627E-01 0.000E+00

     add environment contribution to local potential

     total cpu time spent up to now is     1645.7 secs

     total energy              =   -1143.35065842 Ry
     estimated scf accuracy    <       0.00590283 Ry

     total charge of GC-SCF    =       5.22431057 e
     the Fermi energy          =      -3.60341018 eV
                        (error :       1.30058982 eV)
     electrostatic embedding   =      -1.47183279 Ry
     cavitation energy         =       0.04435275 Ry
     electrolyte free energy   =      -0.03193347 Ry
     correction to one-el term =    -130.48278303 Ry

     iteration # 10     ecut=    80.00 Ry     beta= 0.20
     Davidson diagonalization with overlap

---- Real-time Memory Report at c_bands before calling an iterative solver
          1418 MiB given to the printing process from OS
             0 MiB allocation reported by mallinfo(arena+hblkhd)
        206255 MiB available memory on the node where the printing process lives
------------------
     ethr =  2.65E-06,  avg # of iterations = 21.4

     negative rho (up, down):  5.438E-02 0.000E+00

     add environment contribution to local potential

     total cpu time spent up to now is     1787.0 secs

     total energy              =   -1143.60216752 Ry
     estimated scf accuracy    <       0.00422853 Ry

     total charge of GC-SCF    =       5.05505661 e
     the Fermi energy          =      -3.98777561 eV
                        (error :       0.91622439 eV)
     electrostatic embedding   =      -2.12366629 Ry
     cavitation energy         =       0.04435275 Ry
     electrolyte free energy   =      -0.04599374 Ry
     correction to one-el term =    -156.30310482 Ry

     iteration # 11     ecut=    80.00 Ry     beta= 0.20
     Davidson diagonalization with overlap

---- Real-time Memory Report at c_bands before calling an iterative solver
          1418 MiB given to the printing process from OS
             0 MiB allocation reported by mallinfo(arena+hblkhd)
        205930 MiB available memory on the node where the printing process lives
------------------
     ethr =  1.90E-06,  avg # of iterations = 20.2

     negative rho (up, down):  1.290E-02 0.000E+00

     add environment contribution to local potential

     total cpu time spent up to now is     1908.2 secs

     total energy              =   -1143.41529427 Ry
     estimated scf accuracy    <       0.00307765 Ry

     total charge of GC-SCF    =       5.62568083 e
     the Fermi energy          =      -4.05408391 eV
                        (error :       0.84991609 eV)
     electrostatic embedding   =      -1.98477791 Ry
     cavitation energy         =       0.04435275 Ry
     electrolyte free energy   =      -0.04395311 Ry
     correction to one-el term =    -152.15875227 Ry

     iteration # 12     ecut=    80.00 Ry     beta= 0.20
     Davidson diagonalization with overlap

---- Real-time Memory Report at c_bands before calling an iterative solver
          1418 MiB given to the printing process from OS
             0 MiB allocation reported by mallinfo(arena+hblkhd)
        206041 MiB available memory on the node where the printing process lives
------------------
     ethr =  1.38E-06,  avg # of iterations = 14.5

     negative rho (up, down):  6.610E-02 0.000E+00

     add environment contribution to local potential

     total cpu time spent up to now is     2027.1 secs

     total energy              =   -1143.43697289 Ry
     estimated scf accuracy    <       0.00235503 Ry

     total charge of GC-SCF    =       6.48894564 e
     the Fermi energy          =      -4.21451353 eV
                        (error :       0.68948647 eV)
     electrostatic embedding   =      -2.53563801 Ry
     cavitation energy         =       0.04435275 Ry
     electrolyte free energy   =      -0.05404445 Ry
     correction to one-el term =    -172.85178152 Ry

     iteration # 13     ecut=    80.00 Ry     beta= 0.20
     Davidson diagonalization with overlap

---- Real-time Memory Report at c_bands before calling an iterative solver
          1418 MiB given to the printing process from OS
             0 MiB allocation reported by mallinfo(arena+hblkhd)
        205940 MiB available memory on the node where the printing process lives
------------------
     ethr =  1.06E-06,  avg # of iterations = 36.5

     negative rho (up, down):  5.283E-02 0.000E+00

     add environment contribution to local potential

     total cpu time spent up to now is     2209.2 secs

     total energy              =   -1143.49156056 Ry
     estimated scf accuracy    <       0.00090027 Ry

     total charge of GC-SCF    =       6.46755393 e
     the Fermi energy          =      -4.74053600 eV
                        (error :       0.16346400 eV)
     electrostatic embedding   =      -3.39746092 Ry
     cavitation energy         =       0.04435275 Ry
     electrolyte free energy   =      -0.07173924 Ry
     correction to one-el term =    -199.06831729 Ry

     iteration # 14     ecut=    80.00 Ry     beta= 0.20
     Davidson diagonalization with overlap

---- Real-time Memory Report at c_bands before calling an iterative solver
          1418 MiB given to the printing process from OS
             0 MiB allocation reported by mallinfo(arena+hblkhd)
        205845 MiB available memory on the node where the printing process lives
------------------
     ethr =  4.06E-07,  avg # of iterations = 13.8

     negative rho (up, down):  4.822E-02 0.000E+00

     add environment contribution to local potential

     total cpu time spent up to now is     2296.0 secs

     total energy              =   -1143.48993548 Ry
     estimated scf accuracy    <       0.00075960 Ry

     total charge of GC-SCF    =       6.45809723 e
     the Fermi energy          =      -4.77778821 eV
                        (error :       0.12621179 eV)
     electrostatic embedding   =      -3.37498889 Ry
     cavitation energy         =       0.04435275 Ry
     electrolyte free energy   =      -0.07130104 Ry
     correction to one-el term =    -198.65921551 Ry

     iteration # 15     ecut=    80.00 Ry     beta= 0.20
     Davidson diagonalization with overlap

---- Real-time Memory Report at c_bands before calling an iterative solver
          1418 MiB given to the printing process from OS
             0 MiB allocation reported by mallinfo(arena+hblkhd)
        205972 MiB available memory on the node where the printing process lives
------------------
     ethr =  3.43E-07,  avg # of iterations =  2.7

     negative rho (up, down):  1.261E-02 0.000E+00

     add environment contribution to local potential

     total cpu time spent up to now is     2348.5 secs

     total energy              =   -1143.48961057 Ry
     estimated scf accuracy    <       0.00070692 Ry

     total charge of GC-SCF    =       6.38291265 e
     the Fermi energy          =      -4.78755943 eV
                        (error :       0.11644057 eV)
     electrostatic embedding   =      -3.36429386 Ry
     cavitation energy         =       0.04435275 Ry
     electrolyte free energy   =      -0.07109682 Ry
     correction to one-el term =    -198.40462854 Ry

     iteration # 16     ecut=    80.00 Ry     beta= 0.20
     Davidson diagonalization with overlap

---- Real-time Memory Report at c_bands before calling an iterative solver
          1418 MiB given to the printing process from OS
             0 MiB allocation reported by mallinfo(arena+hblkhd)
        205972 MiB available memory on the node where the printing process lives
------------------
     ethr =  3.19E-07,  avg # of iterations = 12.4

     negative rho (up, down):  2.109E-03 0.000E+00

     add environment contribution to local potential

     total cpu time spent up to now is     2440.4 secs

     total energy              =   -1143.48482265 Ry
     estimated scf accuracy    <       0.00028834 Ry

     total charge of GC-SCF    =       6.39907343 e
     the Fermi energy          =      -4.82801759 eV
                        (error :       0.07598241 eV)
     electrostatic embedding   =      -3.28143637 Ry
     cavitation energy         =       0.04435275 Ry
     electrolyte free energy   =      -0.06945755 Ry
     correction to one-el term =    -196.15036407 Ry

     iteration # 17     ecut=    80.00 Ry     beta= 0.20
     Davidson diagonalization with overlap

---- Real-time Memory Report at c_bands before calling an iterative solver
          1418 MiB given to the printing process from OS
             0 MiB allocation reported by mallinfo(arena+hblkhd)
        206037 MiB available memory on the node where the printing process lives
------------------
     ethr =  1.30E-07,  avg # of iterations = 11.8

     negative rho (up, down):  1.442E-03 0.000E+00

     add environment contribution to local potential

     total cpu time spent up to now is     2532.4 secs

     total energy              =   -1143.48402258 Ry
     estimated scf accuracy    <       0.00014405 Ry

     total charge of GC-SCF    =       6.41790259 e
     the Fermi energy          =      -4.90345537 eV
                        (error :       0.00054463 eV)
     electrostatic embedding   =      -3.30139027 Ry
     cavitation energy         =       0.04435275 Ry
     electrolyte free energy   =      -0.06989362 Ry
     correction to one-el term =    -196.90679967 Ry

     iteration # 18     ecut=    80.00 Ry     beta= 0.20
     Davidson diagonalization with overlap

---- Real-time Memory Report at c_bands before calling an iterative solver
          1418 MiB given to the printing process from OS
             0 MiB allocation reported by mallinfo(arena+hblkhd)
        205990 MiB available memory on the node where the printing process lives
------------------
     ethr =  6.50E-08,  avg # of iterations = 11.7

     negative rho (up, down):  1.733E-03 0.000E+00

     add environment contribution to local potential

     total cpu time spent up to now is     2619.6 secs

     total energy              =   -1143.48402600 Ry
     estimated scf accuracy    <       0.00011256 Ry

     total charge of GC-SCF    =       6.44260519 e
     the Fermi energy          =      -4.92815550 eV
                        (error :       0.02415550 eV)
     electrostatic embedding   =      -3.32054384 Ry
     cavitation energy         =       0.04435275 Ry
     electrolyte free energy   =      -0.07032240 Ry
     correction to one-el term =    -197.44244101 Ry

     iteration # 19     ecut=    80.00 Ry     beta= 0.20
     Davidson diagonalization with overlap

---- Real-time Memory Report at c_bands before calling an iterative solver
          1418 MiB given to the printing process from OS
             0 MiB allocation reported by mallinfo(arena+hblkhd)
        206000 MiB available memory on the node where the printing process lives
------------------
     ethr =  5.08E-08,  avg # of iterations = 12.0

     negative rho (up, down):  1.137E-03 0.000E+00

     add environment contribution to local potential

     total cpu time spent up to now is     2718.2 secs

     total energy              =   -1143.48335907 Ry
     estimated scf accuracy    <       0.00005304 Ry

     total charge of GC-SCF    =       6.34185894 e
     the Fermi energy          =      -4.94121144 eV
                        (error :       0.03721144 eV)
     electrostatic embedding   =      -3.34507201 Ry
     cavitation energy         =       0.04435275 Ry
     electrolyte free energy   =      -0.07086371 Ry
     correction to one-el term =    -198.04744852 Ry

     iteration # 20     ecut=    80.00 Ry     beta= 0.20
     Davidson diagonalization with overlap

---- Real-time Memory Report at c_bands before calling an iterative solver
          1418 MiB given to the printing process from OS
             0 MiB allocation reported by mallinfo(arena+hblkhd)
        205914 MiB available memory on the node where the printing process lives
------------------
     ethr =  2.39E-08,  avg # of iterations = 26.4

     negative rho (up, down):  1.151E-03 0.000E+00

     add environment contribution to local potential

     total cpu time spent up to now is     2854.9 secs

     total energy              =   -1143.48438087 Ry
     estimated scf accuracy    <       0.00002862 Ry

     total charge of GC-SCF    =       6.33389088 e
     the Fermi energy          =      -4.91884787 eV
                        (error :       0.01484787 eV)
     electrostatic embedding   =      -3.23459961 Ry
     cavitation energy         =       0.04435275 Ry
     electrolyte free energy   =      -0.06861519 Ry
     correction to one-el term =    -194.92047267 Ry

     iteration # 21     ecut=    80.00 Ry     beta= 0.20
     Davidson diagonalization with overlap

---- Real-time Memory Report at c_bands before calling an iterative solver
          1418 MiB given to the printing process from OS
             0 MiB allocation reported by mallinfo(arena+hblkhd)
        205699 MiB available memory on the node where the printing process lives
------------------
     ethr =  1.29E-08,  avg # of iterations = 10.9

     negative rho (up, down):  1.175E-03 0.000E+00

     add environment contribution to local potential

     total cpu time spent up to now is     2934.0 secs

     total energy              =   -1143.48477809 Ry
     estimated scf accuracy    <       0.00002166 Ry

     total charge of GC-SCF    =       6.37031431 e
     the Fermi energy          =      -4.91570712 eV
                        (error :       0.01170712 eV)
     electrostatic embedding   =      -3.22532687 Ry
     cavitation energy         =       0.04435275 Ry
     electrolyte free energy   =      -0.06843456 Ry
     correction to one-el term =    -194.63671810 Ry

     iteration # 22     ecut=    80.00 Ry     beta= 0.20
     Davidson diagonalization with overlap

---- Real-time Memory Report at c_bands before calling an iterative solver
          1418 MiB given to the printing process from OS
             0 MiB allocation reported by mallinfo(arena+hblkhd)
        205800 MiB available memory on the node where the printing process lives
------------------
     ethr =  9.77E-09,  avg # of iterations = 14.2

     negative rho (up, down):  1.029E-03 0.000E+00

     add environment contribution to local potential

     total cpu time spent up to now is     3045.1 secs

     total energy              =   -1143.48410737 Ry
     estimated scf accuracy    <       0.00001305 Ry

     total charge of GC-SCF    =       6.34740643 e
     the Fermi energy          =      -4.92888466 eV
                        (error :       0.02488466 eV)
     electrostatic embedding   =      -3.26377828 Ry
     cavitation energy         =       0.04435275 Ry
     electrolyte free energy   =      -0.06923574 Ry
     correction to one-el term =    -195.73590161 Ry

     iteration # 23     ecut=    80.00 Ry     beta= 0.20
     Davidson diagonalization with overlap

---- Real-time Memory Report at c_bands before calling an iterative solver
          1418 MiB given to the printing process from OS
             0 MiB allocation reported by mallinfo(arena+hblkhd)
        205821 MiB available memory on the node where the printing process lives
------------------
     ethr =  5.89E-09,  avg # of iterations = 11.8

     negative rho (up, down):  1.108E-03 0.000E+00

     add environment contribution to local potential

     total cpu time spent up to now is     3140.1 secs

     total energy              =   -1143.48444219 Ry
     estimated scf accuracy    <       0.00000619 Ry

     total charge of GC-SCF    =       6.33746188 e
     the Fermi energy          =      -4.91773617 eV
                        (error :       0.01373617 eV)
     electrostatic embedding   =      -3.23948283 Ry
     cavitation energy         =       0.04435275 Ry
     electrolyte free energy   =      -0.06872921 Ry
     correction to one-el term =    -195.04271950 Ry

     iteration # 24     ecut=    80.00 Ry     beta= 0.20
     Davidson diagonalization with overlap

---- Real-time Memory Report at c_bands before calling an iterative solver
          1418 MiB given to the printing process from OS
             0 MiB allocation reported by mallinfo(arena+hblkhd)
        205901 MiB available memory on the node where the printing process lives
------------------
     ethr =  2.79E-09,  avg # of iterations = 11.1

     negative rho (up, down):  8.882E-04 0.000E+00

     add environment contribution to local potential

     total cpu time spent up to now is     3238.2 secs

     total energy              =   -1143.48467945 Ry
     estimated scf accuracy    <       0.00000275 Ry

     total charge of GC-SCF    =       6.33623016 e
     the Fermi energy          =      -4.90790199 eV
                        (error :       0.00390199 eV)
     electrostatic embedding   =      -3.22929949 Ry
     cavitation energy         =       0.04435275 Ry
     electrolyte free energy   =      -0.06850788 Ry
     correction to one-el term =    -194.74124714 Ry

     iteration # 25     ecut=    80.00 Ry     beta= 0.20
     Davidson diagonalization with overlap

---- Real-time Memory Report at c_bands before calling an iterative solver
          1418 MiB given to the printing process from OS
             0 MiB allocation reported by mallinfo(arena+hblkhd)
        205857 MiB available memory on the node where the printing process lives
------------------
     ethr =  1.24E-09,  avg # of iterations = 12.6

     negative rho (up, down):  8.564E-04 0.000E+00

     add environment contribution to local potential

     total cpu time spent up to now is     3335.9 secs

     total energy              =   -1143.48472647 Ry
     estimated scf accuracy    <       0.00000136 Ry

     total charge of GC-SCF    =       6.33952365 e
     the Fermi energy          =      -4.90543373 eV
                        (error :       0.00143373 eV)
     electrostatic embedding   =      -3.22814290 Ry
     cavitation energy         =       0.04435275 Ry
     electrolyte free energy   =      -0.06847981 Ry
     correction to one-el term =    -194.70147693 Ry

     iteration # 26     ecut=    80.00 Ry     beta= 0.20
     Davidson diagonalization with overlap

---- Real-time Memory Report at c_bands before calling an iterative solver
          1418 MiB given to the printing process from OS
             0 MiB allocation reported by mallinfo(arena+hblkhd)
        205913 MiB available memory on the node where the printing process lives
------------------
     ethr =  6.13E-10,  avg # of iterations = 11.8

     negative rho (up, down):  8.569E-04 0.000E+00

     add environment contribution to local potential

     total cpu time spent up to now is     3428.7 secs

     total energy              =   -1143.48471605 Ry
     estimated scf accuracy    <       0.00000078 Ry

     total charge of GC-SCF    =       6.33314711 e
     the Fermi energy          =      -4.90578126 eV
                        (error :       0.00178126 eV)
     electrostatic embedding   =      -3.23169849 Ry
     cavitation energy         =       0.04435275 Ry
     electrolyte free energy   =      -0.06855193 Ry
     correction to one-el term =    -194.80330069 Ry

     iteration # 27     ecut=    80.00 Ry     beta= 0.20
     Davidson diagonalization with overlap

---- Real-time Memory Report at c_bands before calling an iterative solver
          1418 MiB given to the printing process from OS
             0 MiB allocation reported by mallinfo(arena+hblkhd)
        205908 MiB available memory on the node where the printing process lives
------------------
     ethr =  3.50E-10,  avg # of iterations = 13.4

     negative rho (up, down):  8.681E-04 0.000E+00

     add environment contribution to local potential

     total cpu time spent up to now is     3540.0 secs

     total energy              =   -1143.48477724 Ry
     estimated scf accuracy    <       0.00000040 Ry

     total charge of GC-SCF    =       6.33478942 e
     the Fermi energy          =      -4.90280365 eV
                        (error :       0.00119635 eV)
     electrostatic embedding   =      -3.22490796 Ry
     cavitation energy         =       0.04435275 Ry
     electrolyte free energy   =      -0.06841176 Ry
     correction to one-el term =    -194.61157317 Ry

     iteration # 28     ecut=    80.00 Ry     beta= 0.20
     Davidson diagonalization with overlap

---- Real-time Memory Report at c_bands before calling an iterative solver
          1418 MiB given to the printing process from OS
             0 MiB allocation reported by mallinfo(arena+hblkhd)
        205746 MiB available memory on the node where the printing process lives
------------------
     ethr =  1.80E-10,  avg # of iterations =  9.5

     negative rho (up, down):  8.952E-04 0.000E+00

     add environment contribution to local potential

     total cpu time spent up to now is     3614.5 secs

     total energy              =   -1143.48476482 Ry
     estimated scf accuracy    <       0.00000035 Ry

     total charge of GC-SCF    =       6.34085482 e
     the Fermi energy          =      -4.90334401 eV
                        (error :       0.00065599 eV)
     electrostatic embedding   =      -3.22665246 Ry
     cavitation energy         =       0.04435275 Ry
     electrolyte free energy   =      -0.06844774 Ry
     correction to one-el term =    -194.66226914 Ry

     iteration # 29     ecut=    80.00 Ry     beta= 0.20
     Davidson diagonalization with overlap

---- Real-time Memory Report at c_bands before calling an iterative solver
          1418 MiB given to the printing process from OS
             0 MiB allocation reported by mallinfo(arena+hblkhd)
        205790 MiB available memory on the node where the printing process lives
------------------
     ethr =  1.57E-10,  avg # of iterations = 12.8

     negative rho (up, down):  9.001E-04 0.000E+00

     add environment contribution to local potential

     total cpu time spent up to now is     3723.2 secs

     total energy              =   -1143.48470006 Ry
     estimated scf accuracy    <       0.00000022 Ry

     total charge of GC-SCF    =       6.33774180 e
     the Fermi energy          =      -4.90616407 eV
                        (error :       0.00216407 eV)
     electrostatic embedding   =      -3.23308885 Ry
     cavitation energy         =       0.04435275 Ry
     electrolyte free energy   =      -0.06858131 Ry
     correction to one-el term =    -194.84797465 Ry

     iteration # 30     ecut=    80.00 Ry     beta= 0.20
     Davidson diagonalization with overlap

---- Real-time Memory Report at c_bands before calling an iterative solver
          1418 MiB given to the printing process from OS
             0 MiB allocation reported by mallinfo(arena+hblkhd)
        205629 MiB available memory on the node where the printing process lives
------------------
     ethr =  9.92E-11,  avg # of iterations = 13.0

     negative rho (up, down):  8.890E-04 0.000E+00

     add environment contribution to local potential

     total cpu time spent up to now is     3832.0 secs

     total energy              =   -1143.48472322 Ry
     estimated scf accuracy    <       0.00000009 Ry

     total charge of GC-SCF    =       6.33597494 e
     the Fermi energy          =      -4.90511498 eV
                        (error :       0.00111498 eV)
     electrostatic embedding   =      -3.22979533 Ry
     cavitation energy         =       0.04435275 Ry
     electrolyte free energy   =      -0.06851307 Ry
     correction to one-el term =    -194.75370745 Ry

     iteration # 31     ecut=    80.00 Ry     beta= 0.20
     Davidson diagonalization with overlap

---- Real-time Memory Report at c_bands before calling an iterative solver
          1418 MiB given to the printing process from OS
             0 MiB allocation reported by mallinfo(arena+hblkhd)
        205694 MiB available memory on the node where the printing process lives
------------------
     ethr =  4.03E-11,  avg # of iterations = 12.4

     negative rho (up, down):  8.781E-04 0.000E+00

     add environment contribution to local potential

     total cpu time spent up to now is     3932.0 secs

     total energy              =   -1143.48474225 Ry
     estimated scf accuracy    <       0.00000006 Ry

     total charge of GC-SCF    =       6.33583938 e
     the Fermi energy          =      -4.90414671 eV
                        (error :       0.00014671 eV)
     electrostatic embedding   =      -3.22793446 Ry
     cavitation energy         =       0.04435275 Ry
     electrolyte free energy   =      -0.06847411 Ry
     correction to one-el term =    -194.69991301 Ry

     iteration # 32     ecut=    80.00 Ry     beta= 0.20
     Davidson diagonalization with overlap

---- Real-time Memory Report at c_bands before calling an iterative solver
          1418 MiB given to the printing process from OS
             0 MiB allocation reported by mallinfo(arena+hblkhd)
        205821 MiB available memory on the node where the printing process lives
------------------
     ethr =  2.50E-11,  avg # of iterations =  8.6

     negative rho (up, down):  8.655E-04 0.000E+00

     add environment contribution to local potential

     total cpu time spent up to now is     4008.5 secs

     total energy              =   -1143.48474875 Ry
     estimated scf accuracy    <       0.00000004 Ry

     total charge of GC-SCF    =       6.33604196 e
     the Fermi energy          =      -4.90378099 eV
                        (error :       0.00021901 eV)
     electrostatic embedding   =      -3.22780776 Ry
     cavitation energy         =       0.04435275 Ry
     electrolyte free energy   =      -0.06847097 Ry
     correction to one-el term =    -194.69576448 Ry

     iteration # 33     ecut=    80.00 Ry     beta= 0.20
     Davidson diagonalization with overlap

---- Real-time Memory Report at c_bands before calling an iterative solver
          1418 MiB given to the printing process from OS
             0 MiB allocation reported by mallinfo(arena+hblkhd)
        205859 MiB available memory on the node where the printing process lives
------------------
     ethr =  1.58E-11,  avg # of iterations = 12.5

     negative rho (up, down):  8.629E-04 0.000E+00

     add environment contribution to local potential

     total cpu time spent up to now is     4104.4 secs

     total energy              =   -1143.48474373 Ry
     estimated scf accuracy    <       0.00000002 Ry

     total charge of GC-SCF    =       6.33610977 e
     the Fermi energy          =      -4.90402384 eV
                        (error :       0.00002384 eV)
     electrostatic embedding   =      -3.22800685 Ry
     cavitation energy         =       0.04435275 Ry
     electrolyte free energy   =      -0.06847552 Ry
     correction to one-el term =    -194.70189006 Ry

     iteration # 34     ecut=    80.00 Ry     beta= 0.20
     Davidson diagonalization with overlap

---- Real-time Memory Report at c_bands before calling an iterative solver
          1418 MiB given to the printing process from OS
             0 MiB allocation reported by mallinfo(arena+hblkhd)
        205930 MiB available memory on the node where the printing process lives
------------------
     ethr =  8.13E-12,  avg # of iterations =  9.4

     negative rho (up, down):  8.621E-04 0.000E+00

     add environment contribution to local potential

     total cpu time spent up to now is     4184.1 secs

     total energy              =   -1143.48474281 Ry
     estimated scf accuracy    <       0.00000001 Ry

     total charge of GC-SCF    =       6.33593892 e
     the Fermi energy          =      -4.90407956 eV
                        (error :       0.00007956 eV)
     electrostatic embedding   =      -3.22807493 Ry
     cavitation energy         =       0.04435275 Ry
     electrolyte free energy   =      -0.06847702 Ry
     correction to one-el term =    -194.70401318 Ry

     iteration # 35     ecut=    80.00 Ry     beta= 0.20
     Davidson diagonalization with overlap

---- Real-time Memory Report at c_bands before calling an iterative solver
          1418 MiB given to the printing process from OS
             0 MiB allocation reported by mallinfo(arena+hblkhd)
        205939 MiB available memory on the node where the printing process lives
------------------
     ethr =  5.25E-12,  avg # of iterations =  7.0

     negative rho (up, down):  8.636E-04 0.000E+00

     add environment contribution to local potential

     total cpu time spent up to now is     4254.8 secs

     total energy              =   -1143.48474592 Ry
     estimated scf accuracy    <          8.2E-09 Ry

     total charge of GC-SCF    =       6.33629231 e
     the Fermi energy          =      -4.90391734 eV
                        (error :       0.00008266 eV)
     electrostatic embedding   =      -3.22790402 Ry
     cavitation energy         =       0.04435275 Ry
     electrolyte free energy   =      -0.06847323 Ry
     correction to one-el term =    -194.69899599 Ry

     iteration # 36     ecut=    80.00 Ry     beta= 0.20
     Davidson diagonalization with overlap

---- Real-time Memory Report at c_bands before calling an iterative solver
          1418 MiB given to the printing process from OS
             0 MiB allocation reported by mallinfo(arena+hblkhd)
        205861 MiB available memory on the node where the printing process lives
------------------
     ethr =  3.72E-12,  avg # of iterations = 11.2

     negative rho (up, down):  8.662E-04 0.000E+00

     add environment contribution to local potential

     total cpu time spent up to now is     4346.6 secs

     total energy              =   -1143.48474427 Ry
     estimated scf accuracy    <          4.8E-09 Ry

     total charge of GC-SCF    =       6.33679030 e
     the Fermi energy          =      -4.90398954 eV
                        (error :       0.00001046 eV)
     electrostatic embedding   =      -3.22828778 Ry
     cavitation energy         =       0.04435275 Ry
     electrolyte free energy   =      -0.06848096 Ry
     correction to one-el term =    -194.70973503 Ry

     iteration # 37     ecut=    80.00 Ry     beta= 0.20
     Davidson diagonalization with overlap

---- Real-time Memory Report at c_bands before calling an iterative solver
          1418 MiB given to the printing process from OS
             0 MiB allocation reported by mallinfo(arena+hblkhd)
        205897 MiB available memory on the node where the printing process lives
------------------
     ethr =  2.15E-12,  avg # of iterations = 12.0

     negative rho (up, down):  8.664E-04 0.000E+00

     add environment contribution to local potential

     total cpu time spent up to now is     4448.3 secs

     total energy              =   -1143.48473743 Ry
     estimated scf accuracy    <          2.5E-09 Ry

     total charge of GC-SCF    =       6.33684715 e
     the Fermi energy          =      -4.90429681 eV
                        (error :       0.00029681 eV)
     electrostatic embedding   =      -3.22881387 Ry
     cavitation energy         =       0.04435275 Ry
     electrolyte free energy   =      -0.06849196 Ry
     correction to one-el term =    -194.72498087 Ry

     iteration # 38     ecut=    80.00 Ry     beta= 0.20
     Davidson diagonalization with overlap

---- Real-time Memory Report at c_bands before calling an iterative solver
          1418 MiB given to the printing process from OS
             0 MiB allocation reported by mallinfo(arena+hblkhd)
        205849 MiB available memory on the node where the printing process lives
------------------
     ethr =  1.14E-12,  avg # of iterations =  5.7

     negative rho (up, down):  8.657E-04 0.000E+00

     add environment contribution to local potential

     total cpu time spent up to now is     4510.7 secs

     total energy              =   -1143.48473657 Ry
     estimated scf accuracy    <          2.1E-09 Ry

     total charge of GC-SCF    =       6.33682057 e
     the Fermi energy          =      -4.90433371 eV
                        (error :       0.00033371 eV)
     electrostatic embedding   =      -3.22887600 Ry
     cavitation energy         =       0.04435275 Ry
     electrolyte free energy   =      -0.06849323 Ry
     correction to one-el term =    -194.72679384 Ry

     iteration # 39     ecut=    80.00 Ry     beta= 0.20
     Davidson diagonalization with overlap

---- Real-time Memory Report at c_bands before calling an iterative solver
          1418 MiB given to the printing process from OS
             0 MiB allocation reported by mallinfo(arena+hblkhd)
        205854 MiB available memory on the node where the printing process lives
------------------
     ethr =  9.51E-13,  avg # of iterations = 10.6

     negative rho (up, down):  8.643E-04 0.000E+00

     add environment contribution to local potential

     total cpu time spent up to now is     4599.1 secs

     total energy              =   -1143.48473663 Ry
     estimated scf accuracy    <          1.6E-09 Ry

     total charge of GC-SCF    =       6.33692431 e
     the Fermi energy          =      -4.90432749 eV
                        (error :       0.00032749 eV)
     electrostatic embedding   =      -3.22885390 Ry
     cavitation energy         =       0.04435275 Ry
     electrolyte free energy   =      -0.06849268 Ry
     correction to one-el term =    -194.72623953 Ry

     iteration # 40     ecut=    80.00 Ry     beta= 0.20
     Davidson diagonalization with overlap

---- Real-time Memory Report at c_bands before calling an iterative solver
          1418 MiB given to the printing process from OS
             0 MiB allocation reported by mallinfo(arena+hblkhd)
        205925 MiB available memory on the node where the printing process lives
------------------
     ethr =  7.01E-13,  avg # of iterations = 11.4

     negative rho (up, down):  8.630E-04 0.000E+00

     add environment contribution to local potential

     total cpu time spent up to now is     4685.2 secs

     total energy              =   -1143.48473638 Ry
     estimated scf accuracy    <          1.2E-09 Ry

     total charge of GC-SCF    =       6.33692867 e
     the Fermi energy          =      -4.90433787 eV
                        (error :       0.00033787 eV)
     electrostatic embedding   =      -3.22896874 Ry
     cavitation energy         =       0.04435275 Ry
     electrolyte free energy   =      -0.06849496 Ry
     correction to one-el term =    -194.72951422 Ry

     iteration # 41     ecut=    80.00 Ry     beta= 0.20
     Davidson diagonalization with overlap

---- Real-time Memory Report at c_bands before calling an iterative solver
          1418 MiB given to the printing process from OS
             0 MiB allocation reported by mallinfo(arena+hblkhd)
        205968 MiB available memory on the node where the printing process lives
------------------
     ethr =  5.28E-13,  avg # of iterations = 10.0

     negative rho (up, down):  8.609E-04 0.000E+00

     add environment contribution to local potential

     total cpu time spent up to now is     4765.3 secs

     total energy              =   -1143.48473632 Ry
     estimated scf accuracy    <          8.6E-10 Ry

     total charge of GC-SCF    =       6.33664098 e
     the Fermi energy          =      -4.90434941 eV
                        (error :       0.00034941 eV)
     electrostatic embedding   =      -3.22897173 Ry
     cavitation energy         =       0.04435275 Ry
     electrolyte free energy   =      -0.06849506 Ry
     correction to one-el term =    -194.72959147 Ry

     iteration # 42     ecut=    80.00 Ry     beta= 0.20
     Davidson diagonalization with overlap

---- Real-time Memory Report at c_bands before calling an iterative solver
          1418 MiB given to the printing process from OS
             0 MiB allocation reported by mallinfo(arena+hblkhd)
        205962 MiB available memory on the node where the printing process lives
------------------
     ethr =  3.90E-13,  avg # of iterations = 12.6

     negative rho (up, down):  8.605E-04 0.000E+00

     add environment contribution to local potential

     total cpu time spent up to now is     4869.7 secs

     total energy              =   -1143.48473755 Ry
     estimated scf accuracy    <          4.0E-10 Ry

     total charge of GC-SCF    =       6.33645783 e
     the Fermi energy          =      -4.90431525 eV
                        (error :       0.00031525 eV)
     electrostatic embedding   =      -3.22865734 Ry
     cavitation energy         =       0.04435275 Ry
     electrolyte free energy   =      -0.06848877 Ry
     correction to one-el term =    -194.72063737 Ry

     iteration # 43     ecut=    80.00 Ry     beta= 0.20
     Davidson diagonalization with overlap

---- Real-time Memory Report at c_bands before calling an iterative solver
          1418 MiB given to the printing process from OS
             0 MiB allocation reported by mallinfo(arena+hblkhd)
        205835 MiB available memory on the node where the printing process lives
------------------
     ethr =  1.82E-13,  avg # of iterations = 13.6

     negative rho (up, down):  8.605E-04 0.000E+00

     add environment contribution to local potential

     total cpu time spent up to now is     4982.4 secs

     total energy              =   -1143.48473921 Ry
     estimated scf accuracy    <          3.3E-10 Ry

     total charge of GC-SCF    =       6.33634461 e
     the Fermi energy          =      -4.90423938 eV
                        (error :       0.00023938 eV)
     electrostatic embedding   =      -3.22846196 Ry
     cavitation energy         =       0.04435275 Ry
     electrolyte free energy   =      -0.06848474 Ry
     correction to one-el term =    -194.71500093 Ry

     iteration # 44     ecut=    80.00 Ry     beta= 0.20
     Davidson diagonalization with overlap

---- Real-time Memory Report at c_bands before calling an iterative solver
          1418 MiB given to the printing process from OS
             0 MiB allocation reported by mallinfo(arena+hblkhd)
        205718 MiB available memory on the node where the printing process lives
------------------
     ethr =  1.49E-13,  avg # of iterations = 12.6

     negative rho (up, down):  8.605E-04 0.000E+00

     add environment contribution to local potential

     total cpu time spent up to now is     5082.1 secs

     total energy              =   -1143.48474076 Ry
     estimated scf accuracy    <          2.8E-10 Ry

     total charge of GC-SCF    =       6.33615082 e
     the Fermi energy          =      -4.90416593 eV
                        (error :       0.00016593 eV)
     electrostatic embedding   =      -3.22834245 Ry
     cavitation energy         =       0.04435275 Ry
     electrolyte free energy   =      -0.06848223 Ry
     correction to one-el term =    -194.71150530 Ry

     iteration # 45     ecut=    80.00 Ry     beta= 0.20
     Davidson diagonalization with overlap

---- Real-time Memory Report at c_bands before calling an iterative solver
          1418 MiB given to the printing process from OS
             0 MiB allocation reported by mallinfo(arena+hblkhd)
        205879 MiB available memory on the node where the printing process lives
------------------
     ethr =  1.25E-13,  avg # of iterations = 16.3

     negative rho (up, down):  8.606E-04 0.000E+00

     add environment contribution to local potential

     total cpu time spent up to now is     5194.3 secs

     total energy              =   -1143.48474319 Ry
     estimated scf accuracy    <          1.5E-10 Ry

     total charge of GC-SCF    =       6.33607347 e
     the Fermi energy          =      -4.90405529 eV
                        (error :       0.00005529 eV)
     electrostatic embedding   =      -3.22813470 Ry
     cavitation energy         =       0.04435275 Ry
     electrolyte free energy   =      -0.06847793 Ry
     correction to one-el term =    -194.70544337 Ry

     iteration # 46     ecut=    80.00 Ry     beta= 0.20
     Davidson diagonalization with overlap

---- Real-time Memory Report at c_bands before calling an iterative solver
          1418 MiB given to the printing process from OS
             0 MiB allocation reported by mallinfo(arena+hblkhd)
        205670 MiB available memory on the node where the printing process lives
------------------
     ethr =  1.00E-13,  avg # of iterations = 12.8

     negative rho (up, down):  8.609E-04 0.000E+00

     add environment contribution to local potential

     total cpu time spent up to now is     5290.1 secs

     total energy              =   -1143.48474404 Ry
     estimated scf accuracy    <          8.4E-11 Ry

     total charge of GC-SCF    =       6.33605901 e
     the Fermi energy          =      -4.90401876 eV
                        (error :       0.00001876 eV)
     electrostatic embedding   =      -3.22804991 Ry
     cavitation energy         =       0.04435275 Ry
     electrolyte free energy   =      -0.06847621 Ry
     correction to one-el term =    -194.70295527 Ry

     iteration # 47     ecut=    80.00 Ry     beta= 0.20
     Davidson diagonalization with overlap

---- Real-time Memory Report at c_bands before calling an iterative solver
          1418 MiB given to the printing process from OS
             0 MiB allocation reported by mallinfo(arena+hblkhd)
        205810 MiB available memory on the node where the printing process lives
------------------
     ethr =  1.00E-13,  avg # of iterations =  4.0

     negative rho (up, down):  8.609E-04 0.000E+00

     add environment contribution to local potential

     total cpu time spent up to now is     5351.2 secs

     total energy              =   -1143.48474406 Ry
     estimated scf accuracy    <          2.8E-11 Ry

     total charge of GC-SCF    =       6.33604033 e
     the Fermi energy          =      -4.90402227 eV
                        (error :       0.00002227 eV)
     electrostatic embedding   =      -3.22803145 Ry
     cavitation energy         =       0.04435275 Ry
     electrolyte free energy   =      -0.06847588 Ry
     correction to one-el term =    -194.70237339 Ry

     iteration # 48     ecut=    80.00 Ry     beta= 0.20
     Davidson diagonalization with overlap

---- Real-time Memory Report at c_bands before calling an iterative solver
          1418 MiB given to the printing process from OS
             0 MiB allocation reported by mallinfo(arena+hblkhd)
        205784 MiB available memory on the node where the printing process lives
------------------
     ethr =  1.00E-13,  avg # of iterations =  8.7

     negative rho (up, down):  8.608E-04 0.000E+00

     add environment contribution to local potential

     total cpu time spent up to now is     5421.8 secs

     total energy              =   -1143.48474424 Ry
     estimated scf accuracy    <          2.0E-11 Ry

     total charge of GC-SCF    =       6.33601584 e
     the Fermi energy          =      -4.90401363 eV
                        (error :       0.00001363 eV)
     electrostatic embedding   =      -3.22801164 Ry
     cavitation energy         =       0.04435275 Ry
     electrolyte free energy   =      -0.06847547 Ry
     correction to one-el term =    -194.70179421 Ry

     iteration # 49     ecut=    80.00 Ry     beta= 0.20
     Davidson diagonalization with overlap

---- Real-time Memory Report at c_bands before calling an iterative solver
          1418 MiB given to the printing process from OS
             0 MiB allocation reported by mallinfo(arena+hblkhd)
        205832 MiB available memory on the node where the printing process lives
------------------
     ethr =  1.00E-13,  avg # of iterations =  9.3

     negative rho (up, down):  8.608E-04 0.000E+00

     add environment contribution to local potential

     total cpu time spent up to now is     5494.0 secs

     total energy              =   -1143.48474458 Ry
     estimated scf accuracy    <          1.3E-11 Ry

     total charge of GC-SCF    =       6.33601528 e
     the Fermi energy          =      -4.90399693 eV
                        (error :       0.00000307 eV)
     electrostatic embedding   =      -3.22798630 Ry
     cavitation energy         =       0.04435275 Ry
     electrolyte free energy   =      -0.06847493 Ry
     correction to one-el term =    -194.70105408 Ry

     iteration # 50     ecut=    80.00 Ry     beta= 0.20
     Davidson diagonalization with overlap

---- Real-time Memory Report at c_bands before calling an iterative solver
          1418 MiB given to the printing process from OS
             0 MiB allocation reported by mallinfo(arena+hblkhd)
        205801 MiB available memory on the node where the printing process lives
------------------
     ethr =  1.00E-13,  avg # of iterations =  4.2

     negative rho (up, down):  8.608E-04 0.000E+00

     add environment contribution to local potential

     total cpu time spent up to now is     5551.0 secs

     total energy              =   -1143.48474460 Ry
     estimated scf accuracy    <          7.7E-12 Ry

     total charge of GC-SCF    =       6.33600932 e
     the Fermi energy          =      -4.90399568 eV
                        (error :       0.00000432 eV)
     electrostatic embedding   =      -3.22798587 Ry
     cavitation energy         =       0.04435275 Ry
     electrolyte free energy   =      -0.06847491 Ry
     correction to one-el term =    -194.70104162 Ry

     iteration # 51     ecut=    80.00 Ry     beta= 0.20
     Davidson diagonalization with overlap

---- Real-time Memory Report at c_bands before calling an iterative solver
          1418 MiB given to the printing process from OS
             0 MiB allocation reported by mallinfo(arena+hblkhd)
        205757 MiB available memory on the node where the printing process lives
------------------
     ethr =  1.00E-13,  avg # of iterations =  3.1

     negative rho (up, down):  8.608E-04 0.000E+00

[...]
     atom   18 type  1   force =     0.00000000    0.00000000    0.00000000
     atom   19 type  1   force =     0.00000000    0.00000000    0.00000000
     atom   20 type  1   force =     0.00000000    0.00000000    0.00000000
     atom   21 type  1   force =     0.00000000    0.00000000    0.00000000
     atom   22 type  1   force =     0.00000000    0.00000000    0.00000000
     atom   23 type  1   force =     0.00000000    0.00000000    0.00000000
     atom   24 type  1   force =     0.00000000    0.00000000    0.00000000
     atom   25 type  1   force =     0.00000000    0.00000000    0.00000000
     atom   26 type  1   force =     0.00000000    0.00000000    0.00000000
     atom   27 type  1   force =     0.00000000    0.00000000    0.00000000
     atom   28 type  1   force =     0.00000000    0.00000000    0.00000000
     atom   29 type  1   force =     0.00000000    0.00000000    0.00000000
     atom   30 type  1   force =     0.00000000    0.00000000    0.00000000
     atom   31 type  1   force =     0.00000000    0.00000000    0.00000000
     atom   32 type  1   force =     0.00000000    0.00000000    0.00000000
     atom   33 type  1   force =     0.00000000    0.00000000    0.00000000
     atom   34 type  1   force =     0.00000000    0.00000000    0.00000000
     atom   35 type  1   force =     0.00000000    0.00000000    0.00000000
     atom   36 type  1   force =     0.00000000    0.00000000    0.00000000
     atom   37 type  1   force =     0.00000000    0.00000000    0.00000000
     atom   38 type  1   force =     0.00000000    0.00000000    0.00000000
     atom   39 type  1   force =     0.00000000    0.00000000    0.00000000
     atom   40 type  1   force =     0.00000000    0.00000000    0.00000000
     atom   41 type  1   force =     0.00000000    0.00000000    0.00000000
     atom   42 type  1   force =     0.00000000    0.00000000    0.00000000
     atom   43 type  1   force =     0.00000000    0.00000000    0.00000000
     atom   44 type  1   force =     0.00000000    0.00000000    0.00000000
     atom   45 type  1   force =     0.00000000    0.00000000    0.00000000
     atom   46 type  1   force =     0.00000000    0.00000000    0.00000000
     atom   47 type  1   force =     0.00000000    0.00000000    0.00000000
     atom   48 type  1   force =     0.00000000    0.00000000    0.00000000
     atom   49 type  1   force =     0.00000000    0.00000000    0.00000000
     atom   50 type  1   force =     0.00000000    0.00000000    0.00000000
     atom   51 type  1   force =     0.00000000    0.00000000    0.00000000
     atom   52 type  1   force =     0.00000000    0.00000000    0.00000000
     atom   53 type  1   force =     0.00000000    0.00000000    0.00000000
     atom   54 type  1   force =     0.00000000    0.00000000    0.00000000
     atom   55 type  1   force =     0.00000000    0.00000000    0.00000000
     atom   56 type  1   force =     0.00000000    0.00000000    0.00000000
     atom   57 type  1   force =     0.00000000    0.00000000    0.00000000
     atom   58 type  1   force =     0.00000000    0.00000000    0.00000000
     atom   59 type  1   force =     0.00000000    0.00000000    0.00000000
     atom   60 type  1   force =     0.00000000    0.00000000    0.00000000
     atom   61 type  1   force =     0.00000000    0.00000000    0.00000000
     atom   62 type  1   force =     0.00000000    0.00000000    0.00000000
     atom   63 type  1   force =     0.00000000    0.00000000    0.00000000
     atom   64 type  1   force =     0.00000000    0.00000000    0.00000000
     atom   65 type  1   force =     0.00000000    0.00000000    0.00000000
     atom   66 type  1   force =     0.00000000    0.00000000    0.00000000
     atom   67 type  1   force =     0.00000000    0.00000000    0.00000000
     atom   68 type  1   force =     0.00000000    0.00000000    0.00000000
     atom   69 type  1   force =     0.00000000    0.00000000    0.00000000
     atom   70 type  1   force =     0.00000000    0.00000000    0.00000000
     atom   71 type  1   force =     0.00000000    0.00000000    0.00000000
     atom   72 type  1   force =     0.00000000    0.00000000    0.00000000
     atom   73 type  1   force =     0.00000000    0.00000000    0.00000000
     atom   74 type  1   force =     0.00000000    0.00000000    0.00000000
     atom   75 type  1   force =     0.00000000    0.00000000    0.00000000
     atom   76 type  1   force =     0.00000000    0.00000000    0.00000000
     The Hubbard contrib.    to forces
     atom    1 type  1   force =     0.00000000    0.00000000    0.00000000
     atom    2 type  1   force =     0.00000000    0.00000000    0.00000000
     atom    3 type  1   force =     0.00000000    0.00000000    0.00000000
     atom    4 type  1   force =     0.00000000    0.00000000    0.00000000
     atom    5 type  1   force =     0.00000000    0.00000000    0.00000000
     atom    6 type  1   force =     0.00000000    0.00000000    0.00000000
     atom    7 type  1   force =     0.00000000    0.00000000    0.00000000
     atom    8 type  1   force =     0.00000000    0.00000000    0.00000000
     atom    9 type  1   force =     0.00000000    0.00000000    0.00000000
     atom   10 type  1   force =     0.00000000    0.00000000    0.00000000
     atom   11 type  1   force =     0.00000000    0.00000000    0.00000000
     atom   12 type  1   force =     0.00000000    0.00000000    0.00000000
     atom   13 type  1   force =     0.00000000    0.00000000    0.00000000
     atom   14 type  1   force =     0.00000000    0.00000000    0.00000000
     atom   15 type  1   force =     0.00000000    0.00000000    0.00000000
     atom   16 type  1   force =     0.00000000    0.00000000    0.00000000
     atom   17 type  1   force =     0.00000000    0.00000000    0.00000000
     atom   18 type  1   force =     0.00000000    0.00000000    0.00000000
     atom   19 type  1   force =     0.00000000    0.00000000    0.00000000
     atom   20 type  1   force =     0.00000000    0.00000000    0.00000000
     atom   21 type  1   force =     0.00000000    0.00000000    0.00000000
     atom   22 type  1   force =     0.00000000    0.00000000    0.00000000
     atom   23 type  1   force =     0.00000000    0.00000000    0.00000000
     atom   24 type  1   force =     0.00000000    0.00000000    0.00000000
     atom   25 type  1   force =     0.00000000    0.00000000    0.00000000
     atom   26 type  1   force =     0.00000000    0.00000000    0.00000000
     atom   27 type  1   force =     0.00000000    0.00000000    0.00000000
     atom   28 type  1   force =     0.00000000    0.00000000    0.00000000
     atom   29 type  1   force =     0.00000000    0.00000000    0.00000000
     atom   30 type  1   force =     0.00000000    0.00000000    0.00000000
     atom   31 type  1   force =     0.00000000    0.00000000    0.00000000
     atom   32 type  1   force =     0.00000000    0.00000000    0.00000000
     atom   33 type  1   force =     0.00000000    0.00000000    0.00000000
     atom   34 type  1   force =     0.00000000    0.00000000    0.00000000
     atom   35 type  1   force =     0.00000000    0.00000000    0.00000000
     atom   36 type  1   force =     0.00000000    0.00000000    0.00000000
     atom   37 type  1   force =     0.00000000    0.00000000    0.00000000
     atom   38 type  1   force =     0.00000000    0.00000000    0.00000000
     atom   39 type  1   force =     0.00000000    0.00000000    0.00000000
     atom   40 type  1   force =     0.00000000    0.00000000    0.00000000
     atom   41 type  1   force =     0.00000000    0.00000000    0.00000000
     atom   42 type  1   force =     0.00000000    0.00000000    0.00000000
     atom   43 type  1   force =     0.00000000    0.00000000    0.00000000
     atom   44 type  1   force =     0.00000000    0.00000000    0.00000000
     atom   45 type  1   force =     0.00000000    0.00000000    0.00000000
     atom   46 type  1   force =     0.00000000    0.00000000    0.00000000
     atom   47 type  1   force =     0.00000000    0.00000000    0.00000000
     atom   48 type  1   force =     0.00000000    0.00000000    0.00000000
     atom   49 type  1   force =     0.00000000    0.00000000    0.00000000
     atom   50 type  1   force =     0.00000000    0.00000000    0.00000000
     atom   51 type  1   force =     0.00000000    0.00000000    0.00000000
     atom   52 type  1   force =     0.00000000    0.00000000    0.00000000
     atom   53 type  1   force =     0.00000000    0.00000000    0.00000000
     atom   54 type  1   force =     0.00000000    0.00000000    0.00000000
     atom   55 type  1   force =     0.00000000    0.00000000    0.00000000
     atom   56 type  1   force =     0.00000000    0.00000000    0.00000000
     atom   57 type  1   force =     0.00000000    0.00000000    0.00000000
     atom   58 type  1   force =     0.00000000    0.00000000    0.00000000
     atom   59 type  1   force =     0.00000000    0.00000000    0.00000000
     atom   60 type  1   force =     0.00000000    0.00000000    0.00000000
     atom   61 type  1   force =     0.00000000    0.00000000    0.00000000
     atom   62 type  1   force =     0.00000000    0.00000000    0.00000000
     atom   63 type  1   force =     0.00000000    0.00000000    0.00000000
     atom   64 type  1   force =     0.00000000    0.00000000    0.00000000
     atom   65 type  1   force =     0.00000000    0.00000000    0.00000000
     atom   66 type  1   force =     0.00000000    0.00000000    0.00000000
     atom   67 type  1   force =     0.00000000    0.00000000    0.00000000
     atom   68 type  1   force =     0.00000000    0.00000000    0.00000000
     atom   69 type  1   force =     0.00000000    0.00000000    0.00000000
     atom   70 type  1   force =     0.00000000    0.00000000    0.00000000
     atom   71 type  1   force =     0.00000000    0.00000000    0.00000000
     atom   72 type  1   force =     0.00000000    0.00000000    0.00000000
     atom   73 type  1   force =     0.00000000    0.00000000    0.00000000
     atom   74 type  1   force =     0.00000000    0.00000000    0.00000000
     atom   75 type  1   force =     0.00000000    0.00000000    0.00000000
     atom   76 type  1   force =     0.00000000    0.00000000    0.00000000
     The SCF correction term to forces
     atom    1 type  1   force =     0.00000000   -0.00000000   -0.00000000
     atom    2 type  1   force =    -0.00000000   -0.00000000    0.00000000
     atom    3 type  1   force =     0.00000000    0.00000000    0.00000000
     atom    4 type  1   force =    -0.00000000    0.00000000    0.00000000
     atom    5 type  1   force =     0.00000000   -0.00000000    0.00000000
     atom    6 type  1   force =    -0.00000000    0.00000000    0.00000000
     atom    7 type  1   force =     0.00000000   -0.00000000    0.00000000
     atom    8 type  1   force =    -0.00000000    0.00000000   -0.00000000
     atom    9 type  1   force =     0.00000000    0.00000000   -0.00000000
     atom   10 type  1   force =     0.00000000   -0.00000000   -0.00000000
     atom   11 type  1   force =    -0.00000000    0.00000000    0.00000000
     atom   12 type  1   force =    -0.00000000    0.00000000    0.00000000
     atom   13 type  1   force =     0.00000000    0.00000000    0.00000001
     atom   14 type  1   force =    -0.00000000    0.00000000   -0.00000000
     atom   15 type  1   force =    -0.00000000   -0.00000000    0.00000000
     atom   16 type  1   force =     0.00000000    0.00000000   -0.00000000
     atom   17 type  1   force =     0.00000000    0.00000000   -0.00000000
     atom   18 type  1   force =    -0.00000000   -0.00000000    0.00000000
     atom   19 type  1   force =    -0.00000000    0.00000000   -0.00000000
     atom   20 type  1   force =     0.00000000   -0.00000000    0.00000000
     atom   21 type  1   force =     0.00000000   -0.00000000    0.00000000
     atom   22 type  1   force =    -0.00000000    0.00000000   -0.00000000
     atom   23 type  1   force =    -0.00000000   -0.00000000   -0.00000000
     atom   24 type  1   force =     0.00000000    0.00000000   -0.00000000
     atom   25 type  1   force =     0.00000000   -0.00000000   -0.00000000
     atom   26 type  1   force =     0.00000000   -0.00000000   -0.00000000
     atom   27 type  1   force =    -0.00000000    0.00000000    0.00000000
     atom   28 type  1   force =    -0.00000000    0.00000000    0.00000001
     atom   29 type  1   force =     0.00000000   -0.00000000    0.00000000
     atom   30 type  1   force =    -0.00000000   -0.00000000   -0.00000000
     atom   31 type  1   force =     0.00000000   -0.00000000   -0.00000000
     atom   32 type  1   force =    -0.00000000    0.00000000   -0.00000000
     atom   33 type  1   force =     0.00000000   -0.00000000   -0.00000000
     atom   34 type  1   force =     0.00000000   -0.00000000   -0.00000000
     atom   35 type  1   force =     0.00000000    0.00000000   -0.00000000
     atom   36 type  1   force =     0.00000000    0.00000000    0.00000000
     atom   37 type  1   force =     0.00000000   -0.00000000    0.00000000
     atom   38 type  1   force =    -0.00000000    0.00000000    0.00000000
     atom   39 type  1   force =    -0.00000000   -0.00000000   -0.00000000
     atom   40 type  1   force =     0.00000000   -0.00000000    0.00000000
     atom   41 type  1   force =     0.00000000    0.00000000    0.00000000
     atom   42 type  1   force =     0.00000000    0.00000000    0.00000000
     atom   43 type  1   force =    -0.00000000   -0.00000000    0.00000000
     atom   44 type  1   force =    -0.00000000    0.00000000    0.00000000
     atom   45 type  1   force =     0.00000000   -0.00000000    0.00000000
     atom   46 type  1   force =     0.00000000    0.00000000   -0.00000000
     atom   47 type  1   force =     0.00000000    0.00000000   -0.00000000
     atom   48 type  1   force =    -0.00000000   -0.00000000   -0.00000000
     atom   49 type  1   force =    -0.00000000    0.00000000    0.00000000
     atom   50 type  1   force =     0.00000000    0.00000000    0.00000000
     atom   51 type  1   force =    -0.00000000    0.00000000    0.00000000
     atom   52 type  1   force =     0.00000000    0.00000000    0.00000000
     atom   53 type  1   force =    -0.00000000   -0.00000000    0.00000000
     atom   54 type  1   force =    -0.00000000    0.00000000   -0.00000000
     atom   55 type  1   force =    -0.00000000    0.00000000   -0.00000000
     atom   56 type  1   force =     0.00000000   -0.00000000    0.00000000
     atom   57 type  1   force =     0.00000000    0.00000000   -0.00000000
     atom   58 type  1   force =    -0.00000000   -0.00000000    0.00000000
     atom   59 type  1   force =     0.00000000   -0.00000000    0.00000000
     atom   60 type  1   force =     0.00000000    0.00000000   -0.00000000
     atom   61 type  1   force =    -0.00000000   -0.00000000    0.00000000
     atom   62 type  1   force =    -0.00000000    0.00000000   -0.00000000
     atom   63 type  1   force =    -0.00000000   -0.00000000   -0.00000000
     atom   64 type  1   force =    -0.00000000   -0.00000000   -0.00000000
     atom   65 type  1   force =     0.00000000    0.00000000    0.00000000
     atom   66 type  1   force =    -0.00000000   -0.00000000    0.00000001
     atom   67 type  1   force =    -0.00000000   -0.00000000    0.00000000
     atom   68 type  1   force =     0.00000000   -0.00000000   -0.00000000
     atom   69 type  1   force =     0.00000000   -0.00000000   -0.00000000
     atom   70 type  1   force =    -0.00000000    0.00000000   -0.00000000
     atom   71 type  1   force =    -0.00000000   -0.00000000   -0.00000000
     atom   72 type  1   force =    -0.00000000   -0.00000000   -0.00000000
     atom   73 type  1   force =    -0.00000000    0.00000000   -0.00000000
     atom   74 type  1   force =    -0.00000000    0.00000000    0.00000000
     atom   75 type  1   force =    -0.00000000   -0.00000000    0.00000000
     atom   76 type  1   force =     0.00000000    0.00000000    0.00000000

     Total force =     0.007402     Total SCF correction =     0.000000

     Writing all to output data dir ./Li/Lithium.save/ :
     XML data file
     init_run     :     38.60s CPU     51.42s WALL (       1 calls)
     electrons    :   5423.01s CPU   6925.59s WALL (       1 calls)
     forces       :    153.28s CPU    161.40s WALL (       1 calls)

     Called by init_run:
     wfcinit      :      7.70s CPU     10.71s WALL (       1 calls)
     wfcinit:wfcr :      7.08s CPU     10.07s WALL (      11 calls)
     potinit      :      1.22s CPU      1.31s WALL (       1 calls)
     hinit0       :     12.98s CPU     22.19s WALL (       1 calls)

     Called by electrons:
     c_bands      :   3736.04s CPU   4916.80s WALL (      79 calls)
     sum_band     :    279.22s CPU    391.58s WALL (      79 calls)
     v_of_rho     :     12.05s CPU     13.97s WALL (      80 calls)
     v_h          :      0.94s CPU      1.15s WALL (      80 calls)
     v_xc         :     11.11s CPU     12.82s WALL (      80 calls)
     newd         :      5.17s CPU      7.29s WALL (      80 calls)
     PAW_pot      :      0.87s CPU      1.10s WALL (      80 calls)
     mix_rho      :     36.16s CPU     43.40s WALL (      79 calls)

     Called by c_bands:
     init_us_2    :     53.99s CPU     54.26s WALL (    1760 calls)
     cegterg      :   3547.83s CPU   4491.18s WALL (    1020 calls)

     Called by sum_band:
     sum_band:wei :      0.19s CPU      0.22s WALL (      79 calls)
     sum_band:loo :    270.78s CPU    378.88s WALL (      79 calls)
     sum_band:buf :      6.08s CPU      6.11s WALL (     869 calls)
     sum_band:ini :     26.70s CPU     26.81s WALL (     869 calls)
     sum_band:cal :     56.52s CPU     60.22s WALL (     869 calls)
     sum_band:bec :      0.52s CPU      0.62s WALL (     869 calls)
     addusdens    :      6.28s CPU      8.71s WALL (      79 calls)
                                        0.00s GPU  (      79 calls)
     addusd:skk   :      0.73s CPU      2.62s WALL (      79 calls)
                                        0.00s GPU  (      79 calls)

     Called by *egterg:
     cdiaghg      :    907.69s CPU   1032.02s WALL (   10157 calls)
     cegterg:over :    271.97s CPU    292.00s WALL (    9205 calls)
     cegterg:upda :    219.19s CPU    230.92s WALL (    9205 calls)
     cegterg:last :     90.24s CPU     96.41s WALL (    1178 calls)
     cdiaghg:chol :     42.52s CPU     80.99s WALL (   10157 calls)
     cdiaghg:inve :     21.43s CPU     23.04s WALL (   10157 calls)
     cdiaghg:para :    260.07s CPU    300.88s WALL (   20314 calls)
     h_psi        :   1774.02s CPU   2539.98s WALL (   10236 calls)
     s_psi        :    228.69s CPU    230.12s WALL (   10236 calls)
     g_psi        :      4.95s CPU      5.17s WALL (    9205 calls)

     Called by h_psi:
     h_psi:calbec :    260.16s CPU    281.42s WALL (   10236 calls)
     vloc_psi     :   1272.79s CPU   2006.80s WALL (   10236 calls)
                                        0.00s GPU  (   10236 calls)
     add_vuspsi   :    229.41s CPU    230.50s WALL (   10236 calls)

     General routines
     calbec       :    319.22s CPU    344.30s WALL (   11149 calls)
     fft          :     11.63s CPU     22.19s WALL (    1040 calls)
     ffts         :     17.72s CPU     22.12s WALL (    9753 calls)
     fftw         :   1400.80s CPU   2211.53s WALL ( 1215975 calls)
     interpolate  :      1.85s CPU      2.05s WALL (      80 calls)

     Parallel routines

     PAW routines
     PAW_pot      :      0.87s CPU      1.10s WALL (      80 calls)

     Environ routines

     PWSCF        :      1h33m CPU      1h58m WALL


   This run was terminated on:   6:23:31  20Jan2025            

=------------------------------------------------------------------------------=
   JOB DONE.
=------------------------------------------------------------------------------=
