
     Program PWSCF v.7.4 starts on 29Dec2024 at 11:25:13 

     This program is part of the open-source Quantum ESPRESSO suite
     for quantum simulation of materials; please cite
         "P. Giannozzi et al., J. Phys.:Condens. Matter 21 395502 (2009);
         "P. Giannozzi et al., J. Phys.:Condens. Matter 29 465901 (2017);
         "P. Giannozzi et al., J. Chem. Phys. 152 154105 (2020);
          URL http://www.quantum-espresso.org", 
     in publications or presentations arising from this work. More details at
     http://www.quantum-espresso.org/quote

     Parallel version (MPI & OpenMP), running on     576 processor cores
     Number of MPI processes:               576
     Threads/MPI process:                     1

     MPI processes distributed on     3 nodes
     665994 MiB available memory on the printing compute node when the environment starts
 
     Reading input from espresso.pwi
Warning: card &CELL ignored
Warning: card    PRESS_CONV_THR   = 0.1 ignored
Warning: card    CELL_DOFREE      = 'ALL' ignored
Warning: card / ignored
Warning: card &FCP ignored
Warning: card / ignored
Warning: card &RISM ignored
Warning: card / ignored

     Current dimensions of program PWSCF are:
     Max number of different atomic species (ntypx) = 10
     Max number of k-points (npk) =  40000
     Max angular momentum in pseudopotentials (lmaxx) =  4

     IMPORTANT: XC functional enforced from input :
     Exchange-correlation= PBE
                           (   1   4   3   4   0   0   0)
     Any further DFT definition will be discarded
     Please, verify this is what you really want

 
     Reading input from environ.in:
     * using ionic solvent mode
     * setting boundary derivatives method to SSCS default
     * setting electrolyte-boundary derivatives method to SSCS default

Environ Warning (1001): card EOF ignored

     
     Found identity + (  0.5000  0.0000  0.0000) symmetry
     This is a supercell, fractional translations are disabled
 
     K-points division:     npool     =       2
     R & G space division:  proc/nbgrp/npool/nimage =     288
     Subspace diagonalization in iterative solution of the eigenvalue problem:
     one sub-group per band group will be used
     ELPA distributed-memory algorithm (size of sub-group:  2*  2 procs)

 
     Parallelization info
     --------------------
     sticks:   dense  smooth     PW     G-vecs:    dense   smooth      PW
     Min          81      32      8                50237    12694    1694
     Max          82      33      9                50278    12739    1755
     Sum       23389    9361   2459             14473305  3661695  495499
 
     Using Slab Decomposition
 


     bravais-lattice index     =           12
     lattice parameter (alat)  =      18.3607  a.u.
     unit-cell volume          =   37876.5248 (a.u.)^3
     number of atoms/cell      =           76
     number of atomic types    =            1
     number of electrons       =       228.00
     number of Kohn-Sham states=          171
     kinetic-energy cutoff     =      80.0000  Ry
     charge density cutoff     =     800.0000  Ry
     scf convergence threshold =      1.0E-12
     mixing beta               =       0.1000
     number of iterations used =            8  local-TF  mixing
     Exchange-correlation= PBE
                           (   1   4   3   4   0   0   0)

     ================================================================================
 
                                  Environ Setup Summary

     ================================================================================
 
     Please cite

          O. Andreussi, I. Dabo and N. Marzari, J. Chem. Phys. 136, 064102 (2012)
          F. Nattino, M. Truscott, N. Marzari, and O. Andreussi, J. Chem. Phys. 150, 041722 (2019)

     in publications or presentations arising from this work.

     ================================================================================
 
     Parameters
     ==========

     compensation onset threshold      =               0.1000E+00
     static permittivity               =                    89.90
     surface tension in input (dyn/cm) =                    37.30
     surface tension in internal units =               0.4792E-04

     Solvent Boundary
     ================

     solvent mode                      =                    ionic
     derivatives method                =                   lowmem
     electrolyte derivatives method    =                   lowmem
     numerical core for derivatives    =                      fft
     switching function adopted        =                     SCCS
     density limit for vacuum region   =               0.5000E-02
     density limit for bulk solvent    =               0.1000E-03
     soft-sphere radius mode           =                    bondi
     soft-sphere softness              =                     0.50
     alpha                             =                     1.32

     Electrostatic Setup
     ===================

     electrostatic problem to solve    =                    modpb
     numerical solver adopted          =                   newton
     type of auxiliary density adopted =                     none
     numerical core for poisson        =                      fft
     adopting a nested solver scheme
     inner solver                      =                       cg
     inner core                        =                      fft
     type of pbc corrections           =                parabolic
     numerical core for corrections    =                      1da

     ================================================================================
 

     celldm(1)=  18.360747  celldm(2)=   1.118034  celldm(3)=   5.615419
     celldm(4)=   0.223607  celldm(5)=   0.000000  celldm(6)=   0.000000

     crystal axes: (cart. coord. in units of alat)
               a(1) = (   1.000000   0.000000   0.000000 )  
               a(2) = (   0.250000   1.089725   0.000000 )  
               a(3) = (   0.000000   0.000000   5.615419 )  

     reciprocal axes: (cart. coord. in units 2 pi/alat)
               b(1) = (  1.000000 -0.229416  0.000000 )  
               b(2) = (  0.000000  0.917663  0.000000 )  
               b(3) = (  0.000000  0.000000  0.178081 )  


     PseudoPot. # 1 for Li read from file:
     /home/ba3g18/Repos/Pseudopotentials/pslibrary.1.0.0/pbe/PSEUDOPOTENTIALS/Li.pbe-sl-kjpaw_psl.1.0.0.UPF
     MD5 check sum: 3f4d2cafebb47c6c3aa8ed472e6f074d
     Pseudo is Projector augmented-wave, Zval =  3.0
     Generated using 'atomic' code by A. Dal Corso  v.7.4
     Shape of augmentation charge: PSQ
     Using radial grid of 1017 points,  4 beta functions with: 
                l(1) =   0
                l(2) =   0
                l(3) =   1
                l(4) =   1
     Q(r) pseudized with 0 coefficients 


     atomic species   valence    mass     pseudopotential
     Li                3.00     6.94000     Li( 1.00)

     No symmetry found


                                    s                        frac. trans.

      isym =  1     identity                                     

 cryst.   s( 1) = (     1          0          0      )
                  (     0          1          0      )
                  (     0          0          1      )

 cart.    s( 1) = (  1.0000000  0.0000000  0.0000000 )
                  (  0.0000000  1.0000000  0.0000000 )
                  (  0.0000000  0.0000000  1.0000000 )


     point group C_1 (1)    
     there are  1 classes
     the character table:

       E    
A      1.00

     the symmetry operations in each class and the name of the first element:

     E        1
          identity                                               

   Cartesian axes

     site n.     atom                  positions (alat units)
         1        Li     tau(   1) = (   0.0010185  -0.0546452   3.5569776  )
         2        Li     tau(   2) = (   0.2489721   0.7503952   2.0967060  )
         3        Li     tau(   3) = (   0.2490163   0.3882635   2.1988959  )
         4        Li     tau(   4) = (   0.2490003   0.0657648   2.2941339  )
         5        Li     tau(   5) = (   0.4989943   0.8126696   2.3220870  )
         6        Li     tau(   6) = (   0.4990134   0.4386227   2.4121792  )
         7        Li     tau(   7) = (   0.4990057   0.1113403   2.4995680  )
         8        Li     tau(   8) = (   0.2491058   0.8638139   2.5693333  )
         9        Li     tau(   9) = (   0.2493976   0.5188862   2.6665962  )
        10        Li     tau(  10) = (   0.2497030   0.1632512   2.7613624  )
        11        Li     tau(  11) = (   0.5001513   0.9156868   2.8305823  )
        12        Li     tau(  12) = (   0.5004659   0.5782937   2.9037344  )
        13        Li     tau(  13) = (   0.5007481   0.2321555   3.0069407  )
        14        Li     tau(  14) = (   0.2509674   0.9815150   3.0611302  )
        15        Li     tau(  15) = (   0.2509751   0.6328013   3.1285635  )
        16        Li     tau(  16) = (   0.2510017   0.2890380   3.2404283  )
        17        Li     tau(  17) = (   0.5010044   1.0257149   3.3314252  )
        18        Li     tau(  18) = (   0.5009903   0.7136441   3.4209325  )
        19        Li     tau(  19) = (   0.5010101   0.3477218   3.4723559  )
        20        Li     tau(  20) = (   0.2489954   0.9816725   2.2839940  )
        21        Li     tau(  21) = (   0.2489982   0.6286247   2.3749905  )
        22        Li     tau(  22) = (   0.2490249   0.2848614   2.4868557  )
        23        Li     tau(  23) = (   0.4990328   1.0258733   2.5542885  )
        24        Li     tau(  24) = (   0.4992521   0.6855074   2.6084782  )
        25        Li     tau(  25) = (   0.4995344   0.3393691   2.7116843  )
        26        Li     tau(  26) = (   0.4998490   0.0019769   2.7848365  )
        27        Li     tau(  27) = (   0.2502973   0.7544117   2.8540568  )
        28        Li     tau(  28) = (   0.2506027   0.3987770   2.9488223  )
        29        Li     tau(  29) = (   0.2508944   0.0538493   3.0460860  )
        30        Li     tau(  30) = (   0.5009943   0.8063227   3.1158508  )
        31        Li     tau(  31) = (   0.5009866   0.4790401   3.2032398  )
        32        Li     tau(  32) = (   0.5010055   0.1049930   3.2933319  )
        33        Li     tau(  33) = (   0.2509993   0.8518981   3.3212848  )
        34        Li     tau(  34) = (   0.2509835   0.5293992   3.4165233  )
        35        Li     tau(  35) = (   0.2510276   0.1672676   3.5187128  )
        36        Li     tau(  36) = (   0.4989815   0.9723080   2.0584414  )
        37        Li     tau(  37) = (   0.4989896   0.5699408   2.1430629  )
        38        Li     tau(  38) = (   0.4990094   0.2040182   2.1944863  )
        39        Li     tau(  39) = (   0.5010184  -0.0546451   3.5569776  )
        40        Li     tau(  40) = (   0.7489721   0.7503951   2.0967060  )
        41        Li     tau(  41) = (   0.7490163   0.3882635   2.1988960  )
        42        Li     tau(  42) = (   0.7490003   0.0657648   2.2941339  )
        43        Li     tau(  43) = (   0.9989943   0.8126697   2.3220870  )
        44        Li     tau(  44) = (   0.9990134   0.4386227   2.4121791  )
        45        Li     tau(  45) = (   0.9990056   0.1113403   2.4995680  )
        46        Li     tau(  46) = (   0.7491058   0.8638139   2.5693333  )
        47        Li     tau(  47) = (   0.7493976   0.5188862   2.6665962  )
        48        Li     tau(  48) = (   0.7497030   0.1632512   2.7613624  )
        49        Li     tau(  49) = (   1.0001513   0.9156868   2.8305823  )
        50        Li     tau(  50) = (   1.0004659   0.5782937   2.9037344  )
        51        Li     tau(  51) = (   1.0007481   0.2321555   3.0069407  )
        52        Li     tau(  52) = (   0.7509674   0.9815150   3.0611302  )
        53        Li     tau(  53) = (   0.7509752   0.6328013   3.1285636  )
        54        Li     tau(  54) = (   0.7510017   0.2890380   3.2404283  )
        55        Li     tau(  55) = (   1.0010044   1.0257149   3.3314252  )
        56        Li     tau(  56) = (   1.0009903   0.7136440   3.4209323  )
        57        Li     tau(  57) = (   1.0010102   0.3477219   3.4723558  )
        58        Li     tau(  58) = (   0.7489953   0.9816725   2.2839940  )
        59        Li     tau(  59) = (   0.7489982   0.6286247   2.3749905  )
        60        Li     tau(  60) = (   0.7490249   0.2848614   2.4868557  )
        61        Li     tau(  61) = (   0.9990328   1.0258734   2.5542885  )
        62        Li     tau(  62) = (   0.9992521   0.6855074   2.6084782  )
        63        Li     tau(  63) = (   0.9995344   0.3393691   2.7116843  )
        64        Li     tau(  64) = (   0.9998490   0.0019769   2.7848365  )
        65        Li     tau(  65) = (   0.7502973   0.7544117   2.8540569  )
        66        Li     tau(  66) = (   0.7506027   0.3987770   2.9488223  )
        67        Li     tau(  67) = (   0.7508944   0.0538493   3.0460860  )
        68        Li     tau(  68) = (   1.0009943   0.8063227   3.1158507  )
        69        Li     tau(  69) = (   1.0009866   0.4790400   3.2032397  )
        70        Li     tau(  70) = (   1.0010055   0.1049930   3.2933319  )
        71        Li     tau(  71) = (   0.7509993   0.8518982   3.3212848  )
        72        Li     tau(  72) = (   0.7509834   0.5293992   3.4165234  )
        73        Li     tau(  73) = (   0.7510277   0.1672676   3.5187128  )
        74        Li     tau(  74) = (   0.9989815   0.9723080   2.0584414  )
        75        Li     tau(  75) = (   0.9989896   0.5699408   2.1430630  )
        76        Li     tau(  76) = (   0.9990093   0.2040182   2.1944863  )

   Crystallographic axes

     site n.     atom                  positions (cryst. coord.)
         1        Li     tau(   1) = (  0.0135549 -0.0501458  0.6334305  )
         2        Li     tau(   2) = (  0.0768197  0.6886097  0.3733837  )
         3        Li     tau(   3) = (  0.1599425  0.3562950  0.3915818  )
         4        Li     tau(   4) = (  0.2339128  0.0603499  0.4085419  )
         5        Li     tau(   5) = (  0.3125551  0.7457566  0.4135198  )
         6        Li     tau(   6) = (  0.3983865  0.4025077  0.4295635  )
         7        Li     tau(   7) = (  0.4734625  0.1021728  0.4451258  )
         8        Li     tau(   8) = (  0.0509334  0.7926898  0.4575497  )
         9        Li     tau(   9) = (  0.1303570  0.4761625  0.4748704  )
        10        Li     tau(  10) = (  0.2122506  0.1498095  0.4917465  )
        11        Li     tau(  11) = (  0.2900784  0.8402916  0.5040732  )
        12        Li     tau(  12) = (  0.3677962  0.5306786  0.5171002  )
        13        Li     tau(  13) = (  0.4474880  0.2130405  0.5354793  )
        14        Li     tau(  14) = (  0.0257925  0.9006997  0.5451294  )
        15        Li     tau(  15) = (  0.1058006  0.5806982  0.5571380  )
        16        Li     tau(  16) = (  0.1846918  0.2652394  0.5770590  )
        17        Li     tau(  17) = (  0.2656893  0.9412604  0.5932639  )
        18        Li     tau(  18) = (  0.3372692  0.6548846  0.6092034  )
        19        Li     tau(  19) = (  0.4212373  0.3190913  0.6183609  )
        20        Li     tau(  20) = (  0.0237843  0.9008443  0.4067362  )
        21        Li     tau(  21) = (  0.1047819  0.5768654  0.4229409  )
        22        Li     tau(  22) = (  0.1836732  0.2614067  0.4428620  )
        23        Li     tau(  23) = (  0.2636814  0.9414057  0.4548705  )
        24        Li     tau(  24) = (  0.3419860  0.6290646  0.4645207  )
        25        Li     tau(  25) = (  0.4216778  0.3114264  0.4828997  )
        26        Li     tau(  26) = (  0.4993954  0.0018142  0.4959267  )
        27        Li     tau(  27) = (  0.0772234  0.6922955  0.5082536  )
        28        Li     tau(  28) = (  0.1591170  0.3659428  0.5251295  )
        29        Li     tau(  29) = (  0.2385405  0.0494155  0.5424503  )
        30        Li     tau(  30) = (  0.3160113  0.7399322  0.5548741  )
        31        Li     tau(  31) = (  0.3910873  0.4395972  0.5704365  )
        32        Li     tau(  32) = (  0.4769185  0.0963482  0.5864802  )
        33        Li     tau(  33) = (  0.0555605  0.7817551  0.5914580  )
        34        Li     tau(  34) = (  0.1295310  0.4858099  0.6084182  )
        35        Li     tau(  35) = (  0.2126538  0.1534952  0.6266162  )
        36        Li     tau(  36) = (  0.2759188  0.8922508  0.3665695  )
        37        Li     tau(  37) = (  0.3682362  0.5230134  0.3816390  )
        38        Li     tau(  38) = (  0.4522044  0.1872199  0.3907965  )
        39        Li     tau(  39) = (  0.5135549 -0.0501457  0.6334305  )
        40        Li     tau(  40) = (  0.5768197  0.6886096  0.3733837  )
        41        Li     tau(  41) = (  0.6599425  0.3562950  0.3915818  )
        42        Li     tau(  42) = (  0.7339128  0.0603499  0.4085419  )
        43        Li     tau(  43) = (  0.8125551  0.7457566  0.4135198  )
        44        Li     tau(  44) = (  0.8983865  0.4025077  0.4295635  )
        45        Li     tau(  45) = (  0.9734624  0.1021728  0.4451258  )
        46        Li     tau(  46) = (  0.5509333  0.7926898  0.4575497  )
        47        Li     tau(  47) = (  0.6303570  0.4761626  0.4748704  )
        48        Li     tau(  48) = (  0.7122506  0.1498095  0.4917465  )
        49        Li     tau(  49) = (  0.7900784  0.8402916  0.5040732  )
        50        Li     tau(  50) = (  0.8677962  0.5306786  0.5171002  )
        51        Li     tau(  51) = (  0.9474880  0.2130404  0.5354793  )
        52        Li     tau(  52) = (  0.5257924  0.9006997  0.5451294  )
        53        Li     tau(  53) = (  0.6058006  0.5806982  0.5571380  )
        54        Li     tau(  54) = (  0.6846918  0.2652394  0.5770590  )
        55        Li     tau(  55) = (  0.7656893  0.9412603  0.5932639  )
        56        Li     tau(  56) = (  0.8372691  0.6548845  0.6092034  )
        57        Li     tau(  57) = (  0.9212373  0.3190914  0.6183609  )
        58        Li     tau(  58) = (  0.5237843  0.9008442  0.4067362  )
        59        Li     tau(  59) = (  0.6047819  0.5768655  0.4229409  )
        60        Li     tau(  60) = (  0.6836732  0.2614067  0.4428620  )
        61        Li     tau(  61) = (  0.7636814  0.9414057  0.4548705  )
        62        Li     tau(  62) = (  0.8419860  0.6290646  0.4645207  )
        63        Li     tau(  63) = (  0.9216778  0.3114264  0.4828997  )
        64        Li     tau(  64) = (  0.9993954  0.0018141  0.4959267  )
        65        Li     tau(  65) = (  0.5772234  0.6922955  0.5082536  )
        66        Li     tau(  66) = (  0.6591170  0.3659428  0.5251295  )
        67        Li     tau(  67) = (  0.7385405  0.0494155  0.5424503  )
        68        Li     tau(  68) = (  0.8160113  0.7399323  0.5548741  )
        69        Li     tau(  69) = (  0.8910873  0.4395972  0.5704365  )
        70        Li     tau(  70) = (  0.9769185  0.0963482  0.5864802  )
        71        Li     tau(  71) = (  0.5555605  0.7817552  0.5914580  )
        72        Li     tau(  72) = (  0.6295309  0.4858099  0.6084182  )
        73        Li     tau(  73) = (  0.7126539  0.1534952  0.6266162  )
        74        Li     tau(  74) = (  0.7759188  0.8922508  0.3665695  )
        75        Li     tau(  75) = (  0.8682362  0.5230134  0.3816390  )
        76        Li     tau(  76) = (  0.9522044  0.1872199  0.3907965  )

     number of k points=    22  Marzari-Vanderbilt smearing, width (Ry)=  0.0100
                       cart. coord. in units 2pi/alat
        k(    1) = (   0.0000000   0.0000000   0.0000000), wk =   0.0476190
        k(    2) = (   0.0000000   0.1529438   0.0000000), wk =   0.0952381
        k(    3) = (   0.0000000   0.3058876   0.0000000), wk =   0.0952381
        k(    4) = (   0.0000000  -0.4588314   0.0000000), wk =   0.0476190
        k(    5) = (   0.1428571  -0.0327737   0.0000000), wk =   0.0952381
        k(    6) = (   0.1428571   0.1201701   0.0000000), wk =   0.0952381
        k(    7) = (   0.1428571   0.2731139   0.0000000), wk =   0.0952381
        k(    8) = (   0.1428571  -0.4916050   0.0000000), wk =   0.0952381
        k(    9) = (   0.1428571  -0.3386612   0.0000000), wk =   0.0952381
        k(   10) = (   0.1428571  -0.1857175   0.0000000), wk =   0.0952381
        k(   11) = (   0.2857143  -0.0655473   0.0000000), wk =   0.0952381
        k(   12) = (   0.2857143   0.0873964   0.0000000), wk =   0.0952381
        k(   13) = (   0.2857143   0.2403402   0.0000000), wk =   0.0952381
        k(   14) = (   0.2857143  -0.5243787   0.0000000), wk =   0.0952381
        k(   15) = (   0.2857143  -0.3714349   0.0000000), wk =   0.0952381
        k(   16) = (   0.2857143  -0.2184911   0.0000000), wk =   0.0952381
        k(   17) = (   0.4285714  -0.0983210   0.0000000), wk =   0.0952381
        k(   18) = (   0.4285714   0.0546228   0.0000000), wk =   0.0952381
        k(   19) = (   0.4285714   0.2075666   0.0000000), wk =   0.0952381
        k(   20) = (   0.4285714  -0.5571524   0.0000000), wk =   0.0952381
        k(   21) = (   0.4285714  -0.4042086   0.0000000), wk =   0.0952381
        k(   22) = (   0.4285714  -0.2512648   0.0000000), wk =   0.0952381

                       cryst. coord.
        k(    1) = (   0.0000000   0.0000000   0.0000000), wk =   0.0476190
        k(    2) = (   0.0000000   0.1666667   0.0000000), wk =   0.0952381
        k(    3) = (   0.0000000   0.3333333   0.0000000), wk =   0.0952381
        k(    4) = (   0.0000000  -0.5000000   0.0000000), wk =   0.0476190
        k(    5) = (   0.1428571  -0.0000000   0.0000000), wk =   0.0952381
        k(    6) = (   0.1428571   0.1666667   0.0000000), wk =   0.0952381
        k(    7) = (   0.1428571   0.3333333   0.0000000), wk =   0.0952381
        k(    8) = (   0.1428571  -0.5000000   0.0000000), wk =   0.0952381
        k(    9) = (   0.1428571  -0.3333333   0.0000000), wk =   0.0952381
        k(   10) = (   0.1428571  -0.1666667   0.0000000), wk =   0.0952381
        k(   11) = (   0.2857143  -0.0000000   0.0000000), wk =   0.0952381
        k(   12) = (   0.2857143   0.1666667   0.0000000), wk =   0.0952381
        k(   13) = (   0.2857143   0.3333333   0.0000000), wk =   0.0952381
        k(   14) = (   0.2857143  -0.5000000   0.0000000), wk =   0.0952381
        k(   15) = (   0.2857143  -0.3333333   0.0000000), wk =   0.0952381
        k(   16) = (   0.2857143  -0.1666667   0.0000000), wk =   0.0952381
        k(   17) = (   0.4285714   0.0000000   0.0000000), wk =   0.0952381
        k(   18) = (   0.4285714   0.1666667   0.0000000), wk =   0.0952381
        k(   19) = (   0.4285714   0.3333333   0.0000000), wk =   0.0952381
        k(   20) = (   0.4285714  -0.5000000   0.0000000), wk =   0.0952381
        k(   21) = (   0.4285714  -0.3333333   0.0000000), wk =   0.0952381
        k(   22) = (   0.4285714  -0.1666667   0.0000000), wk =   0.0952381

     Dense  grid: 14473305 G-vectors     FFT dimensions: ( 180, 192, 960)

     Smooth grid:  3661695 G-vectors     FFT dimensions: ( 108, 120, 600)

     Dynamical RAM for                 wfc:       4.15 MB

     Dynamical RAM for     wfc (w. buffer):      49.75 MB

     Dynamical RAM for           str. fact:       0.77 MB

     Dynamical RAM for           local pot:       0.00 MB

     Dynamical RAM for          nlocal pot:      14.74 MB

     Dynamical RAM for                qrad:       0.65 MB

     Dynamical RAM for          rho,v,vnew:       5.46 MB

     Dynamical RAM for               rhoin:       1.82 MB

     Dynamical RAM for            rho*nmix:      12.27 MB

     Dynamical RAM for           G-vectors:       2.97 MB

     Dynamical RAM for          h,s,v(r/c):       1.34 MB

     Dynamical RAM for          <psi|beta>:       1.59 MB

     Dynamical RAM for                 psi:       8.29 MB

     Dynamical RAM for                hpsi:       8.29 MB

     Dynamical RAM for                spsi:       8.29 MB

     Dynamical RAM for      wfcinit/wfcrot:       8.96 MB

     Dynamical RAM for           addusdens:      46.00 MB

     Dynamical RAM for          addusforce:     103.56 MB

     Estimated static dynamical RAM per process >      82.97 MB

     Estimated max dynamical RAM per process >     220.85 MB

     Estimated total dynamical RAM >     108.38 GB

     Initial potential from superposition of free atoms

     starting charge     227.6497, renormalised to     228.0000

     negative rho (up, down):  6.379E-03 0.000E+00
     Starting wfcs are random
     Checking if some PAW data can be deallocated... 

     total cpu time spent up to now is       34.1 secs

     Self-consistent Calculation

     iteration #  1     ecut=    80.00 Ry     beta= 0.10
     Davidson diagonalization with overlap

---- Real-time Memory Report at c_bands before calling an iterative solver
          1469 MiB given to the printing process from OS
             0 MiB allocation reported by mallinfo(arena+hblkhd)
        626942 MiB available memory on the node where the printing process lives
------------------
     ethr =  1.00E-02,  avg # of iterations = 12.6

     negative rho (up, down):  1.022E-03 0.000E+00

     total cpu time spent up to now is      148.8 secs

     total energy              =   -1138.44961163 Ry
     estimated scf accuracy    <      11.52041015 Ry
     electrostatic embedding   =       0.00000000 Ry
     cavitation energy         =       0.04294442 Ry
     electrolyte free energy   =       0.01630252 Ry
     correction to one-el term =       0.00000000 Ry

     iteration #  2     ecut=    80.00 Ry     beta= 0.10
     Davidson diagonalization with overlap

---- Real-time Memory Report at c_bands before calling an iterative solver
          1469 MiB given to the printing process from OS
             0 MiB allocation reported by mallinfo(arena+hblkhd)
        621529 MiB available memory on the node where the printing process lives
------------------
     ethr =  5.05E-03,  avg # of iterations =  5.0

     negative rho (up, down):  6.924E-05 0.000E+00

     total cpu time spent up to now is      194.6 secs

     total energy              =   -1140.52712671 Ry
     estimated scf accuracy    <       6.36090754 Ry
     electrostatic embedding   =       0.00000000 Ry
     cavitation energy         =       0.04294442 Ry
     electrolyte free energy   =       0.01630252 Ry
     correction to one-el term =       0.00000000 Ry

     iteration #  3     ecut=    80.00 Ry     beta= 0.10
     Davidson diagonalization with overlap

---- Real-time Memory Report at c_bands before calling an iterative solver
          1469 MiB given to the printing process from OS
             0 MiB allocation reported by mallinfo(arena+hblkhd)
        620070 MiB available memory on the node where the printing process lives
------------------
     ethr =  2.79E-03,  avg # of iterations =  4.2

     negative rho (up, down):  2.980E-05 0.000E+00

     total cpu time spent up to now is      232.8 secs

     total energy              =   -1141.54365221 Ry
     estimated scf accuracy    <       0.90528483 Ry
     electrostatic embedding   =       0.00000000 Ry
     cavitation energy         =       0.04294442 Ry
     electrolyte free energy   =       0.01630252 Ry
     correction to one-el term =       0.00000000 Ry

     iteration #  4     ecut=    80.00 Ry     beta= 0.10
     Davidson diagonalization with overlap

---- Real-time Memory Report at c_bands before calling an iterative solver
          1469 MiB given to the printing process from OS
             0 MiB allocation reported by mallinfo(arena+hblkhd)
        619720 MiB available memory on the node where the printing process lives
------------------
     ethr =  3.97E-04,  avg # of iterations =  9.7

     negative rho (up, down):  9.248E-06 0.000E+00

     total cpu time spent up to now is      327.9 secs

     total energy              =   -1142.89492388 Ry
     estimated scf accuracy    <       0.63346904 Ry
     electrostatic embedding   =       0.00000000 Ry
     cavitation energy         =       0.04294442 Ry
     electrolyte free energy   =       0.01630252 Ry
     correction to one-el term =       0.00000000 Ry

     iteration #  5     ecut=    80.00 Ry     beta= 0.10
     Davidson diagonalization with overlap

---- Real-time Memory Report at c_bands before calling an iterative solver
          1469 MiB given to the printing process from OS
             0 MiB allocation reported by mallinfo(arena+hblkhd)
        617496 MiB available memory on the node where the printing process lives
------------------
     ethr =  2.78E-04,  avg # of iterations =  4.7

     negative rho (up, down):  2.224E-06 0.000E+00

     total cpu time spent up to now is      365.7 secs

     total energy              =   -1142.81922337 Ry
     estimated scf accuracy    <       0.45729801 Ry
     electrostatic embedding   =       0.00000000 Ry
     cavitation energy         =       0.04294442 Ry
     electrolyte free energy   =       0.01630252 Ry
     correction to one-el term =       0.00000000 Ry

     iteration #  6     ecut=    80.00 Ry     beta= 0.10
     Davidson diagonalization with overlap

---- Real-time Memory Report at c_bands before calling an iterative solver
          1469 MiB given to the printing process from OS
             0 MiB allocation reported by mallinfo(arena+hblkhd)
        617495 MiB available memory on the node where the printing process lives
------------------
     ethr =  2.01E-04,  avg # of iterations = 10.3

     negative rho (up, down):  2.223E-07 0.000E+00

     total cpu time spent up to now is      412.5 secs

     total energy              =   -1142.85174783 Ry
     estimated scf accuracy    <       0.18311230 Ry
     electrostatic embedding   =       0.00000000 Ry
     cavitation energy         =       0.04294442 Ry
     electrolyte free energy   =       0.01630252 Ry
     correction to one-el term =       0.00000000 Ry

     iteration #  7     ecut=    80.00 Ry     beta= 0.10
     Davidson diagonalization with overlap

---- Real-time Memory Report at c_bands before calling an iterative solver
          1469 MiB given to the printing process from OS
             0 MiB allocation reported by mallinfo(arena+hblkhd)
        616585 MiB available memory on the node where the printing process lives
------------------
     ethr =  8.03E-05,  avg # of iterations =  9.3

     negative rho (up, down):  4.247E-07 0.000E+00

     total cpu time spent up to now is      456.9 secs

     total energy              =   -1142.85770663 Ry
     estimated scf accuracy    <       0.56052002 Ry
     electrostatic embedding   =       0.00000000 Ry
     cavitation energy         =       0.04294442 Ry
     electrolyte free energy   =       0.01630252 Ry
     correction to one-el term =       0.00000000 Ry

     iteration #  8     ecut=    80.00 Ry     beta= 0.10
     Davidson diagonalization with overlap

---- Real-time Memory Report at c_bands before calling an iterative solver
          1482 MiB given to the printing process from OS
             0 MiB allocation reported by mallinfo(arena+hblkhd)
        616122 MiB available memory on the node where the printing process lives
------------------
     ethr =  8.03E-05,  avg # of iterations =  1.1

     negative rho (up, down):  2.088E-07 0.000E+00

     total cpu time spent up to now is      489.6 secs

     total energy              =   -1142.85502263 Ry
     estimated scf accuracy    <       0.30303578 Ry
     electrostatic embedding   =       0.00000000 Ry
     cavitation energy         =       0.04294442 Ry
     electrolyte free energy   =       0.01630252 Ry
     correction to one-el term =       0.00000000 Ry

     iteration #  9     ecut=    80.00 Ry     beta= 0.10
     Davidson diagonalization with overlap

---- Real-time Memory Report at c_bands before calling an iterative solver
          1495 MiB given to the printing process from OS
             0 MiB allocation reported by mallinfo(arena+hblkhd)
        616044 MiB available memory on the node where the printing process lives
------------------
     ethr =  8.03E-05,  avg # of iterations =  1.0

     negative rho (up, down):  1.527E-07 0.000E+00

     total cpu time spent up to now is      521.6 secs

     total energy              =   -1142.82528763 Ry
     estimated scf accuracy    <       0.26813503 Ry
     electrostatic embedding   =       0.00000000 Ry
     cavitation energy         =       0.04294442 Ry
     electrolyte free energy   =       0.01630252 Ry
     correction to one-el term =       0.00000000 Ry

     iteration # 10     ecut=    80.00 Ry     beta= 0.10
     Davidson diagonalization with overlap

---- Real-time Memory Report at c_bands before calling an iterative solver
          1509 MiB given to the printing process from OS
             0 MiB allocation reported by mallinfo(arena+hblkhd)
        616232 MiB available memory on the node where the printing process lives
------------------
     ethr =  8.03E-05,  avg # of iterations =  1.2

     negative rho (up, down):  2.620E-05 0.000E+00

     total cpu time spent up to now is      554.2 secs

     total energy              =   -1142.83801327 Ry
     estimated scf accuracy    <       0.10133639 Ry
     electrostatic embedding   =       0.00000000 Ry
     cavitation energy         =       0.04294442 Ry
     electrolyte free energy   =       0.01630252 Ry
     correction to one-el term =       0.00000000 Ry

     iteration # 11     ecut=    80.00 Ry     beta= 0.10
     Davidson diagonalization with overlap

---- Real-time Memory Report at c_bands before calling an iterative solver
          1523 MiB given to the printing process from OS
             0 MiB allocation reported by mallinfo(arena+hblkhd)
        616214 MiB available memory on the node where the printing process lives
------------------
     ethr =  4.44E-05,  avg # of iterations =  1.3

     negative rho (up, down):  7.618E-02 0.000E+00

     total cpu time spent up to now is      587.1 secs

     total energy              =   -1142.81283054 Ry
     estimated scf accuracy    <       0.18111223 Ry
     electrostatic embedding   =       0.00000000 Ry
     cavitation energy         =       0.04294442 Ry
     electrolyte free energy   =       0.01630252 Ry
     correction to one-el term =       0.00000000 Ry

     iteration # 12     ecut=    80.00 Ry     beta= 0.10
     Davidson diagonalization with overlap

---- Real-time Memory Report at c_bands before calling an iterative solver
          1535 MiB given to the printing process from OS
             0 MiB allocation reported by mallinfo(arena+hblkhd)
        616214 MiB available memory on the node where the printing process lives
------------------
     c_bands:  1 eigenvalues not converged
     ethr =  4.44E-05,  avg # of iterations = 14.2

     negative rho (up, down):  1.576E-01 0.000E+00

     add environment contribution to local potential

     total cpu time spent up to now is      650.1 secs

     total energy              =   -1142.82050913 Ry
     estimated scf accuracy    <       0.05521971 Ry
     electrostatic embedding   =       0.00000000 Ry
     cavitation energy         =       0.04294442 Ry
     electrolyte free energy   =       0.01630252 Ry
     correction to one-el term =       0.00000000 Ry

     iteration # 13     ecut=    80.00 Ry     beta= 0.10
     Davidson diagonalization with overlap

---- Real-time Memory Report at c_bands before calling an iterative solver
          1575 MiB given to the printing process from OS
             0 MiB allocation reported by mallinfo(arena+hblkhd)
        615033 MiB available memory on the node where the printing process lives
------------------
     c_bands:  3 eigenvalues not converged
     c_bands:  4 eigenvalues not converged
     c_bands:  4 eigenvalues not converged
     c_bands:  2 eigenvalues not converged
     c_bands:  3 eigenvalues not converged
     c_bands:  2 eigenvalues not converged
     ethr =  2.42E-05,  avg # of iterations = 23.1

     negative rho (up, down):  1.627E-01 0.000E+00

     total cpu time spent up to now is      743.8 secs

     total energy              =   -1142.86192293 Ry
     estimated scf accuracy    <       0.15856038 Ry
     electrostatic embedding   =      -0.05164368 Ry
     cavitation energy         =       0.04294442 Ry
     electrolyte free energy   =      -0.00125981 Ry
     correction to one-el term =      -6.66660307 Ry

     iteration # 14     ecut=    80.00 Ry     beta= 0.10
     Davidson diagonalization with overlap

---- Real-time Memory Report at c_bands before calling an iterative solver
          1658 MiB given to the printing process from OS
             0 MiB allocation reported by mallinfo(arena+hblkhd)
        612239 MiB available memory on the node where the printing process lives
------------------
     ethr =  2.42E-05,  avg # of iterations =  2.3

     negative rho (up, down):  6.015E-02 0.000E+00

     total cpu time spent up to now is      778.1 secs

     total energy              =   -1142.85654917 Ry
     estimated scf accuracy    <       0.16553356 Ry
     electrostatic embedding   =      -0.05175895 Ry
     cavitation energy         =       0.04294442 Ry
     electrolyte free energy   =      -0.00125981 Ry
     correction to one-el term =      -6.66637253 Ry

     iteration # 15     ecut=    80.00 Ry     beta= 0.10
     Davidson diagonalization with overlap

---- Real-time Memory Report at c_bands before calling an iterative solver
          1664 MiB given to the printing process from OS
             0 MiB allocation reported by mallinfo(arena+hblkhd)
        612426 MiB available memory on the node where the printing process lives
------------------
     c_bands:  1 eigenvalues not converged
     c_bands:  2 eigenvalues not converged
     c_bands:  1 eigenvalues not converged
     ethr =  2.42E-05,  avg # of iterations = 15.7

     negative rho (up, down):  4.283E-02 0.000E+00

     add environment contribution to local potential

     total cpu time spent up to now is      839.0 secs

     total energy              =   -1142.85818016 Ry
     estimated scf accuracy    <       0.08451778 Ry
     electrostatic embedding   =      -0.05410277 Ry
     cavitation energy         =       0.04294442 Ry
     electrolyte free energy   =      -0.00125981 Ry
     correction to one-el term =      -6.66168488 Ry

     iteration # 16     ecut=    80.00 Ry     beta= 0.10
     Davidson diagonalization with overlap

---- Real-time Memory Report at c_bands before calling an iterative solver
          1682 MiB given to the printing process from OS
             0 MiB allocation reported by mallinfo(arena+hblkhd)
        612147 MiB available memory on the node where the printing process lives
------------------
     ethr =  2.42E-05,  avg # of iterations =  7.5

     negative rho (up, down):  2.840E-02 0.000E+00

     total cpu time spent up to now is      877.3 secs

     total energy              =   -1142.85753615 Ry
     estimated scf accuracy    <       0.13536058 Ry
     electrostatic embedding   =      -0.05932327 Ry
     cavitation energy         =       0.04294442 Ry
     electrolyte free energy   =      -0.00170453 Ry
     correction to one-el term =      -9.02132819 Ry

     iteration # 17     ecut=    80.00 Ry     beta= 0.10
     Davidson diagonalization with overlap

---- Real-time Memory Report at c_bands before calling an iterative solver
          1690 MiB given to the printing process from OS
             0 MiB allocation reported by mallinfo(arena+hblkhd)
        612250 MiB available memory on the node where the printing process lives
------------------
     c_bands:  1 eigenvalues not converged
     c_bands:  1 eigenvalues not converged
     ethr =  2.42E-05,  avg # of iterations = 12.8

     negative rho (up, down):  3.661E-02 0.000E+00

     total cpu time spent up to now is      919.2 secs

     total energy              =   -1142.84366968 Ry
     estimated scf accuracy    <       0.10237840 Ry
     electrostatic embedding   =      -0.06204348 Ry
     cavitation energy         =       0.04294442 Ry
     electrolyte free energy   =      -0.00170453 Ry
     correction to one-el term =      -9.01588778 Ry

     iteration # 18     ecut=    80.00 Ry     beta= 0.10
     Davidson diagonalization with overlap

---- Real-time Memory Report at c_bands before calling an iterative solver
          1709 MiB given to the printing process from OS
             0 MiB allocation reported by mallinfo(arena+hblkhd)
        612095 MiB available memory on the node where the printing process lives
------------------
     c_bands:  1 eigenvalues not converged
     ethr =  2.42E-05,  avg # of iterations = 15.0

     negative rho (up, down):  2.617E-02 0.000E+00

     add environment contribution to local potential

     total cpu time spent up to now is      981.0 secs

     total energy              =   -1142.85530777 Ry
     estimated scf accuracy    <       0.03420081 Ry
     electrostatic embedding   =      -0.05462829 Ry
     cavitation energy         =       0.04294442 Ry
     electrolyte free energy   =      -0.00170453 Ry
     correction to one-el term =      -9.03071815 Ry

     iteration # 19     ecut=    80.00 Ry     beta= 0.10
     Davidson diagonalization with overlap

---- Real-time Memory Report at c_bands before calling an iterative solver
          1712 MiB given to the printing process from OS
             0 MiB allocation reported by mallinfo(arena+hblkhd)
        612484 MiB available memory on the node where the printing process lives
------------------
     ethr =  1.50E-05,  avg # of iterations =  7.7

     negative rho (up, down):  7.534E-02 0.000E+00

     add environment contribution to local potential

     total cpu time spent up to now is     1034.5 secs

     total energy              =   -1142.85881618 Ry
     estimated scf accuracy    <       0.04736552 Ry
     electrostatic embedding   =      -0.05467699 Ry
     cavitation energy         =       0.04294442 Ry
     electrolyte free energy   =      -0.00113827 Ry
     correction to one-el term =      -7.51667295 Ry

     iteration # 20     ecut=    80.00 Ry     beta= 0.10
     Davidson diagonalization with overlap

---- Real-time Memory Report at c_bands before calling an iterative solver
          1718 MiB given to the printing process from OS
             0 MiB allocation reported by mallinfo(arena+hblkhd)
        612401 MiB available memory on the node where the printing process lives
------------------
     ethr =  1.50E-05,  avg # of iterations =  5.5

     negative rho (up, down):  4.789E-02 0.000E+00

     total cpu time spent up to now is     1072.2 secs

     total energy              =   -1142.85060942 Ry
     estimated scf accuracy    <       0.12744171 Ry
     electrostatic embedding   =      -0.05436465 Ry
     cavitation energy         =       0.04294442 Ry
     electrolyte free energy   =      -0.00138010 Ry
     correction to one-el term =      -7.91751989 Ry

     iteration # 21     ecut=    80.00 Ry     beta= 0.10
     Davidson diagonalization with overlap

---- Real-time Memory Report at c_bands before calling an iterative solver
          1721 MiB given to the printing process from OS
             0 MiB allocation reported by mallinfo(arena+hblkhd)
        612386 MiB available memory on the node where the printing process lives
------------------
     c_bands:  1 eigenvalues not converged
     c_bands:  1 eigenvalues not converged
     c_bands:  2 eigenvalues not converged
     c_bands:  3 eigenvalues not converged
     c_bands:  1 eigenvalues not converged
     c_bands:  1 eigenvalues not converged
     c_bands:  1 eigenvalues not converged
     c_bands:  2 eigenvalues not converged
     ethr =  1.50E-05,  avg # of iterations = 18.0

     negative rho (up, down):  5.402E-02 0.000E+00

     total cpu time spent up to now is     1126.3 secs

     total energy              =   -1142.86423067 Ry
     estimated scf accuracy    <       0.29159425 Ry
     electrostatic embedding   =      -0.05709399 Ry
     cavitation energy         =       0.04294442 Ry
     electrolyte free energy   =      -0.00138010 Ry
     correction to one-el term =      -7.91206121 Ry

     iteration # 22     ecut=    80.00 Ry     beta= 0.10
     Davidson diagonalization with overlap

---- Real-time Memory Report at c_bands before calling an iterative solver
          1757 MiB given to the printing process from OS
             0 MiB allocation reported by mallinfo(arena+hblkhd)
        611775 MiB available memory on the node where the printing process lives
------------------
     ethr =  1.50E-05,  avg # of iterations =  1.3

     negative rho (up, down):  4.116E-02 0.000E+00

     total cpu time spent up to now is     1159.0 secs

     total energy              =   -1142.86218071 Ry
     estimated scf accuracy    <       0.22018136 Ry
     electrostatic embedding   =      -0.05684190 Ry
     cavitation energy         =       0.04294442 Ry
     electrolyte free energy   =      -0.00138010 Ry
     correction to one-el term =      -7.91256540 Ry

     iteration # 23     ecut=    80.00 Ry     beta= 0.10
     Davidson diagonalization with overlap

---- Real-time Memory Report at c_bands before calling an iterative solver
          1763 MiB given to the printing process from OS
             0 MiB allocation reported by mallinfo(arena+hblkhd)
        611771 MiB available memory on the node where the printing process lives
------------------
     ethr =  1.50E-05,  avg # of iterations =  1.0

     negative rho (up, down):  4.895E-02 0.000E+00

     total cpu time spent up to now is     1191.6 secs

     total energy              =   -1142.86355451 Ry
     estimated scf accuracy    <       0.16505204 Ry
     electrostatic embedding   =      -0.05693972 Ry
     cavitation energy         =       0.04294442 Ry
     electrolyte free energy   =      -0.00138010 Ry
     correction to one-el term =      -7.91236976 Ry

     iteration # 24     ecut=    80.00 Ry     beta= 0.10
     Davidson diagonalization with overlap

---- Real-time Memory Report at c_bands before calling an iterative solver
          1764 MiB given to the printing process from OS
             0 MiB allocation reported by mallinfo(arena+hblkhd)
        611817 MiB available memory on the node where the printing process lives
------------------
     ethr =  1.50E-05,  avg # of iterations =  1.0

     negative rho (up, down):  4.060E-02 0.000E+00

     total cpu time spent up to now is     1223.9 secs

     total energy              =   -1142.86146612 Ry
     estimated scf accuracy    <       0.20032778 Ry
     electrostatic embedding   =      -0.05679745 Ry
     cavitation energy         =       0.04294442 Ry
     electrolyte free energy   =      -0.00138010 Ry
     correction to one-el term =      -7.91265430 Ry

     iteration # 25     ecut=    80.00 Ry     beta= 0.10
     Davidson diagonalization with overlap

---- Real-time Memory Report at c_bands before calling an iterative solver
          1764 MiB given to the printing process from OS
             0 MiB allocation reported by mallinfo(arena+hblkhd)
        611873 MiB available memory on the node where the printing process lives
------------------
     ethr =  1.50E-05,  avg # of iterations =  1.0

     negative rho (up, down):  1.100E-01 0.000E+00

     total cpu time spent up to now is     1256.1 secs

     total energy              =   -1142.87480557 Ry
     estimated scf accuracy    <       0.13938403 Ry
     electrostatic embedding   =      -0.05745583 Ry
     cavitation energy         =       0.04294442 Ry
     electrolyte free energy   =      -0.00138010 Ry
     correction to one-el term =      -7.91133754 Ry

     iteration # 26     ecut=    80.00 Ry     beta= 0.10
     Davidson diagonalization with overlap

---- Real-time Memory Report at c_bands before calling an iterative solver
          1767 MiB given to the printing process from OS
             0 MiB allocation reported by mallinfo(arena+hblkhd)
        611911 MiB available memory on the node where the printing process lives
------------------
     ethr =  1.50E-05,  avg # of iterations =  2.0

     negative rho (up, down):  9.985E-02 0.000E+00

     total cpu time spent up to now is     1290.7 secs

     total energy              =   -1142.87519141 Ry
     estimated scf accuracy    <       0.29692977 Ry
     electrostatic embedding   =      -0.05735077 Ry
     cavitation energy         =       0.04294442 Ry
     electrolyte free energy   =      -0.00138010 Ry
     correction to one-el term =      -7.91154766 Ry

     iteration # 27     ecut=    80.00 Ry     beta= 0.10
     Davidson diagonalization with overlap

---- Real-time Memory Report at c_bands before calling an iterative solver
          1770 MiB given to the printing process from OS
             0 MiB allocation reported by mallinfo(arena+hblkhd)
        612074 MiB available memory on the node where the printing process lives
------------------
     ethr =  1.50E-05,  avg # of iterations =  1.0

     negative rho (up, down):  5.864E-02 0.000E+00

     total cpu time spent up to now is     1322.9 secs

     total energy              =   -1142.83426621 Ry
     estimated scf accuracy    <       0.26696485 Ry
     electrostatic embedding   =      -0.05684554 Ry
     cavitation energy         =       0.04294442 Ry
     electrolyte free energy   =      -0.00138010 Ry
     correction to one-el term =      -7.91255812 Ry

     iteration # 28     ecut=    80.00 Ry     beta= 0.10
     Davidson diagonalization with overlap

---- Real-time Memory Report at c_bands before calling an iterative solver
          1770 MiB given to the printing process from OS
             0 MiB allocation reported by mallinfo(arena+hblkhd)
        612221 MiB available memory on the node where the printing process lives
------------------
     c_bands:  1 eigenvalues not converged
     c_bands:  2 eigenvalues not converged
     c_bands:  1 eigenvalues not converged
     c_bands:  1 eigenvalues not converged
     ethr =  1.50E-05,  avg # of iterations = 16.2

     negative rho (up, down):  6.939E-02 0.000E+00

     add environment contribution to local potential

     total cpu time spent up to now is     1391.3 secs

     total energy              =   -1142.85356273 Ry
     estimated scf accuracy    <       0.02377176 Ry
     electrostatic embedding   =      -0.05408535 Ry
     cavitation energy         =       0.04294442 Ry
     electrolyte free energy   =      -0.00138010 Ry
     correction to one-el term =      -7.91807849 Ry

     iteration # 29     ecut=    80.00 Ry     beta= 0.10
     Davidson diagonalization with overlap

---- Real-time Memory Report at c_bands before calling an iterative solver
          1776 MiB given to the printing process from OS
             0 MiB allocation reported by mallinfo(arena+hblkhd)
        612339 MiB available memory on the node where the printing process lives
------------------
     ethr =  1.04E-05,  avg # of iterations =  2.3

     negative rho (up, down):  8.090E-02 0.000E+00

     add environment contribution to local potential

     total cpu time spent up to now is     1440.4 secs

     total energy              =   -1142.85785477 Ry
     estimated scf accuracy    <       0.03376692 Ry
     electrostatic embedding   =      -0.05592667 Ry
     cavitation energy         =       0.04294442 Ry
     electrolyte free energy   =      -0.00157757 Ry
     correction to one-el term =      -7.37450396 Ry

     iteration # 30     ecut=    80.00 Ry     beta= 0.10
     Davidson diagonalization with overlap

---- Real-time Memory Report at c_bands before calling an iterative solver
          1782 MiB given to the printing process from OS
             0 MiB allocation reported by mallinfo(arena+hblkhd)
        612419 MiB available memory on the node where the printing process lives
------------------
     ethr =  1.04E-05,  avg # of iterations =  1.0

     negative rho (up, down):  3.407E-02 0.000E+00

     add environment contribution to local potential

     total cpu time spent up to now is     1486.5 secs

     total energy              =   -1142.85326050 Ry
     estimated scf accuracy    <       0.04585726 Ry
     electrostatic embedding   =      -0.05530602 Ry
     cavitation energy         =       0.04294442 Ry
     electrolyte free energy   =      -0.00165552 Ry
     correction to one-el term =      -7.56403641 Ry

     iteration # 31     ecut=    80.00 Ry     beta= 0.10
     Davidson diagonalization with overlap

---- Real-time Memory Report at c_bands before calling an iterative solver
          1783 MiB given to the printing process from OS
             0 MiB allocation reported by mallinfo(arena+hblkhd)
        612679 MiB available memory on the node where the printing process lives
------------------
     ethr =  1.04E-05,  avg # of iterations =  9.6

     negative rho (up, down):  8.625E-02 0.000E+00

     add environment contribution to local potential

     total cpu time spent up to now is     1542.8 secs

     total energy              =   -1142.85548148 Ry
     estimated scf accuracy    <       0.05204733 Ry
     electrostatic embedding   =      -0.05566178 Ry
     cavitation energy         =       0.04294442 Ry
     electrolyte free energy   =      -0.00105666 Ry
     correction to one-el term =      -6.29950013 Ry

     iteration # 32     ecut=    80.00 Ry     beta= 0.10
     Davidson diagonalization with overlap

---- Real-time Memory Report at c_bands before calling an iterative solver
          1794 MiB given to the printing process from OS
             0 MiB allocation reported by mallinfo(arena+hblkhd)
        612294 MiB available memory on the node where the printing process lives
------------------
     ethr =  1.04E-05,  avg # of iterations =  9.2

     negative rho (up, down):  4.610E-02 0.000E+00

     add environment contribution to local potential

     total cpu time spent up to now is     1597.9 secs

     total energy              =   -1142.84948317 Ry
     estimated scf accuracy    <       0.07678752 Ry
     electrostatic embedding   =      -0.05518835 Ry
     cavitation energy         =       0.04294442 Ry
     electrolyte free energy   =      -0.00088018 Ry
     correction to one-el term =      -4.96434460 Ry

     iteration # 33     ecut=    80.00 Ry     beta= 0.10
     Davidson diagonalization with overlap

---- Real-time Memory Report at c_bands before calling an iterative solver
          1799 MiB given to the printing process from OS
             0 MiB allocation reported by mallinfo(arena+hblkhd)
        612210 MiB available memory on the node where the printing process lives
------------------
     ethr =  1.04E-05,  avg # of iterations =  2.0

     negative rho (up, down):  4.830E-02 0.000E+00

     add environment contribution to local potential

     total cpu time spent up to now is     1646.5 secs

     total energy              =   -1142.85415461 Ry
     estimated scf accuracy    <       0.02261369 Ry
     electrostatic embedding   =      -0.05955919 Ry
     cavitation energy         =       0.04294442 Ry
     electrolyte free energy   =      -0.00104476 Ry
     correction to one-el term =      -4.93291592 Ry

     iteration # 34     ecut=    80.00 Ry     beta= 0.10
     Davidson diagonalization with overlap

---- Real-time Memory Report at c_bands before calling an iterative solver
          1799 MiB given to the printing process from OS
             0 MiB allocation reported by mallinfo(arena+hblkhd)
        612226 MiB available memory on the node where the printing process lives
------------------
     ethr =  9.92E-06,  avg # of iterations =  1.0

     negative rho (up, down):  4.140E-02 0.000E+00

     add environment contribution to local potential

     total cpu time spent up to now is     1693.2 secs

     total energy              =   -1142.85283501 Ry
     estimated scf accuracy    <       0.02729815 Ry
     electrostatic embedding   =      -0.05838908 Ry
     cavitation energy         =       0.04294442 Ry
     electrolyte free energy   =      -0.00105698 Ry
     correction to one-el term =      -5.01100657 Ry

     iteration # 35     ecut=    80.00 Ry     beta= 0.10
     Davidson diagonalization with overlap

---- Real-time Memory Report at c_bands before calling an iterative solver
          1799 MiB given to the printing process from OS
             0 MiB allocation reported by mallinfo(arena+hblkhd)
        612205 MiB available memory on the node where the printing process lives
------------------
     ethr =  9.92E-06,  avg # of iterations =  1.4

     negative rho (up, down):  5.457E-02 0.000E+00

     add environment contribution to local potential

     total cpu time spent up to now is     1740.2 secs

     total energy              =   -1142.85348895 Ry
     estimated scf accuracy    <       0.01832185 Ry
     electrostatic embedding   =      -0.05996942 Ry
     cavitation energy         =       0.04294442 Ry
     electrolyte free energy   =      -0.00116995 Ry
     correction to one-el term =      -5.43127436 Ry

     iteration # 36     ecut=    80.00 Ry     beta= 0.10
     Davidson diagonalization with overlap

---- Real-time Memory Report at c_bands before calling an iterative solver
          1801 MiB given to the printing process from OS
             0 MiB allocation reported by mallinfo(arena+hblkhd)
        612294 MiB available memory on the node where the printing process lives
------------------
     ethr =  8.04E-06,  avg # of iterations =  2.0

     negative rho (up, down):  2.350E-02 0.000E+00

     add environment contribution to local potential

     total cpu time spent up to now is     1788.8 secs

     total energy              =   -1142.85201414 Ry
     estimated scf accuracy    <       0.03250381 Ry
     electrostatic embedding   =      -0.05956167 Ry
     cavitation energy         =       0.04294442 Ry
     electrolyte free energy   =      -0.00116964 Ry
     correction to one-el term =      -5.09796730 Ry

     iteration # 37     ecut=    80.00 Ry     beta= 0.10
     Davidson diagonalization with overlap

---- Real-time Memory Report at c_bands before calling an iterative solver
          1803 MiB given to the printing process from OS
             0 MiB allocation reported by mallinfo(arena+hblkhd)
        612384 MiB available memory on the node where the printing process lives
------------------
     ethr =  8.04E-06,  avg # of iterations = 10.9

     negative rho (up, down):  1.273E-02 0.000E+00

     add environment contribution to local potential

     total cpu time spent up to now is     1846.5 secs

     total energy              =   -1142.85466703 Ry
     estimated scf accuracy    <       0.01536729 Ry
     electrostatic embedding   =      -0.05933946 Ry
     cavitation energy         =       0.04294442 Ry
     electrolyte free energy   =      -0.00113367 Ry
     correction to one-el term =      -3.61288570 Ry

     iteration # 38     ecut=    80.00 Ry     beta= 0.10
     Davidson diagonalization with overlap

---- Real-time Memory Report at c_bands before calling an iterative solver
          1810 MiB given to the printing process from OS
             0 MiB allocation reported by mallinfo(arena+hblkhd)
        612204 MiB available memory on the node where the printing process lives
------------------
     ethr =  6.74E-06,  avg # of iterations =  3.3

     negative rho (up, down):  1.762E-02 0.000E+00

     add environment contribution to local potential

     total cpu time spent up to now is     1896.1 secs

     total energy              =   -1142.85405887 Ry
     estimated scf accuracy    <       0.01672907 Ry
     electrostatic embedding   =      -0.06029859 Ry
     cavitation energy         =       0.04294442 Ry
     electrolyte free energy   =      -0.00110697 Ry
     correction to one-el term =      -3.68810545 Ry

     iteration # 39     ecut=    80.00 Ry     beta= 0.10
     Davidson diagonalization with overlap

---- Real-time Memory Report at c_bands before calling an iterative solver
          1812 MiB given to the printing process from OS
             0 MiB allocation reported by mallinfo(arena+hblkhd)
        612209 MiB available memory on the node where the printing process lives
------------------
     ethr =  6.74E-06,  avg # of iterations =  1.2

     negative rho (up, down):  3.760E-02 0.000E+00

     add environment contribution to local potential

     total cpu time spent up to now is     1942.9 secs

     total energy              =   -1142.85313215 Ry
     estimated scf accuracy    <       0.01562717 Ry
     electrostatic embedding   =      -0.06068397 Ry
     cavitation energy         =       0.04294442 Ry
     electrolyte free energy   =      -0.00113115 Ry
     correction to one-el term =      -3.64402510 Ry

     iteration # 40     ecut=    80.00 Ry     beta= 0.10
     Davidson diagonalization with overlap

---- Real-time Memory Report at c_bands before calling an iterative solver
          1814 MiB given to the printing process from OS
             0 MiB allocation reported by mallinfo(arena+hblkhd)
        612262 MiB available memory on the node where the printing process lives
------------------
     ethr =  6.74E-06,  avg # of iterations =  7.0

     negative rho (up, down):  3.545E-02 0.000E+00

     add environment contribution to local potential

     total cpu time spent up to now is     1996.2 secs

     total energy              =   -1142.85287875 Ry
     estimated scf accuracy    <       0.01498307 Ry
     electrostatic embedding   =      -0.06115484 Ry
     cavitation energy         =       0.04294442 Ry
     electrolyte free energy   =      -0.00120156 Ry
     correction to one-el term =      -3.75494115 Ry

     iteration # 41     ecut=    80.00 Ry     beta= 0.10
     Davidson diagonalization with overlap

---- Real-time Memory Report at c_bands before calling an iterative solver
          1814 MiB given to the printing process from OS
             0 MiB allocation reported by mallinfo(arena+hblkhd)
        612365 MiB available memory on the node where the printing process lives
------------------
     ethr =  6.57E-06,  avg # of iterations =  2.0

     negative rho (up, down):  2.936E-02 0.000E+00

     add environment contribution to local potential

     total cpu time spent up to now is     2044.4 secs

     total energy              =   -1142.85395992 Ry
     estimated scf accuracy    <       0.01446363 Ry
     electrostatic embedding   =      -0.06192051 Ry
     cavitation energy         =       0.04294442 Ry
     electrolyte free energy   =      -0.00119143 Ry
     correction to one-el term =      -3.28131023 Ry

     iteration # 42     ecut=    80.00 Ry     beta= 0.10
     Davidson diagonalization with overlap

---- Real-time Memory Report at c_bands before calling an iterative solver
          1814 MiB given to the printing process from OS
             0 MiB allocation reported by mallinfo(arena+hblkhd)
        612366 MiB available memory on the node where the printing process lives
------------------
     c_bands:  1 eigenvalues not converged
     ethr =  6.34E-06,  avg # of iterations =  9.6

     negative rho (up, down):  6.878E-02 0.000E+00

     add environment contribution to local potential

     total cpu time spent up to now is     2100.0 secs

     total energy              =   -1142.85293346 Ry
     estimated scf accuracy    <       0.01341437 Ry
     electrostatic embedding   =      -0.06247865 Ry
     cavitation energy         =       0.04294442 Ry
     electrolyte free energy   =      -0.00112792 Ry
     correction to one-el term =      -1.65752524 Ry

     iteration # 43     ecut=    80.00 Ry     beta= 0.10
     Davidson diagonalization with overlap

---- Real-time Memory Report at c_bands before calling an iterative solver
          1814 MiB given to the printing process from OS
             0 MiB allocation reported by mallinfo(arena+hblkhd)
        612350 MiB available memory on the node where the printing process lives
------------------
     c_bands:  1 eigenvalues not converged
     ethr =  5.88E-06,  avg # of iterations = 11.6

     negative rho (up, down):  8.103E-02 0.000E+00

     add environment contribution to local potential

     total cpu time spent up to now is     2162.8 secs

     total energy              =   -1142.85614441 Ry
     estimated scf accuracy    <       0.01021928 Ry
     electrostatic embedding   =      -0.06307376 Ry
     cavitation energy         =       0.04294442 Ry
     electrolyte free energy   =      -0.00151352 Ry
     correction to one-el term =       0.66205339 Ry

     iteration # 44     ecut=    80.00 Ry     beta= 0.10
     Davidson diagonalization with overlap

---- Real-time Memory Report at c_bands before calling an iterative solver
          1825 MiB given to the printing process from OS
             0 MiB allocation reported by mallinfo(arena+hblkhd)
        611531 MiB available memory on the node where the printing process lives
------------------
     ethr =  4.48E-06,  avg # of iterations =  2.1

     negative rho (up, down):  4.585E-02 0.000E+00

     add environment contribution to local potential

     total cpu time spent up to now is     2213.8 secs

     total energy              =   -1142.85314451 Ry
     estimated scf accuracy    <       0.00970332 Ry
     electrostatic embedding   =      -0.06407414 Ry
     cavitation energy         =       0.04294442 Ry
     electrolyte free energy   =      -0.00155456 Ry
     correction to one-el term =       1.15845466 Ry

     iteration # 45     ecut=    80.00 Ry     beta= 0.10
     Davidson diagonalization with overlap

---- Real-time Memory Report at c_bands before calling an iterative solver
          1825 MiB given to the printing process from OS
             0 MiB allocation reported by mallinfo(arena+hblkhd)
        611474 MiB available memory on the node where the printing process lives
------------------
     c_bands:  1 eigenvalues not converged
     c_bands:  2 eigenvalues not converged
     c_bands:  1 eigenvalues not converged
     c_bands:  1 eigenvalues not converged
     c_bands:  1 eigenvalues not converged
     ethr =  4.26E-06,  avg # of iterations = 16.9

     negative rho (up, down):  4.109E-02 0.000E+00

     add environment contribution to local potential

     total cpu time spent up to now is     2280.9 secs

     total energy              =   -1142.85688800 Ry
     estimated scf accuracy    <       0.01999228 Ry
     electrostatic embedding   =      -0.06505220 Ry
     cavitation energy         =       0.04294442 Ry
     electrolyte free energy   =      -0.00224031 Ry
     correction to one-el term =       2.84453174 Ry

     iteration # 46     ecut=    80.00 Ry     beta= 0.10
     Davidson diagonalization with overlap

---- Real-time Memory Report at c_bands before calling an iterative solver
          1836 MiB given to the printing process from OS
             0 MiB allocation reported by mallinfo(arena+hblkhd)
        610915 MiB available memory on the node where the printing process lives
------------------
     c_bands:  1 eigenvalues not converged
     c_bands:  1 eigenvalues not converged
     ethr =  4.26E-06,  avg # of iterations =  6.6

     negative rho (up, down):  6.316E-02 0.000E+00

     add environment contribution to local potential

     total cpu time spent up to now is     2333.6 secs

     total energy              =   -1142.85727841 Ry
     estimated scf accuracy    <       0.00824514 Ry
     electrostatic embedding   =      -0.06570430 Ry
     cavitation energy         =       0.04294442 Ry
     electrolyte free energy   =      -0.00185962 Ry
     correction to one-el term =       3.40923880 Ry

     iteration # 47     ecut=    80.00 Ry     beta= 0.10
     Davidson diagonalization with overlap

---- Real-time Memory Report at c_bands before calling an iterative solver
          1836 MiB given to the printing process from OS
             0 MiB allocation reported by mallinfo(arena+hblkhd)
        610946 MiB available memory on the node where the printing process lives
------------------
     ethr =  3.62E-06,  avg # of iterations = 10.3

     negative rho (up, down):  6.992E-02 0.000E+00

     add environment contribution to local potential

     total cpu time spent up to now is     2392.9 secs

     total energy              =   -1142.85695395 Ry
     estimated scf accuracy    <       0.00826790 Ry
     electrostatic embedding   =      -0.06480954 Ry
     cavitation energy         =       0.04294442 Ry
     electrolyte free energy   =      -0.00170215 Ry
     correction to one-el term =       4.01097761 Ry

     iteration # 48     ecut=    80.00 Ry     beta= 0.10
     Davidson diagonalization with overlap

---- Real-time Memory Report at c_bands before calling an iterative solver
          1836 MiB given to the printing process from OS
             0 MiB allocation reported by mallinfo(arena+hblkhd)
        610743 MiB available memory on the node where the printing process lives
------------------
     ethr =  3.62E-06,  avg # of iterations =  2.1

     negative rho (up, down):  6.358E-02 0.000E+00

     add environment contribution to local potential

     total cpu time spent up to now is     2442.9 secs

     total energy              =   -1142.85568532 Ry
     estimated scf accuracy    <       0.00629268 Ry
     electrostatic embedding   =      -0.06499901 Ry
     cavitation energy         =       0.04294442 Ry
     electrolyte free energy   =      -0.00169558 Ry
     correction to one-el term =       4.94194749 Ry

     iteration # 49     ecut=    80.00 Ry     beta= 0.10
     Davidson diagonalization with overlap

---- Real-time Memory Report at c_bands before calling an iterative solver
          1836 MiB given to the printing process from OS
             0 MiB allocation reported by mallinfo(arena+hblkhd)
        610774 MiB available memory on the node where the printing process lives
------------------
     ethr =  2.76E-06,  avg # of iterations = 12.7

     negative rho (up, down):  5.388E-02 0.000E+00

     add environment contribution to local potential

     total cpu time spent up to now is     2507.9 secs

     total energy              =   -1142.85730709 Ry
     estimated scf accuracy    <       0.00905047 Ry
     electrostatic embedding   =      -0.06681040 Ry
     cavitation energy         =       0.04294442 Ry
     electrolyte free energy   =      -0.00180628 Ry
     correction to one-el term =       6.21808532 Ry

     iteration # 50     ecut=    80.00 Ry     beta= 0.10
     Davidson diagonalization with overlap

---- Real-time Memory Report at c_bands before calling an iterative solver
          1851 MiB given to the printing process from OS
             0 MiB allocation reported by mallinfo(arena+hblkhd)
        610091 MiB available memory on the node where the printing process lives
------------------
     c_bands:  1 eigenvalues not converged
     ethr =  2.76E-06,  avg # of iterations =  7.0

     negative rho (up, down):  5.843E-02 0.000E+00

     add environment contribution to local potential

     total cpu time spent up to now is     2560.7 secs

     total energy              =   -1142.85648819 Ry
     estimated scf accuracy    <       0.00483153 Ry
     electrostatic embedding   =      -0.06580715 Ry
     cavitation energy         =       0.04294442 Ry
     electrolyte free energy   =      -0.00169191 Ry
     correction to one-el term =       6.25661719 Ry

     iteration # 51     ecut=    80.00 Ry     beta= 0.10
     Davidson diagonalization with overlap

---- Real-time Memory Report at c_bands before calling an iterative solver
          1851 MiB given to the printing process from OS
             0 MiB allocation reported by mallinfo(arena+hblkhd)
        610126 MiB available memory on the node where the printing process lives
------------------
     c_bands:  1 eigenvalues not converged
     c_bands:  1 eigenvalues not converged
     ethr =  2.12E-06,  avg # of iterations = 14.4

     negative rho (up, down):  7.500E-02 0.000E+00

     add environment contribution to local potential

     total cpu time spent up to now is     2625.5 secs

     total energy              =   -1142.85840096 Ry
     estimated scf accuracy    <       0.00472436 Ry
     electrostatic embedding   =      -0.06460333 Ry
     cavitation energy         =       0.04294442 Ry
     electrolyte free energy   =      -0.00147069 Ry
     correction to one-el term =       9.44172810 Ry

     iteration # 52     ecut=    80.00 Ry     beta= 0.10
     Davidson diagonalization with overlap

---- Real-time Memory Report at c_bands before calling an iterative solver
          1851 MiB given to the printing process from OS
             0 MiB allocation reported by mallinfo(arena+hblkhd)
        610033 MiB available memory on the node where the printing process lives
------------------
     ethr =  2.07E-06,  avg # of iterations = 12.3

     negative rho (up, down):  7.349E-02 0.000E+00

     add environment contribution to local potential

     total cpu time spent up to now is     2687.0 secs

     total energy              =   -1142.85869134 Ry
     estimated scf accuracy    <       0.00209480 Ry
     electrostatic embedding   =      -0.06383032 Ry
     cavitation energy         =       0.04294442 Ry
     electrolyte free energy   =      -0.00156919 Ry
     correction to one-el term =      10.24971059 Ry

     iteration # 53     ecut=    80.00 Ry     beta= 0.10
     Davidson diagonalization with overlap

---- Real-time Memory Report at c_bands before calling an iterative solver
          1851 MiB given to the printing process from OS
             0 MiB allocation reported by mallinfo(arena+hblkhd)
        609889 MiB available memory on the node where the printing process lives
------------------
     c_bands:  1 eigenvalues not converged
     c_bands:  1 eigenvalues not converged
     c_bands:  1 eigenvalues not converged
     ethr =  9.19E-07,  avg # of iterations = 13.8

     negative rho (up, down):  7.055E-02 0.000E+00

     add environment contribution to local potential

     total cpu time spent up to now is     2748.3 secs

     total energy              =   -1142.85888309 Ry
     estimated scf accuracy    <       0.00387474 Ry
     electrostatic embedding   =      -0.06433131 Ry
     cavitation energy         =       0.04294442 Ry
     electrolyte free energy   =      -0.00195542 Ry
     correction to one-el term =      10.32170947 Ry

     iteration # 54     ecut=    80.00 Ry     beta= 0.10
     Davidson diagonalization with overlap

---- Real-time Memory Report at c_bands before calling an iterative solver
          1851 MiB given to the printing process from OS
             0 MiB allocation reported by mallinfo(arena+hblkhd)
        609704 MiB available memory on the node where the printing process lives
------------------
     ethr =  9.19E-07,  avg # of iterations =  6.4

     negative rho (up, down):  6.944E-02 0.000E+00

     add environment contribution to local potential

     total cpu time spent up to now is     2802.2 secs

     total energy              =   -1142.85931635 Ry
     estimated scf accuracy    <       0.00116810 Ry
     electrostatic embedding   =      -0.06498104 Ry
     cavitation energy         =       0.04294442 Ry
     electrolyte free energy   =      -0.00176572 Ry
     correction to one-el term =      11.36475216 Ry

     iteration # 55     ecut=    80.00 Ry     beta= 0.10
     Davidson diagonalization with overlap

---- Real-time Memory Report at c_bands before calling an iterative solver
          1851 MiB given to the printing process from OS
             0 MiB allocation reported by mallinfo(arena+hblkhd)
        609845 MiB available memory on the node where the printing process lives
------------------
     ethr =  5.12E-07,  avg # of iterations =  8.8

     negative rho (up, down):  4.528E-02 0.000E+00

     add environment contribution to local potential

     total cpu time spent up to now is     2856.8 secs

     total energy              =   -1142.85934265 Ry
     estimated scf accuracy    <       0.00109609 Ry
     electrostatic embedding   =      -0.06547480 Ry
     cavitation energy         =       0.04294442 Ry
     electrolyte free energy   =      -0.00178751 Ry
     correction to one-el term =      11.82934171 Ry

     iteration # 56     ecut=    80.00 Ry     beta= 0.10
     Davidson diagonalization with overlap

---- Real-time Memory Report at c_bands before calling an iterative solver
          1851 MiB given to the printing process from OS
             0 MiB allocation reported by mallinfo(arena+hblkhd)
        609993 MiB available memory on the node where the printing process lives
------------------
     c_bands:  1 eigenvalues not converged
     c_bands:  1 eigenvalues not converged
     c_bands:  1 eigenvalues not converged
     c_bands:  1 eigenvalues not converged
     ethr =  4.81E-07,  avg # of iterations = 16.2

     negative rho (up, down):  3.306E-02 0.000E+00

     add environment contribution to local potential

     total cpu time spent up to now is     2921.7 secs

     total energy              =   -1142.85892101 Ry
     estimated scf accuracy    <       0.00383342 Ry
     electrostatic embedding   =      -0.06347583 Ry
     cavitation energy         =       0.04294442 Ry
     electrolyte free energy   =      -0.00139806 Ry
     correction to one-el term =      13.68762950 Ry

     iteration # 57     ecut=    80.00 Ry     beta= 0.10
     Davidson diagonalization with overlap

---- Real-time Memory Report at c_bands before calling an iterative solver
          1851 MiB given to the printing process from OS
             0 MiB allocation reported by mallinfo(arena+hblkhd)
        609506 MiB available memory on the node where the printing process lives
------------------
     c_bands:  1 eigenvalues not converged
     c_bands:  1 eigenvalues not converged
     c_bands:  1 eigenvalues not converged
     ethr =  4.81E-07,  avg # of iterations = 16.5

     negative rho (up, down):  3.113E-02 0.000E+00

     add environment contribution to local potential

     total cpu time spent up to now is     2987.1 secs

     total energy              =   -1142.85948710 Ry
     estimated scf accuracy    <       0.00116824 Ry
     electrostatic embedding   =      -0.06260298 Ry
     cavitation energy         =       0.04294442 Ry
     electrolyte free energy   =      -0.00150013 Ry
     correction to one-el term =      13.08062062 Ry

     iteration # 58     ecut=    80.00 Ry     beta= 0.10
     Davidson diagonalization with overlap

---- Real-time Memory Report at c_bands before calling an iterative solver
          1851 MiB given to the printing process from OS
             0 MiB allocation reported by mallinfo(arena+hblkhd)
        608827 MiB available memory on the node where the printing process lives
------------------
     c_bands:  1 eigenvalues not converged
     ethr =  4.81E-07,  avg # of iterations =  3.9

     negative rho (up, down):  2.836E-02 0.000E+00

     add environment contribution to local potential

     total cpu time spent up to now is     3037.5 secs

     total energy              =   -1142.85958562 Ry
     estimated scf accuracy    <       0.00061401 Ry
     electrostatic embedding   =      -0.06259082 Ry
     cavitation energy         =       0.04294442 Ry
     electrolyte free energy   =      -0.00154400 Ry
     correction to one-el term =      12.93081841 Ry

     iteration # 59     ecut=    80.00 Ry     beta= 0.10
     Davidson diagonalization with overlap

---- Real-time Memory Report at c_bands before calling an iterative solver
          1851 MiB given to the printing process from OS
             0 MiB allocation reported by mallinfo(arena+hblkhd)
        609020 MiB available memory on the node where the printing process lives
------------------
[...]
     atom   19 type  1   force =     0.00000000    0.00000000    0.00000000
     atom   20 type  1   force =     0.00000000    0.00000000    0.00000000
     atom   21 type  1   force =     0.00000000    0.00000000    0.00000000
     atom   22 type  1   force =     0.00000000    0.00000000    0.00000000
     atom   23 type  1   force =     0.00000000    0.00000000    0.00000000
     atom   24 type  1   force =     0.00000000    0.00000000    0.00000000
     atom   25 type  1   force =     0.00000000    0.00000000    0.00000000
     atom   26 type  1   force =     0.00000000    0.00000000    0.00000000
     atom   27 type  1   force =     0.00000000    0.00000000    0.00000000
     atom   28 type  1   force =     0.00000000    0.00000000    0.00000000
     atom   29 type  1   force =     0.00000000    0.00000000    0.00000000
     atom   30 type  1   force =     0.00000000    0.00000000    0.00000000
     atom   31 type  1   force =     0.00000000    0.00000000    0.00000000
     atom   32 type  1   force =     0.00000000    0.00000000    0.00000000
     atom   33 type  1   force =     0.00000000    0.00000000    0.00000000
     atom   34 type  1   force =     0.00000000    0.00000000    0.00000000
     atom   35 type  1   force =     0.00000000    0.00000000    0.00000000
     atom   36 type  1   force =     0.00000000    0.00000000    0.00000000
     atom   37 type  1   force =     0.00000000    0.00000000    0.00000000
     atom   38 type  1   force =     0.00000000    0.00000000    0.00000000
     atom   39 type  1   force =     0.00000000    0.00000000    0.00000000
     atom   40 type  1   force =     0.00000000    0.00000000    0.00000000
     atom   41 type  1   force =     0.00000000    0.00000000    0.00000000
     atom   42 type  1   force =     0.00000000    0.00000000    0.00000000
     atom   43 type  1   force =     0.00000000    0.00000000    0.00000000
     atom   44 type  1   force =     0.00000000    0.00000000    0.00000000
     atom   45 type  1   force =     0.00000000    0.00000000    0.00000000
     atom   46 type  1   force =     0.00000000    0.00000000    0.00000000
     atom   47 type  1   force =     0.00000000    0.00000000    0.00000000
     atom   48 type  1   force =     0.00000000    0.00000000    0.00000000
     atom   49 type  1   force =     0.00000000    0.00000000    0.00000000
     atom   50 type  1   force =     0.00000000    0.00000000    0.00000000
     atom   51 type  1   force =     0.00000000    0.00000000    0.00000000
     atom   52 type  1   force =     0.00000000    0.00000000    0.00000000
     atom   53 type  1   force =     0.00000000    0.00000000    0.00000000
     atom   54 type  1   force =     0.00000000    0.00000000    0.00000000
     atom   55 type  1   force =     0.00000000    0.00000000    0.00000000
     atom   56 type  1   force =     0.00000000    0.00000000    0.00000000
     atom   57 type  1   force =     0.00000000    0.00000000    0.00000000
     atom   58 type  1   force =     0.00000000    0.00000000    0.00000000
     atom   59 type  1   force =     0.00000000    0.00000000    0.00000000
     atom   60 type  1   force =     0.00000000    0.00000000    0.00000000
     atom   61 type  1   force =     0.00000000    0.00000000    0.00000000
     atom   62 type  1   force =     0.00000000    0.00000000    0.00000000
     atom   63 type  1   force =     0.00000000    0.00000000    0.00000000
     atom   64 type  1   force =     0.00000000    0.00000000    0.00000000
     atom   65 type  1   force =     0.00000000    0.00000000    0.00000000
     atom   66 type  1   force =     0.00000000    0.00000000    0.00000000
     atom   67 type  1   force =     0.00000000    0.00000000    0.00000000
     atom   68 type  1   force =     0.00000000    0.00000000    0.00000000
     atom   69 type  1   force =     0.00000000    0.00000000    0.00000000
     atom   70 type  1   force =     0.00000000    0.00000000    0.00000000
     atom   71 type  1   force =     0.00000000    0.00000000    0.00000000
     atom   72 type  1   force =     0.00000000    0.00000000    0.00000000
     atom   73 type  1   force =     0.00000000    0.00000000    0.00000000
     atom   74 type  1   force =     0.00000000    0.00000000    0.00000000
     atom   75 type  1   force =     0.00000000    0.00000000    0.00000000
     atom   76 type  1   force =     0.00000000    0.00000000    0.00000000
     The Hubbard contrib.    to forces
     atom    1 type  1   force =     0.00000000    0.00000000    0.00000000
     atom    2 type  1   force =     0.00000000    0.00000000    0.00000000
     atom    3 type  1   force =     0.00000000    0.00000000    0.00000000
     atom    4 type  1   force =     0.00000000    0.00000000    0.00000000
     atom    5 type  1   force =     0.00000000    0.00000000    0.00000000
     atom    6 type  1   force =     0.00000000    0.00000000    0.00000000
     atom    7 type  1   force =     0.00000000    0.00000000    0.00000000
     atom    8 type  1   force =     0.00000000    0.00000000    0.00000000
     atom    9 type  1   force =     0.00000000    0.00000000    0.00000000
     atom   10 type  1   force =     0.00000000    0.00000000    0.00000000
     atom   11 type  1   force =     0.00000000    0.00000000    0.00000000
     atom   12 type  1   force =     0.00000000    0.00000000    0.00000000
     atom   13 type  1   force =     0.00000000    0.00000000    0.00000000
     atom   14 type  1   force =     0.00000000    0.00000000    0.00000000
     atom   15 type  1   force =     0.00000000    0.00000000    0.00000000
     atom   16 type  1   force =     0.00000000    0.00000000    0.00000000
     atom   17 type  1   force =     0.00000000    0.00000000    0.00000000
     atom   18 type  1   force =     0.00000000    0.00000000    0.00000000
     atom   19 type  1   force =     0.00000000    0.00000000    0.00000000
     atom   20 type  1   force =     0.00000000    0.00000000    0.00000000
     atom   21 type  1   force =     0.00000000    0.00000000    0.00000000
     atom   22 type  1   force =     0.00000000    0.00000000    0.00000000
     atom   23 type  1   force =     0.00000000    0.00000000    0.00000000
     atom   24 type  1   force =     0.00000000    0.00000000    0.00000000
     atom   25 type  1   force =     0.00000000    0.00000000    0.00000000
     atom   26 type  1   force =     0.00000000    0.00000000    0.00000000
     atom   27 type  1   force =     0.00000000    0.00000000    0.00000000
     atom   28 type  1   force =     0.00000000    0.00000000    0.00000000
     atom   29 type  1   force =     0.00000000    0.00000000    0.00000000
     atom   30 type  1   force =     0.00000000    0.00000000    0.00000000
     atom   31 type  1   force =     0.00000000    0.00000000    0.00000000
     atom   32 type  1   force =     0.00000000    0.00000000    0.00000000
     atom   33 type  1   force =     0.00000000    0.00000000    0.00000000
     atom   34 type  1   force =     0.00000000    0.00000000    0.00000000
     atom   35 type  1   force =     0.00000000    0.00000000    0.00000000
     atom   36 type  1   force =     0.00000000    0.00000000    0.00000000
     atom   37 type  1   force =     0.00000000    0.00000000    0.00000000
     atom   38 type  1   force =     0.00000000    0.00000000    0.00000000
     atom   39 type  1   force =     0.00000000    0.00000000    0.00000000
     atom   40 type  1   force =     0.00000000    0.00000000    0.00000000
     atom   41 type  1   force =     0.00000000    0.00000000    0.00000000
     atom   42 type  1   force =     0.00000000    0.00000000    0.00000000
     atom   43 type  1   force =     0.00000000    0.00000000    0.00000000
     atom   44 type  1   force =     0.00000000    0.00000000    0.00000000
     atom   45 type  1   force =     0.00000000    0.00000000    0.00000000
     atom   46 type  1   force =     0.00000000    0.00000000    0.00000000
     atom   47 type  1   force =     0.00000000    0.00000000    0.00000000
     atom   48 type  1   force =     0.00000000    0.00000000    0.00000000
     atom   49 type  1   force =     0.00000000    0.00000000    0.00000000
     atom   50 type  1   force =     0.00000000    0.00000000    0.00000000
     atom   51 type  1   force =     0.00000000    0.00000000    0.00000000
     atom   52 type  1   force =     0.00000000    0.00000000    0.00000000
     atom   53 type  1   force =     0.00000000    0.00000000    0.00000000
     atom   54 type  1   force =     0.00000000    0.00000000    0.00000000
     atom   55 type  1   force =     0.00000000    0.00000000    0.00000000
     atom   56 type  1   force =     0.00000000    0.00000000    0.00000000
     atom   57 type  1   force =     0.00000000    0.00000000    0.00000000
     atom   58 type  1   force =     0.00000000    0.00000000    0.00000000
     atom   59 type  1   force =     0.00000000    0.00000000    0.00000000
     atom   60 type  1   force =     0.00000000    0.00000000    0.00000000
     atom   61 type  1   force =     0.00000000    0.00000000    0.00000000
     atom   62 type  1   force =     0.00000000    0.00000000    0.00000000
     atom   63 type  1   force =     0.00000000    0.00000000    0.00000000
     atom   64 type  1   force =     0.00000000    0.00000000    0.00000000
     atom   65 type  1   force =     0.00000000    0.00000000    0.00000000
     atom   66 type  1   force =     0.00000000    0.00000000    0.00000000
     atom   67 type  1   force =     0.00000000    0.00000000    0.00000000
     atom   68 type  1   force =     0.00000000    0.00000000    0.00000000
     atom   69 type  1   force =     0.00000000    0.00000000    0.00000000
     atom   70 type  1   force =     0.00000000    0.00000000    0.00000000
     atom   71 type  1   force =     0.00000000    0.00000000    0.00000000
     atom   72 type  1   force =     0.00000000    0.00000000    0.00000000
     atom   73 type  1   force =     0.00000000    0.00000000    0.00000000
     atom   74 type  1   force =     0.00000000    0.00000000    0.00000000
     atom   75 type  1   force =     0.00000000    0.00000000    0.00000000
     atom   76 type  1   force =     0.00000000    0.00000000    0.00000000
     The SCF correction term to forces
     atom    1 type  1   force =     0.00000001    0.00000005   -0.00000007
     atom    2 type  1   force =     0.00000001    0.00000004    0.00000002
     atom    3 type  1   force =     0.00000001    0.00000004    0.00000003
     atom    4 type  1   force =    -0.00000000    0.00000001   -0.00000011
     atom    5 type  1   force =    -0.00000001   -0.00000001   -0.00000017
     atom    6 type  1   force =    -0.00000001   -0.00000000   -0.00000020
     atom    7 type  1   force =    -0.00000001    0.00000001   -0.00000021
     atom    8 type  1   force =    -0.00000001    0.00000002   -0.00000025
     atom    9 type  1   force =     0.00000001    0.00000001   -0.00000026
     atom   10 type  1   force =     0.00000001   -0.00000001   -0.00000024
     atom   11 type  1   force =    -0.00000001    0.00000002   -0.00000022
     atom   12 type  1   force =     0.00000000    0.00000002   -0.00000015
     atom   13 type  1   force =     0.00000001   -0.00000002   -0.00000013
     atom   14 type  1   force =    -0.00000001   -0.00000002   -0.00000014
     atom   15 type  1   force =     0.00000000    0.00000001   -0.00000015
     atom   16 type  1   force =     0.00000001    0.00000003   -0.00000007
     atom   17 type  1   force =     0.00000001    0.00000003   -0.00000008
     atom   18 type  1   force =     0.00000001   -0.00000002   -0.00000014
     atom   19 type  1   force =    -0.00000000   -0.00000005   -0.00000020
     atom   20 type  1   force =    -0.00000001   -0.00000001   -0.00000015
     atom   21 type  1   force =     0.00000001   -0.00000002   -0.00000018
     atom   22 type  1   force =    -0.00000001   -0.00000003   -0.00000022
     atom   23 type  1   force =    -0.00000001    0.00000003   -0.00000025
     atom   24 type  1   force =     0.00000000    0.00000001   -0.00000024
     atom   25 type  1   force =    -0.00000000   -0.00000002   -0.00000028
     atom   26 type  1   force =    -0.00000000   -0.00000000   -0.00000024
     atom   27 type  1   force =     0.00000001   -0.00000001   -0.00000017
     atom   28 type  1   force =    -0.00000000    0.00000002   -0.00000012
     atom   29 type  1   force =    -0.00000001   -0.00000002   -0.00000010
     atom   30 type  1   force =     0.00000000   -0.00000000   -0.00000016
     atom   31 type  1   force =     0.00000002    0.00000002   -0.00000014
     atom   32 type  1   force =     0.00000001    0.00000001   -0.00000008
     atom   33 type  1   force =     0.00000000   -0.00000001   -0.00000012
     atom   34 type  1   force =    -0.00000000   -0.00000008   -0.00000014
     atom   35 type  1   force =     0.00000004   -0.00000003   -0.00000014
     atom   36 type  1   force =    -0.00000001   -0.00000002    0.00000008
     atom   37 type  1   force =     0.00000003    0.00000007    0.00000012
     atom   38 type  1   force =     0.00000001   -0.00000001    0.00000002
     atom   39 type  1   force =     0.00000000    0.00000002   -0.00000007
     atom   40 type  1   force =    -0.00000001    0.00000005    0.00000005
     atom   41 type  1   force =     0.00000000    0.00000005   -0.00000004
     atom   42 type  1   force =     0.00000000    0.00000001   -0.00000011
     atom   43 type  1   force =     0.00000000   -0.00000002   -0.00000018
     atom   44 type  1   force =     0.00000002   -0.00000001   -0.00000016
     atom   45 type  1   force =    -0.00000000    0.00000000   -0.00000020
     atom   46 type  1   force =    -0.00000001    0.00000001   -0.00000027
     atom   47 type  1   force =    -0.00000001   -0.00000002   -0.00000025
     atom   48 type  1   force =    -0.00000001   -0.00000001   -0.00000025
     atom   49 type  1   force =    -0.00000001    0.00000002   -0.00000019
     atom   50 type  1   force =     0.00000000    0.00000002   -0.00000018
     atom   51 type  1   force =     0.00000001   -0.00000001   -0.00000012
     atom   52 type  1   force =    -0.00000000   -0.00000004   -0.00000010
     atom   53 type  1   force =     0.00000001    0.00000003   -0.00000012
     atom   54 type  1   force =    -0.00000000    0.00000002   -0.00000009
     atom   55 type  1   force =     0.00000000    0.00000000   -0.00000008
     atom   56 type  1   force =     0.00000000   -0.00000000   -0.00000015
     atom   57 type  1   force =     0.00000002   -0.00000004   -0.00000023
     atom   58 type  1   force =    -0.00000002   -0.00000002   -0.00000013
     atom   59 type  1   force =     0.00000001   -0.00000002   -0.00000021
     atom   60 type  1   force =     0.00000001   -0.00000002   -0.00000021
     atom   61 type  1   force =     0.00000000    0.00000003   -0.00000024
     atom   62 type  1   force =     0.00000001    0.00000002   -0.00000024
     atom   63 type  1   force =    -0.00000001   -0.00000000   -0.00000026
     atom   64 type  1   force =    -0.00000001   -0.00000001   -0.00000023
     atom   65 type  1   force =     0.00000002   -0.00000000   -0.00000018
     atom   66 type  1   force =     0.00000001    0.00000003   -0.00000015
     atom   67 type  1   force =    -0.00000001   -0.00000003   -0.00000011
     atom   68 type  1   force =    -0.00000001   -0.00000001   -0.00000015
     atom   69 type  1   force =     0.00000000    0.00000000   -0.00000014
     atom   70 type  1   force =     0.00000001    0.00000000   -0.00000005
     atom   71 type  1   force =     0.00000001   -0.00000002   -0.00000015
     atom   72 type  1   force =     0.00000001   -0.00000004   -0.00000019
     atom   73 type  1   force =     0.00000001   -0.00000006   -0.00000019
     atom   74 type  1   force =     0.00000000   -0.00000005    0.00000001
     atom   75 type  1   force =     0.00000003    0.00000005    0.00000007
     atom   76 type  1   force =     0.00000002    0.00000000   -0.00000001

     Total force =     0.001331     Total SCF correction =     0.000001
     Message from routine punch:
     Nothing written, as per user request (disk_io='none')
 
     init_run     :     31.07s CPU     32.44s WALL (       1 calls)
     electrons    :   9698.59s CPU   9758.08s WALL (       1 calls)
     forces       :     62.11s CPU     62.23s WALL (       1 calls)

     Called by init_run:
     wfcinit      :     12.00s CPU     12.12s WALL (       1 calls)
     wfcinit:wfcr :     11.75s CPU     11.86s WALL (      11 calls)
     potinit      :      0.56s CPU      0.72s WALL (       1 calls)
     hinit0       :      7.07s CPU      7.82s WALL (       1 calls)

     Called by electrons:
     c_bands      :   5932.81s CPU   5972.20s WALL (     196 calls)
     sum_band     :   1130.62s CPU   1140.05s WALL (     196 calls)
     v_of_rho     :     42.55s CPU     43.44s WALL (     197 calls)
     v_h          :      4.44s CPU      4.46s WALL (     197 calls)
     v_xc         :     38.10s CPU     38.98s WALL (     197 calls)
     newd         :     18.70s CPU     22.03s WALL (     197 calls)
     PAW_pot      :      2.48s CPU      2.56s WALL (     197 calls)
     mix_rho      :    119.73s CPU    120.27s WALL (     196 calls)

     Called by c_bands:
     init_us_2    :     68.16s CPU     68.56s WALL (    4334 calls)
     cegterg      :   5660.41s CPU   5698.98s WALL (    2161 calls)

     Called by sum_band:
     sum_band:wei :      0.53s CPU      0.56s WALL (     196 calls)
     sum_band:loo :   1094.25s CPU   1099.06s WALL (     196 calls)
     sum_band:buf :      7.09s CPU      7.14s WALL (    2156 calls)
     sum_band:ini :     33.86s CPU     33.93s WALL (    2156 calls)
     sum_band:cal :    171.44s CPU    171.56s WALL (    2156 calls)
     sum_band:bec :      2.54s CPU      2.58s WALL (    2156 calls)
     addusdens    :      9.78s CPU     13.94s WALL (     196 calls)
                                        0.00s GPU  (     196 calls)
     addusd:skk   :      2.02s CPU      3.93s WALL (     196 calls)
                                        0.00s GPU  (     196 calls)

     Called by *egterg:
     cdiaghg      :    202.00s CPU    203.20s WALL (   11160 calls)
     cegterg:over :    199.44s CPU    199.86s WALL (    8999 calls)
     cegterg:upda :    134.46s CPU    135.84s WALL (    8999 calls)
     cegterg:last :    253.88s CPU    264.90s WALL (    3881 calls)
     cdiaghg:chol :     16.23s CPU     16.38s WALL (   11160 calls)
     cdiaghg:inve :      4.98s CPU      5.04s WALL (   11160 calls)
     cdiaghg:para :     41.99s CPU     42.19s WALL (   22320 calls)
     h_psi        :   4554.02s CPU   4576.45s WALL (   11171 calls)
     s_psi        :    221.94s CPU    222.46s WALL (   11171 calls)
     g_psi        :      2.25s CPU      2.28s WALL (    8999 calls)

     Called by h_psi:
     h_psi:calbec :    418.38s CPU    419.06s WALL (   11171 calls)
     vloc_psi     :   3877.29s CPU   3897.89s WALL (   11171 calls)
                                        0.00s GPU  (   11171 calls)
     add_vuspsi   :    246.68s CPU    247.09s WALL (   11171 calls)

     General routines
     calbec       :    593.52s CPU    594.34s WALL (   13371 calls)
     fft          :     50.08s CPU     50.19s WALL (    2561 calls)
     ffts         :     94.36s CPU     94.69s WALL (   24378 calls)
     fftw         :   4689.63s CPU   4714.16s WALL ( 1974804 calls)
     interpolate  :      4.25s CPU      4.38s WALL (     197 calls)
 
     Parallel routines

     PAW routines
     PAW_pot      :      2.48s CPU      2.56s WALL (     197 calls)
 
     Environ routines
 
     PWSCF        :      2h43m CPU      2h44m WALL

 
   This run was terminated on:  14: 9:30  29Dec2024            

=------------------------------------------------------------------------------=
   JOB DONE.
=------------------------------------------------------------------------------=
