
     Program PWSCF v.7.4 starts on  2Jan2025 at 10:45:25 

     This program is part of the open-source Quantum ESPRESSO suite
     for quantum simulation of materials; please cite
         "P. Giannozzi et al., J. Phys.:Condens. Matter 21 395502 (2009);
         "P. Giannozzi et al., J. Phys.:Condens. Matter 29 465901 (2017);
         "P. Giannozzi et al., J. Chem. Phys. 152 154105 (2020);
          URL http://www.quantum-espresso.org", 
     in publications or presentations arising from this work. More details at
     http://www.quantum-espresso.org/quote

     Parallel version (MPI & OpenMP), running on     384 processor cores
     Number of MPI processes:               384
     Threads/MPI process:                     1

     MPI processes distributed on     3 nodes
     229329 MiB available memory on the printing compute node when the environment starts

     Reading input from espresso.pwi
Warning: card &CELL ignored
Warning: card    PRESS_CONV_THR   = 0.1 ignored
Warning: card    CELL_DOFREE      = 'ALL' ignored
Warning: card / ignored
Warning: card &FCP ignored
Warning: card / ignored
Warning: card &RISM ignored
Warning: card / ignored

     Current dimensions of program PWSCF are:
     Max number of different atomic species (ntypx) = 10
     Max number of k-points (npk) =  40000
     Max angular momentum in pseudopotentials (lmaxx) =  4

     IMPORTANT: XC functional enforced from input :
     Exchange-correlation= PBE
                           (   1   4   3   4   0   0   0)
     Any further DFT definition will be discarded
     Please, verify this is what you really want


     Reading input from environ.in:
     * using ionic solvent mode
     * setting boundary derivatives method to SSCS default
     * setting electrolyte-boundary derivatives method to SSCS default

Environ Warning (1001): card EOF ignored

     
     Found identity + (  0.5000  0.0000 -0.0000) symmetry
     This is a supercell, fractional translations are disabled

     K-points division:     npool     =       2
     R & G space division:  proc/nbgrp/npool/nimage =     192
     Subspace diagonalization in iterative solution of the eigenvalue problem:
     a serial algorithm will be used


     Parallelization info
     --------------------
     sticks:   dense  smooth     PW     G-vecs:    dense   smooth      PW
     Min          62      25      6                33436     8439    1136
     Max          63      27      7                33505     8489    1207
     Sum       11999    4803   1285              6425037  1625491  225007

     Using Slab Decomposition



     bravais-lattice index     =            8
     lattice parameter (alat)  =      12.9830  a.u.
     unit-cell volume          =   16814.9378 (a.u.)^3
     number of atoms/cell      =           20
     number of atomic types    =            1
     number of electrons       =        60.00
     number of Kohn-Sham states=           45
     kinetic-energy cutoff     =      80.0000  Ry
     charge density cutoff     =     800.0000  Ry
     scf convergence threshold =      1.0E-06
     mixing beta               =       0.2000
     number of iterations used =            8  local-TF  mixing
     energy convergence thresh.=      1.0E-05
     force convergence thresh. =      3.9E-04
     Exchange-correlation= PBE
                           (   1   4   3   4   0   0   0)
     nstep                     =          999


     ================================================================================

                                  Environ Setup Summary

     ================================================================================

     Please cite

          O. Andreussi, I. Dabo and N. Marzari, J. Chem. Phys. 136, 064102 (2012)
          F. Nattino, M. Truscott, N. Marzari, and O. Andreussi, J. Chem. Phys. 150, 041722 (2019)

     in publications or presentations arising from this work.

     ================================================================================

     Parameters
     ==========

     compensation onset threshold      =               0.1000E+00
     static permittivity               =                    89.90
     surface tension in input (dyn/cm) =                    37.30
     surface tension in internal units =               0.4792E-04

     Solvent Boundary
     ================

     solvent mode                      =                    ionic
     derivatives method                =                   lowmem
     electrolyte derivatives method    =                   lowmem
     numerical core for derivatives    =                      fft
     switching function adopted        =                     SCCS
     density limit for vacuum region   =               0.5000E-02
     density limit for bulk solvent    =               0.1000E-03
     soft-sphere radius mode           =                    bondi
     soft-sphere softness              =                     0.50
     alpha                             =                     1.32

     Electrostatic Setup
     ===================

     electrostatic problem to solve    =                    modpb
     numerical solver adopted          =                   newton
     type of auxiliary density adopted =                     none
     numerical core for poisson        =                      fft
     adopting a nested solver scheme
     inner solver                      =                       cg
     inner core                        =                      fft
     type of pbc corrections           =                parabolic
     numerical core for corrections    =                      1da

     ================================================================================


     >>>>> Grand-Canonical SCF is activated <<<<<
     Initial Total Charge  =     0.000000 e
     Target Fermi Energy   =    -2.904000 eV
     Thr. of Fermi Energy  =     0.001000 eV
     Wave-shift of Kerker  =     0.400000 bohr^-1
     Wave-shift of Hartree =     1.500000 bohr^-1
     Mixing Rate of Fermi  =     0.050000

     celldm(1)=  12.983009  celldm(2)=   1.118034  celldm(3)=   6.872491
     celldm(4)=   0.000000  celldm(5)=   0.000000  celldm(6)=   0.000000

     crystal axes: (cart. coord. in units of alat)
               a(1) = (   1.000000   0.000000   0.000000 )  
               a(2) = (   0.000000   1.118034   0.000000 )  
               a(3) = (   0.000000   0.000000   6.872491 )  

     reciprocal axes: (cart. coord. in units 2 pi/alat)
               b(1) = (  1.000000  0.000000  0.000000 )  
               b(2) = (  0.000000  0.894427  0.000000 )  
               b(3) = (  0.000000  0.000000  0.145508 )  


     PseudoPot. # 1 for Li read from file:
     /work/e89/e89/ba3g18/Repos/Pseudopotentials/Pslibrary/Li.pbe-sl-kjpaw_psl.1.0.0.UPF
     MD5 check sum: 3f4d2cafebb47c6c3aa8ed472e6f074d
     Pseudo is Projector augmented-wave, Zval =  3.0
     Generated using 'atomic' code by A. Dal Corso  v.7.4
     Shape of augmentation charge: PSQ
     Using radial grid of 1017 points,  4 beta functions with: 
                l(1) =   0
                l(2) =   0
                l(3) =   1
                l(4) =   1
     Q(r) pseudized with 0 coefficients 


     atomic species   valence    mass     pseudopotential
     Li                3.00     6.94000     Li( 1.00)

      2 Sym. Ops. (no inversion) found


                                    s                        frac. trans.

      isym =  1     identity                                     

 cryst.   s( 1) = (     1          0          0      )
                  (     0          1          0      )
                  (     0          0          1      )

 cart.    s( 1) = (  1.0000000  0.0000000  0.0000000 )
                  (  0.0000000  1.0000000  0.0000000 )
                  (  0.0000000  0.0000000  1.0000000 )


      isym =  2     inv. 180 deg rotation - cart. axis [1,0,0]   

 cryst.   s( 2) = (    -1          0          0      )
                  (     0          1          0      )
                  (     0          0          1      )

 cart.    s( 2) = ( -1.0000000  0.0000000  0.0000000 )
                  (  0.0000000  1.0000000  0.0000000 )
                  (  0.0000000  0.0000000  1.0000000 )


     point group C_s (m)    
     there are  2 classes
     the character table:

       E     s    
A'     1.00  1.00
A''    1.00 -1.00

     the symmetry operations in each class and the name of the first element:

     E        1
          identity                                               
     s        2
          inv. 180 deg rotation - cart. axis [1,0,0]             

   Cartesian axes

     site n.     atom                  positions (alat units)
         1        Li     tau(   1) = (  -0.0000000   0.4639580   3.7024679  )
         2        Li     tau(   2) = (  -0.0000000   0.8879446   3.5022693  )
         3        Li     tau(   3) = (  -0.0000000   0.2262136   3.2627459  )
         4        Li     tau(   4) = (  -0.0000000   0.6184584   3.0240172  )
         5        Li     tau(   5) = (  -0.0000000   0.1061957   3.9808207  )
         6        Li     tau(   6) = (   0.2499983   0.5655020   3.3702158  )
         7        Li     tau(   7) = (   0.2499990   0.9894853   3.1700224  )
         8        Li     tau(   8) = (   0.2499999   0.2292084   2.8916791  )
         9        Li     tau(   9) = (   0.2499995   0.8349868   3.8484666  )
        10        Li     tau(  10) = (   0.2499974   0.1091967   3.6097449  )
        11        Li     tau(  11) = (   0.5000000   0.4639599   3.7024644  )
        12        Li     tau(  12) = (   0.5000000   0.8879476   3.5022707  )
        13        Li     tau(  13) = (   0.5000000   0.2262134   3.2627482  )
        14        Li     tau(  14) = (   0.5000000   0.6184584   3.0240199  )
        15        Li     tau(  15) = (   0.5000000   0.1061970   3.9808129  )
        16        Li     tau(  16) = (   0.7500017   0.5655020   3.3702158  )
        17        Li     tau(  17) = (   0.7500010   0.9894853   3.1700224  )
        18        Li     tau(  18) = (   0.7500001   0.2292084   2.8916791  )
        19        Li     tau(  19) = (   0.7500004   0.8349868   3.8484666  )
        20        Li     tau(  20) = (   0.7500026   0.1091967   3.6097449  )

   Crystallographic axes

     site n.     atom                  positions (cryst. coord.)
         1        Li     tau(   1) = ( -0.0000000  0.4149767  0.5387374  )
         2        Li     tau(   2) = ( -0.0000000  0.7942018  0.5096070  )
         3        Li     tau(   3) = ( -0.0000000  0.2023316  0.4747545  )
         4        Li     tau(   4) = ( -0.0000000  0.5531660  0.4400176  )
         5        Li     tau(   5) = ( -0.0000000  0.0949843  0.5792399  )
         6        Li     tau(   6) = (  0.2499983  0.5058003  0.4903922  )
         7        Li     tau(   7) = (  0.2499990  0.8850226  0.4612625  )
         8        Li     tau(   8) = (  0.2499999  0.2050102  0.4207614  )
         9        Li     tau(   9) = (  0.2499995  0.7468349  0.5599813  )
        10        Li     tau(  10) = (  0.2499974  0.0976685  0.5252455  )
        11        Li     tau(  11) = (  0.5000000  0.4149784  0.5387369  )
        12        Li     tau(  12) = (  0.5000000  0.7942044  0.5096072  )
        13        Li     tau(  13) = (  0.5000000  0.2023314  0.4747548  )
        14        Li     tau(  14) = (  0.5000000  0.5531660  0.4400180  )
        15        Li     tau(  15) = (  0.5000000  0.0949855  0.5792387  )
        16        Li     tau(  16) = (  0.7500017  0.5058003  0.4903922  )
        17        Li     tau(  17) = (  0.7500010  0.8850226  0.4612625  )
        18        Li     tau(  18) = (  0.7500001  0.2050102  0.4207614  )
        19        Li     tau(  19) = (  0.7500004  0.7468349  0.5599813  )
        20        Li     tau(  20) = (  0.7500026  0.0976685  0.5252455  )

     number of k points=    30  Marzari-Vanderbilt smearing, width (Ry)=  0.0100
                       cart. coord. in units 2pi/alat
        k(    1) = (   0.0000000   0.0000000   0.0000000), wk =   0.0222222
        k(    2) = (   0.0000000   0.0993808   0.0000000), wk =   0.0444444
        k(    3) = (   0.0000000   0.1987616   0.0000000), wk =   0.0444444
        k(    4) = (   0.0000000   0.2981424   0.0000000), wk =   0.0444444
        k(    5) = (   0.0000000   0.3975232   0.0000000), wk =   0.0444444
        k(    6) = (   0.1000000   0.0000000   0.0000000), wk =   0.0444444
        k(    7) = (   0.1000000   0.0993808   0.0000000), wk =   0.0888889
        k(    8) = (   0.1000000   0.1987616   0.0000000), wk =   0.0888889
        k(    9) = (   0.1000000   0.2981424   0.0000000), wk =   0.0888889
        k(   10) = (   0.1000000   0.3975232   0.0000000), wk =   0.0888889
        k(   11) = (   0.2000000   0.0000000   0.0000000), wk =   0.0444444
        k(   12) = (   0.2000000   0.0993808   0.0000000), wk =   0.0888889
        k(   13) = (   0.2000000   0.1987616   0.0000000), wk =   0.0888889
        k(   14) = (   0.2000000   0.2981424   0.0000000), wk =   0.0888889
        k(   15) = (   0.2000000   0.3975232   0.0000000), wk =   0.0888889
        k(   16) = (   0.3000000   0.0000000   0.0000000), wk =   0.0444444
        k(   17) = (   0.3000000   0.0993808   0.0000000), wk =   0.0888889
        k(   18) = (   0.3000000   0.1987616   0.0000000), wk =   0.0888889
        k(   19) = (   0.3000000   0.2981424   0.0000000), wk =   0.0888889
        k(   20) = (   0.3000000   0.3975232   0.0000000), wk =   0.0888889
        k(   21) = (   0.4000000   0.0000000   0.0000000), wk =   0.0444444
        k(   22) = (   0.4000000   0.0993808   0.0000000), wk =   0.0888889
        k(   23) = (   0.4000000   0.1987616   0.0000000), wk =   0.0888889
        k(   24) = (   0.4000000   0.2981424   0.0000000), wk =   0.0888889
        k(   25) = (   0.4000000   0.3975232   0.0000000), wk =   0.0888889
        k(   26) = (  -0.5000000   0.0000000   0.0000000), wk =   0.0222222
        k(   27) = (  -0.5000000   0.0993808   0.0000000), wk =   0.0444444
        k(   28) = (  -0.5000000   0.1987616   0.0000000), wk =   0.0444444
        k(   29) = (  -0.5000000   0.2981424   0.0000000), wk =   0.0444444
        k(   30) = (  -0.5000000   0.3975232   0.0000000), wk =   0.0444444

                       cryst. coord.
        k(    1) = (   0.0000000   0.0000000   0.0000000), wk =   0.0222222
        k(    2) = (   0.0000000   0.1111111   0.0000000), wk =   0.0444444
        k(    3) = (   0.0000000   0.2222222   0.0000000), wk =   0.0444444
        k(    4) = (   0.0000000   0.3333333   0.0000000), wk =   0.0444444
        k(    5) = (   0.0000000   0.4444444   0.0000000), wk =   0.0444444
        k(    6) = (   0.1000000   0.0000000   0.0000000), wk =   0.0444444
        k(    7) = (   0.1000000   0.1111111   0.0000000), wk =   0.0888889
        k(    8) = (   0.1000000   0.2222222   0.0000000), wk =   0.0888889
        k(    9) = (   0.1000000   0.3333333   0.0000000), wk =   0.0888889
        k(   10) = (   0.1000000   0.4444444   0.0000000), wk =   0.0888889
        k(   11) = (   0.2000000   0.0000000   0.0000000), wk =   0.0444444
        k(   12) = (   0.2000000   0.1111111   0.0000000), wk =   0.0888889
        k(   13) = (   0.2000000   0.2222222   0.0000000), wk =   0.0888889
        k(   14) = (   0.2000000   0.3333333   0.0000000), wk =   0.0888889
        k(   15) = (   0.2000000   0.4444444   0.0000000), wk =   0.0888889
        k(   16) = (   0.3000000   0.0000000   0.0000000), wk =   0.0444444
        k(   17) = (   0.3000000   0.1111111   0.0000000), wk =   0.0888889
        k(   18) = (   0.3000000   0.2222222   0.0000000), wk =   0.0888889
        k(   19) = (   0.3000000   0.3333333   0.0000000), wk =   0.0888889
        k(   20) = (   0.3000000   0.4444444   0.0000000), wk =   0.0888889
        k(   21) = (   0.4000000   0.0000000   0.0000000), wk =   0.0444444
        k(   22) = (   0.4000000   0.1111111   0.0000000), wk =   0.0888889
        k(   23) = (   0.4000000   0.2222222   0.0000000), wk =   0.0888889
        k(   24) = (   0.4000000   0.3333333   0.0000000), wk =   0.0888889
        k(   25) = (   0.4000000   0.4444444   0.0000000), wk =   0.0888889
        k(   26) = (  -0.5000000   0.0000000   0.0000000), wk =   0.0222222
        k(   27) = (  -0.5000000   0.1111111   0.0000000), wk =   0.0444444
        k(   28) = (  -0.5000000   0.2222222   0.0000000), wk =   0.0444444
        k(   29) = (  -0.5000000   0.3333333   0.0000000), wk =   0.0444444
        k(   30) = (  -0.5000000   0.4444444   0.0000000), wk =   0.0444444

     Dense  grid:  6425037 G-vectors     FFT dimensions: ( 120, 135, 810)

     Smooth grid:  1625491 G-vectors     FFT dimensions: (  75,  90, 512)

     Dynamical RAM for                 wfc:       0.73 MB

     Dynamical RAM for     wfc (w. buffer):      11.62 MB

     Dynamical RAM for           str. fact:       0.51 MB

     Dynamical RAM for           local pot:       0.00 MB

     Dynamical RAM for          nlocal pot:       2.58 MB

     Dynamical RAM for                qrad:       0.65 MB

     Dynamical RAM for          rho,v,vnew:       3.38 MB

     Dynamical RAM for               rhoin:       1.13 MB

     Dynamical RAM for            rho*nmix:       8.16 MB

     Dynamical RAM for           G-vectors:       1.98 MB

     Dynamical RAM for          h,s,v(r/c):       1.48 MB

     Dynamical RAM for          <psi|beta>:       0.11 MB

     Dynamical RAM for                 psi:       2.91 MB

     Dynamical RAM for                hpsi:       2.91 MB

     Dynamical RAM for                spsi:       2.91 MB

     Dynamical RAM for      wfcinit/wfcrot:       1.50 MB

     Dynamical RAM for           addusdens:      16.33 MB

     Dynamical RAM for          addusforce:      26.04 MB

     Estimated static dynamical RAM per process >      25.97 MB

     Estimated max dynamical RAM per process >      98.04 MB

     Estimated total dynamical RAM >      21.03 GB

     Initial potential from superposition of free atoms

     starting charge      59.9078, renormalised to      60.0000

     negative rho (up, down):  2.761E-03 0.000E+00
     Starting wfcs are random
     Checking if some PAW data can be deallocated... 

     total cpu time spent up to now is       21.4 secs

     Self-consistent Calculation

     iteration #  1     ecut=    80.00 Ry     beta= 0.20
     Davidson diagonalization with overlap

---- Real-time Memory Report at c_bands before calling an iterative solver
           367 MiB given to the printing process from OS
             0 MiB allocation reported by mallinfo(arena+hblkhd)
        214719 MiB available memory on the node where the printing process lives
------------------
     c_bands:  1 eigenvalues not converged
     c_bands:  1 eigenvalues not converged
     ethr =  1.00E-12,  avg # of iterations =110.7

     negative rho (up, down):  2.028E-03 0.000E+00

     total cpu time spent up to now is      100.5 secs

     total energy              =    -300.75152759 Ry
     estimated scf accuracy    <       0.10319690 Ry

     total charge of GC-SCF    =       0.03959900 e
     the Fermi energy          =      -4.55298641 eV
                        (error :       1.64898641 eV)
     electrostatic embedding   =       0.00000000 Ry
     cavitation energy         =       0.02293695 Ry
     electrolyte free energy   =       0.00723735 Ry
     correction to one-el term =      -0.00000000 Ry

     iteration #  2     ecut=    80.00 Ry     beta= 0.20
     Davidson diagonalization with overlap

---- Real-time Memory Report at c_bands before calling an iterative solver
           367 MiB given to the printing process from OS
             0 MiB allocation reported by mallinfo(arena+hblkhd)
        214759 MiB available memory on the node where the printing process lives
------------------
     ethr =  1.00E-05,  avg # of iterations =  9.3

     negative rho (up, down):  1.434E-03 0.000E+00

     add environment contribution to local potential

     total cpu time spent up to now is      114.2 secs

     total energy              =    -300.54811821 Ry
     estimated scf accuracy    <       0.04137721 Ry

     total charge of GC-SCF    =       0.09659921 e
     the Fermi energy          =      -4.05827829 eV
                        (error :       1.15427829 eV)
     electrostatic embedding   =       0.00022195 Ry
     cavitation energy         =       0.02293695 Ry
     electrolyte free energy   =       0.00723735 Ry
     correction to one-el term =      -0.00000000 Ry

     iteration #  3     ecut=    80.00 Ry     beta= 0.20
     Davidson diagonalization with overlap

---- Real-time Memory Report at c_bands before calling an iterative solver
           367 MiB given to the printing process from OS
             0 MiB allocation reported by mallinfo(arena+hblkhd)
        214819 MiB available memory on the node where the printing process lives
------------------
     ethr =  1.00E-05,  avg # of iterations = 18.1

     negative rho (up, down):  1.197E-03 0.000E+00

     add environment contribution to local potential

     total cpu time spent up to now is      132.5 secs

     total energy              =    -300.62377576 Ry
     estimated scf accuracy    <       0.00926005 Ry

     total charge of GC-SCF    =       0.08654606 e
     the Fermi energy          =      -2.79176666 eV
                        (error :       0.11223334 eV)
     electrostatic embedding   =      -0.02461861 Ry
     cavitation energy         =       0.02293695 Ry
     electrolyte free energy   =      -0.00255512 Ry
     correction to one-el term =      -3.07754916 Ry

     iteration #  4     ecut=    80.00 Ry     beta= 0.20
     Davidson diagonalization with overlap

---- Real-time Memory Report at c_bands before calling an iterative solver
           367 MiB given to the printing process from OS
             0 MiB allocation reported by mallinfo(arena+hblkhd)
        214935 MiB available memory on the node where the printing process lives
------------------
     ethr =  1.00E-05,  avg # of iterations =  9.3

     negative rho (up, down):  9.712E-04 0.000E+00

     add environment contribution to local potential

     total cpu time spent up to now is      146.1 secs

     total energy              =    -300.62482763 Ry
     estimated scf accuracy    <       0.00688871 Ry

     total charge of GC-SCF    =       0.13878439 e
     the Fermi energy          =      -3.10059082 eV
                        (error :       0.19659082 eV)
     electrostatic embedding   =      -0.02420712 Ry
     cavitation energy         =       0.02293695 Ry
     electrolyte free energy   =      -0.00345569 Ry
     correction to one-el term =      -2.65995246 Ry

     iteration #  5     ecut=    80.00 Ry     beta= 0.20
     Davidson diagonalization with overlap

---- Real-time Memory Report at c_bands before calling an iterative solver
           367 MiB given to the printing process from OS
             0 MiB allocation reported by mallinfo(arena+hblkhd)
        215023 MiB available memory on the node where the printing process lives
------------------
     ethr =  1.00E-05,  avg # of iterations =  8.0

     negative rho (up, down):  8.083E-04 0.000E+00

     add environment contribution to local potential

     total cpu time spent up to now is      158.2 secs

     total energy              =    -300.62108356 Ry
     estimated scf accuracy    <       0.00273894 Ry

     total charge of GC-SCF    =       0.18955573 e
     the Fermi energy          =      -2.91032535 eV
                        (error :       0.00632535 eV)
     electrostatic embedding   =      -0.02637354 Ry
     cavitation energy         =       0.02293695 Ry
     electrolyte free energy   =      -0.00245048 Ry
     correction to one-el term =      -2.69669857 Ry

     iteration #  6     ecut=    80.00 Ry     beta= 0.20
     Davidson diagonalization with overlap

---- Real-time Memory Report at c_bands before calling an iterative solver
           367 MiB given to the printing process from OS
             0 MiB allocation reported by mallinfo(arena+hblkhd)
        215033 MiB available memory on the node where the printing process lives
------------------
     ethr =  4.58E-06,  avg # of iterations = 19.0

     negative rho (up, down):  7.154E-04 0.000E+00

     add environment contribution to local potential

     total cpu time spent up to now is      176.1 secs

     total energy              =    -300.65055568 Ry
     estimated scf accuracy    <       0.00126165 Ry

     total charge of GC-SCF    =       0.24429105 e
     the Fermi energy          =      -2.61130833 eV
                        (error :       0.29269167 eV)
     electrostatic embedding   =      -0.03291992 Ry
     cavitation energy         =       0.02293695 Ry
     electrolyte free energy   =      -0.00191407 Ry
     correction to one-el term =      -2.86592017 Ry

     iteration #  7     ecut=    80.00 Ry     beta= 0.20
     Davidson diagonalization with overlap

---- Real-time Memory Report at c_bands before calling an iterative solver
           367 MiB given to the printing process from OS
             0 MiB allocation reported by mallinfo(arena+hblkhd)
        215105 MiB available memory on the node where the printing process lives
------------------
     ethr =  2.11E-06,  avg # of iterations = 16.3

     negative rho (up, down):  6.422E-04 0.000E+00

     add environment contribution to local potential

     total cpu time spent up to now is      193.5 secs

     total energy              =    -300.64170266 Ry
     estimated scf accuracy    <       0.00243310 Ry

     total charge of GC-SCF    =       0.24568691 e
     the Fermi energy          =      -2.49821710 eV
                        (error :       0.40578290 eV)
     electrostatic embedding   =      -0.04460825 Ry
     cavitation energy         =       0.02293695 Ry
     electrolyte free energy   =      -0.00214536 Ry
     correction to one-el term =      -2.89760991 Ry

     iteration #  8     ecut=    80.00 Ry     beta= 0.20
     Davidson diagonalization with overlap

---- Real-time Memory Report at c_bands before calling an iterative solver
           367 MiB given to the printing process from OS
             0 MiB allocation reported by mallinfo(arena+hblkhd)
        215098 MiB available memory on the node where the printing process lives
------------------
     ethr =  2.11E-06,  avg # of iterations =  9.5

     negative rho (up, down):  6.632E-04 0.000E+00

     add environment contribution to local potential

     total cpu time spent up to now is      206.3 secs

     total energy              =    -300.64009275 Ry
     estimated scf accuracy    <       0.00059653 Ry

     total charge of GC-SCF    =       0.25923130 e
     the Fermi energy          =      -2.60940014 eV
                        (error :       0.29459986 eV)
     electrostatic embedding   =      -0.04404182 Ry
     cavitation energy         =       0.02293695 Ry
     electrolyte free energy   =      -0.00203358 Ry
     correction to one-el term =      -3.01396628 Ry

     iteration #  9     ecut=    80.00 Ry     beta= 0.20
     Davidson diagonalization with overlap

---- Real-time Memory Report at c_bands before calling an iterative solver
           367 MiB given to the printing process from OS
             0 MiB allocation reported by mallinfo(arena+hblkhd)
        215085 MiB available memory on the node where the printing process lives
------------------
     ethr =  9.99E-07,  avg # of iterations = 13.8

     negative rho (up, down):  7.415E-04 0.000E+00

     add environment contribution to local potential

     total cpu time spent up to now is      221.8 secs

     total energy              =    -300.64202942 Ry
     estimated scf accuracy    <       0.00010197 Ry

     total charge of GC-SCF    =       0.27758203 e
     the Fermi energy          =      -2.69626608 eV
                        (error :       0.20773392 eV)
     electrostatic embedding   =      -0.04485035 Ry
     cavitation energy         =       0.02293695 Ry
     electrolyte free energy   =      -0.00211714 Ry
     correction to one-el term =      -3.51987767 Ry

     iteration # 10     ecut=    80.00 Ry     beta= 0.20
     Davidson diagonalization with overlap

---- Real-time Memory Report at c_bands before calling an iterative solver
           367 MiB given to the printing process from OS
             0 MiB allocation reported by mallinfo(arena+hblkhd)
        215054 MiB available memory on the node where the printing process lives
------------------
     ethr =  1.71E-07,  avg # of iterations = 16.3

     negative rho (up, down):  5.318E-04 0.000E+00

     add environment contribution to local potential

     total cpu time spent up to now is      239.6 secs

     total energy              =    -300.64105405 Ry
     estimated scf accuracy    <       0.00013329 Ry

     total charge of GC-SCF    =       0.27552160 e
     the Fermi energy          =      -2.68314275 eV
                        (error :       0.22085725 eV)
     electrostatic embedding   =      -0.04791925 Ry
     cavitation energy         =       0.02293695 Ry
     electrolyte free energy   =      -0.00215425 Ry
     correction to one-el term =      -3.83753755 Ry

     iteration # 11     ecut=    80.00 Ry     beta= 0.20
     Davidson diagonalization with overlap

---- Real-time Memory Report at c_bands before calling an iterative solver
           367 MiB given to the printing process from OS
             0 MiB allocation reported by mallinfo(arena+hblkhd)
        215071 MiB available memory on the node where the printing process lives
------------------
     ethr =  1.71E-07,  avg # of iterations = 13.8

     negative rho (up, down):  5.198E-04 0.000E+00

     add environment contribution to local potential

     total cpu time spent up to now is      255.9 secs

     total energy              =    -300.64047511 Ry
     estimated scf accuracy    <       0.00008228 Ry

     total charge of GC-SCF    =       0.29795004 e
     the Fermi energy          =      -2.71617742 eV
                        (error :       0.18782258 eV)
     electrostatic embedding   =      -0.04434935 Ry
     cavitation energy         =       0.02293695 Ry
     electrolyte free energy   =      -0.00217851 Ry
     correction to one-el term =      -4.32637858 Ry

     iteration # 12     ecut=    80.00 Ry     beta= 0.20
     Davidson diagonalization with overlap

---- Real-time Memory Report at c_bands before calling an iterative solver
           367 MiB given to the printing process from OS
             0 MiB allocation reported by mallinfo(arena+hblkhd)
        215090 MiB available memory on the node where the printing process lives
------------------
     ethr =  1.38E-07,  avg # of iterations = 12.6

     negative rho (up, down):  4.393E-04 0.000E+00

     add environment contribution to local potential

     total cpu time spent up to now is      271.4 secs

     total energy              =    -300.64104078 Ry
     estimated scf accuracy    <       0.00002289 Ry

     total charge of GC-SCF    =       0.33266279 e
     the Fermi energy          =      -2.77383859 eV
                        (error :       0.13016141 eV)
     electrostatic embedding   =      -0.04570584 Ry
     cavitation energy         =       0.02293695 Ry
     electrolyte free energy   =      -0.00230273 Ry
     correction to one-el term =      -5.09544633 Ry

     iteration # 13     ecut=    80.00 Ry     beta= 0.20
     Davidson diagonalization with overlap

---- Real-time Memory Report at c_bands before calling an iterative solver
           367 MiB given to the printing process from OS
             0 MiB allocation reported by mallinfo(arena+hblkhd)
        215042 MiB available memory on the node where the printing process lives
------------------
     ethr =  3.84E-08,  avg # of iterations = 12.8

     negative rho (up, down):  4.056E-04 0.000E+00

     add environment contribution to local potential

     total cpu time spent up to now is      287.1 secs

     total energy              =    -300.64195007 Ry
     estimated scf accuracy    <       0.00000690 Ry

     total charge of GC-SCF    =       0.34119921 e
     the Fermi energy          =      -2.77556224 eV
                        (error :       0.12843776 eV)
     electrostatic embedding   =      -0.04832866 Ry
     cavitation energy         =       0.02293695 Ry
     electrolyte free energy   =      -0.00234869 Ry
     correction to one-el term =      -6.22015502 Ry

     iteration # 14     ecut=    80.00 Ry     beta= 0.20
     Davidson diagonalization with overlap

---- Real-time Memory Report at c_bands before calling an iterative solver
           367 MiB given to the printing process from OS
             0 MiB allocation reported by mallinfo(arena+hblkhd)
        215062 MiB available memory on the node where the printing process lives
------------------
     ethr =  1.16E-08,  avg # of iterations = 11.7

     negative rho (up, down):  3.725E-04 0.000E+00

     add environment contribution to local potential

     total cpu time spent up to now is      302.4 secs

     total energy              =    -300.64155738 Ry
     estimated scf accuracy    <       0.00000541 Ry

     total charge of GC-SCF    =       0.37913719 e
     the Fermi energy          =      -2.78408847 eV
                        (error :       0.11991153 eV)
     electrostatic embedding   =      -0.04900634 Ry
     cavitation energy         =       0.02293695 Ry
     electrolyte free energy   =      -0.00237084 Ry
     correction to one-el term =      -6.45237815 Ry

     iteration # 15     ecut=    80.00 Ry     beta= 0.20
     Davidson diagonalization with overlap

---- Real-time Memory Report at c_bands before calling an iterative solver
           367 MiB given to the printing process from OS
             0 MiB allocation reported by mallinfo(arena+hblkhd)
        215061 MiB available memory on the node where the printing process lives
------------------
     ethr =  9.08E-09,  avg # of iterations = 13.2

     negative rho (up, down):  3.556E-04 0.000E+00

     add environment contribution to local potential

     total cpu time spent up to now is      317.4 secs

     total energy              =    -300.64190079 Ry
     estimated scf accuracy    <       0.00000403 Ry

     total charge of GC-SCF    =       0.43144587 e
     the Fermi energy          =      -2.79539612 eV
                        (error :       0.10860388 eV)
     electrostatic embedding   =      -0.05301496 Ry
     cavitation energy         =       0.02293695 Ry
     electrolyte free energy   =      -0.00244324 Ry
     correction to one-el term =      -7.53692651 Ry

     iteration # 16     ecut=    80.00 Ry     beta= 0.20
     Davidson diagonalization with overlap

---- Real-time Memory Report at c_bands before calling an iterative solver
           367 MiB given to the printing process from OS
             0 MiB allocation reported by mallinfo(arena+hblkhd)
        215058 MiB available memory on the node where the printing process lives
------------------
     ethr =  6.77E-09,  avg # of iterations = 20.3

     negative rho (up, down):  3.446E-04 0.000E+00

     add environment contribution to local potential

     total cpu time spent up to now is      336.6 secs

     total energy              =    -300.64288825 Ry
     estimated scf accuracy    <       0.00000416 Ry

     total charge of GC-SCF    =       0.51925317 e
     the Fermi energy          =      -2.81352744 eV
                        (error :       0.09047256 eV)
     electrostatic embedding   =      -0.06007720 Ry
     cavitation energy         =       0.02293695 Ry
     electrolyte free energy   =      -0.00256427 Ry
     correction to one-el term =      -8.98961694 Ry

     iteration # 17     ecut=    80.00 Ry     beta= 0.20
     Davidson diagonalization with overlap

---- Real-time Memory Report at c_bands before calling an iterative solver
           367 MiB given to the printing process from OS
             0 MiB allocation reported by mallinfo(arena+hblkhd)
        215060 MiB available memory on the node where the printing process lives
------------------
     ethr =  6.77E-09,  avg # of iterations = 18.7

     negative rho (up, down):  3.401E-04 0.000E+00

     add environment contribution to local potential

     total cpu time spent up to now is      355.9 secs

     total energy              =    -300.64311700 Ry
     estimated scf accuracy    <       0.00000206 Ry

     total charge of GC-SCF    =       0.56862326 e
     the Fermi energy          =      -2.83890337 eV
                        (error :       0.06509663 eV)
     electrostatic embedding   =      -0.07459422 Ry
     cavitation energy         =       0.02293695 Ry
     electrolyte free energy   =      -0.00277863 Ry
     correction to one-el term =     -11.45087176 Ry

     iteration # 18     ecut=    80.00 Ry     beta= 0.20
     Davidson diagonalization with overlap

---- Real-time Memory Report at c_bands before calling an iterative solver
           367 MiB given to the printing process from OS
             0 MiB allocation reported by mallinfo(arena+hblkhd)
        215064 MiB available memory on the node where the printing process lives
------------------
     ethr =  3.47E-09,  avg # of iterations = 18.5

     negative rho (up, down):  3.404E-04 0.000E+00

     add environment contribution to local potential

     total cpu time spent up to now is      374.2 secs

     total energy              =    -300.64360451 Ry
     estimated scf accuracy    <       0.00000164 Ry

     total charge of GC-SCF    =       0.62787418 e
     the Fermi energy          =      -2.85441090 eV
                        (error :       0.04958910 eV)
     electrostatic embedding   =      -0.08444644 Ry
     cavitation energy         =       0.02293695 Ry
     electrolyte free energy   =      -0.00291346 Ry
     correction to one-el term =     -12.81256365 Ry

     iteration # 19     ecut=    80.00 Ry     beta= 0.20
     Davidson diagonalization with overlap

---- Real-time Memory Report at c_bands before calling an iterative solver
           367 MiB given to the printing process from OS
             0 MiB allocation reported by mallinfo(arena+hblkhd)
        215096 MiB available memory on the node where the printing process lives
------------------
     ethr =  2.77E-09,  avg # of iterations = 16.9

     negative rho (up, down):  3.390E-04 0.000E+00

     add environment contribution to local potential

     total cpu time spent up to now is      392.0 secs

     total energy              =    -300.64354131 Ry
     estimated scf accuracy    <       0.00000059 Ry

     total charge of GC-SCF    =       0.65346433 e
     the Fermi energy          =      -2.87467535 eV
                        (error :       0.02932465 eV)
     electrostatic embedding   =      -0.09802397 Ry
     cavitation energy         =       0.02293695 Ry
     electrolyte free energy   =      -0.00309697 Ry
     correction to one-el term =     -14.49942617 Ry

     iteration # 20     ecut=    80.00 Ry     beta= 0.20
     Davidson diagonalization with overlap

---- Real-time Memory Report at c_bands before calling an iterative solver
           367 MiB given to the printing process from OS
             0 MiB allocation reported by mallinfo(arena+hblkhd)
        215104 MiB available memory on the node where the printing process lives
------------------
     ethr =  9.89E-10,  avg # of iterations = 19.6

     negative rho (up, down):  3.340E-04 0.000E+00

     add environment contribution to local potential

     total cpu time spent up to now is      411.3 secs

     total energy              =    -300.64358671 Ry
     estimated scf accuracy    <       0.00000043 Ry

     total charge of GC-SCF    =       0.67376461 e
     the Fermi energy          =      -2.88304598 eV
                        (error :       0.02095402 eV)
     electrostatic embedding   =      -0.10436645 Ry
     cavitation energy         =       0.02293695 Ry
     electrolyte free energy   =      -0.00317722 Ry
     correction to one-el term =     -15.19803466 Ry

     iteration # 21     ecut=    80.00 Ry     beta= 0.20
     Davidson diagonalization with overlap

---- Real-time Memory Report at c_bands before calling an iterative solver
           367 MiB given to the printing process from OS
             0 MiB allocation reported by mallinfo(arena+hblkhd)
        215114 MiB available memory on the node where the printing process lives
------------------
     ethr =  7.33E-10,  avg # of iterations = 17.4

     negative rho (up, down):  3.317E-04 0.000E+00

     add environment contribution to local potential

     total cpu time spent up to now is      428.9 secs

     total energy              =    -300.64364983 Ry
     estimated scf accuracy    <       0.00000025 Ry

     total charge of GC-SCF    =       0.69604007 e
     the Fermi energy          =      -2.89022572 eV
                        (error :       0.01377428 eV)
     electrostatic embedding   =      -0.10960382 Ry
     cavitation energy         =       0.02293695 Ry
     electrolyte free energy   =      -0.00324475 Ry
     correction to one-el term =     -15.76160203 Ry

     iteration # 22     ecut=    80.00 Ry     beta= 0.20
     Davidson diagonalization with overlap

---- Real-time Memory Report at c_bands before calling an iterative solver
           367 MiB given to the printing process from OS
             0 MiB allocation reported by mallinfo(arena+hblkhd)
        215123 MiB available memory on the node where the printing process lives
------------------
     ethr =  4.24E-10,  avg # of iterations = 17.5

     negative rho (up, down):  3.268E-04 0.000E+00

     add environment contribution to local potential

     total cpu time spent up to now is      447.2 secs

     total energy              =    -300.64360801 Ry
     estimated scf accuracy    <       0.00000008 Ry

     total charge of GC-SCF    =       0.70048960 e
     the Fermi energy          =      -2.89791072 eV
                        (error :       0.00608928 eV)
     electrostatic embedding   =      -0.11563982 Ry
     cavitation energy         =       0.02293695 Ry
     electrolyte free energy   =      -0.00332191 Ry
     correction to one-el term =     -16.39048564 Ry

     iteration # 23     ecut=    80.00 Ry     beta= 0.20
     Davidson diagonalization with overlap

---- Real-time Memory Report at c_bands before calling an iterative solver
           367 MiB given to the printing process from OS
             0 MiB allocation reported by mallinfo(arena+hblkhd)
        215126 MiB available memory on the node where the printing process lives
------------------
     ethr =  1.34E-10,  avg # of iterations = 18.0

     negative rho (up, down):  3.210E-04 0.000E+00

     add environment contribution to local potential

     total cpu time spent up to now is      464.0 secs

     total energy              =    -300.64361761 Ry
     estimated scf accuracy    <       0.00000005 Ry

     total charge of GC-SCF    =       0.70877268 e
     the Fermi energy          =      -2.89934962 eV
                        (error :       0.00465038 eV)
     electrostatic embedding   =      -0.11684632 Ry
     cavitation energy         =       0.02293695 Ry
     electrolyte free energy   =      -0.00333612 Ry
     correction to one-el term =     -16.51495598 Ry

     iteration # 24     ecut=    80.00 Ry     beta= 0.20
     Davidson diagonalization with overlap

---- Real-time Memory Report at c_bands before calling an iterative solver
           367 MiB given to the printing process from OS
             0 MiB allocation reported by mallinfo(arena+hblkhd)
        215135 MiB available memory on the node where the printing process lives
------------------
     ethr =  8.09E-11,  avg # of iterations = 18.2

     negative rho (up, down):  3.185E-04 0.000E+00

     add environment contribution to local potential

     total cpu time spent up to now is      482.5 secs

     total energy              =    -300.64361022 Ry
     estimated scf accuracy    <       0.00000002 Ry

     total charge of GC-SCF    =       0.70916096 e
     the Fermi energy          =      -2.90189066 eV
                        (error :       0.00210934 eV)
     electrostatic embedding   =      -0.11907986 Ry
     cavitation energy         =       0.02293695 Ry
     electrolyte free energy   =      -0.00336204 Ry
     correction to one-el term =     -16.74846574 Ry

     iteration # 25     ecut=    80.00 Ry     beta= 0.20
     Davidson diagonalization with overlap

---- Real-time Memory Report at c_bands before calling an iterative solver
           367 MiB given to the printing process from OS
             0 MiB allocation reported by mallinfo(arena+hblkhd)
        215142 MiB available memory on the node where the printing process lives
------------------
     ethr =  2.70E-11,  avg # of iterations = 16.1

     negative rho (up, down):  3.170E-04 0.000E+00

     add environment contribution to local potential

     total cpu time spent up to now is      499.2 secs

     total energy              =    -300.64361045 Ry
     estimated scf accuracy    <          4.6E-09 Ry

     total charge of GC-SCF    =       0.71128837 e
     the Fermi energy          =      -2.90231714 eV
                        (error :       0.00168286 eV)
     electrostatic embedding   =      -0.11917504 Ry
     cavitation energy         =       0.02293695 Ry
     electrolyte free energy   =      -0.00336418 Ry
     correction to one-el term =     -16.76248547 Ry

     iteration # 26     ecut=    80.00 Ry     beta= 0.20
     Davidson diagonalization with overlap

---- Real-time Memory Report at c_bands before calling an iterative solver
           367 MiB given to the printing process from OS
             0 MiB allocation reported by mallinfo(arena+hblkhd)
        215119 MiB available memory on the node where the printing process lives
------------------
     ethr =  7.71E-12,  avg # of iterations = 34.3

     negative rho (up, down):  3.100E-04 0.000E+00

     total cpu time spent up to now is      521.6 secs

     End of self-consistent calculation

          k = 0.0000 0.0000 0.0000 (203379 PWs)   bands (ev):

   -50.5714 -50.5714 -50.5700 -50.5700 -50.1458 -50.1457 -50.1443 -50.1443
   -49.7235 -49.7234 -49.7220 -49.7219 -49.4502 -49.4434 -49.4433 -49.4412
   -49.4321 -49.4286 -49.4286 -49.4260  -6.1322  -5.2517  -4.2765  -4.1802
    -3.9590  -3.7136  -3.7136  -3.3038  -3.1807  -2.8864  -2.8864  -2.4401
    -2.2953  -2.2953  -2.0595  -1.9573  -1.9573  -1.6839  -1.6708  -1.6707
    -1.3016  -0.4731  -0.3354  -0.2037  -0.2037

     occupation numbers 
     1.0000   1.0000   1.0000   1.0000   1.0000   1.0000   1.0000   1.0000
     1.0000   1.0000   1.0000   1.0000   1.0000   1.0000   1.0000   1.0000
     1.0000   1.0000   1.0000   1.0000   1.0000   1.0000   1.0000   1.0000
     1.0000   1.0000   1.0000   1.0019   1.0377   0.3208   0.3208   0.0000
     0.0000   0.0000   0.0000   0.0000   0.0000   0.0000   0.0000   0.0000
     0.0000   0.0000   0.0000   0.0000   0.0000

          k = 0.0000 0.0994 0.0000 (203275 PWs)   bands (ev):

   -50.5714 -50.5714 -50.5700 -50.5700 -50.1458 -50.1457 -50.1443 -50.1443
   -49.7235 -49.7234 -49.7220 -49.7219 -49.4502 -49.4434 -49.4433 -49.4413
   -49.4320 -49.4286 -49.4286 -49.4261  -6.1086  -5.2309  -4.6068  -4.0261
    -3.7507  -3.6925  -3.6925  -3.5929  -2.8800  -2.8799  -2.8517  -2.4267
    -2.4267  -2.3958  -2.2986  -1.9814  -1.9814  -1.5609  -1.5307  -1.5307
    -1.1503  -0.6676  -0.2278  -0.2073  -0.2073

     occupation numbers 
     1.0000   1.0000   1.0000   1.0000   1.0000   1.0000   1.0000   1.0000
     1.0000   1.0000   1.0000   1.0000   1.0000   1.0000   1.0000   1.0000
     1.0000   1.0000   1.0000   1.0000   1.0000   1.0000   1.0000   1.0000
     1.0000   1.0000   1.0000   1.0000   0.2925   0.2924   0.1858   0.0000
     0.0000   0.0000   0.0000   0.0000   0.0000   0.0000   0.0000   0.0000
     0.0000   0.0000   0.0000   0.0000   0.0000

          k = 0.0000 0.1988 0.0000 (203225 PWs)   bands (ev):

   -50.5714 -50.5714 -50.5700 -50.5700 -50.1458 -50.1457 -50.1443 -50.1443
   -49.7235 -49.7234 -49.7220 -49.7219 -49.4501 -49.4434 -49.4433 -49.4416
   -49.4318 -49.4286 -49.4286 -49.4262  -6.0379  -5.1822  -4.9323  -4.1207
    -3.7728  -3.6296  -3.6296  -3.3042  -2.8805  -2.8805  -2.6442  -2.6441
    -2.6338  -2.5430  -2.2158  -2.0405  -2.0405  -1.5570  -1.2938  -1.2938
    -0.8765  -0.7266  -0.1696  -0.1696  -0.1309

     occupation numbers 
     1.0000   1.0000   1.0000   1.0000   1.0000   1.0000   1.0000   1.0000
     1.0000   1.0000   1.0000   1.0000   1.0000   1.0000   1.0000   1.0000
     1.0000   1.0000   1.0000   1.0000   1.0000   1.0000   1.0000   1.0000
     1.0000   1.0000   1.0000   1.0019   0.2949   0.2949   0.0006   0.0006
     0.0004   0.0000   0.0000   0.0000   0.0000   0.0000   0.0000   0.0000
     0.0000   0.0000   0.0000   0.0000   0.0000

          k = 0.0000 0.2981 0.0000 (203169 PWs)   bands (ev):

   -50.5714 -50.5714 -50.5700 -50.5700 -50.1458 -50.1457 -50.1443 -50.1443
   -49.7235 -49.7234 -49.7220 -49.7219 -49.4499 -49.4434 -49.4433 -49.4419
   -49.4315 -49.4286 -49.4286 -49.4263  -5.9201  -5.3025  -5.0016  -4.3689
    -3.7191  -3.5254  -3.5254  -2.9998  -2.9998  -2.9686  -2.8245  -2.7319
    -2.7318  -2.3666  -2.1132  -2.1132  -1.9471  -1.6266  -1.1102  -1.1101
    -0.9629  -0.2935  -0.0835  -0.0623  -0.0622

     occupation numbers 
     1.0000   1.0000   1.0000   1.0000   1.0000   1.0000   1.0000   1.0000
     1.0000   1.0000   1.0000   1.0000   1.0000   1.0000   1.0000   1.0000
     1.0000   1.0000   1.0000   1.0000   1.0000   1.0000   1.0000   1.0000
     1.0000   1.0000   1.0000   0.9013   0.9013   0.7544   0.1114   0.0111
     0.0111   0.0000   0.0000   0.0000   0.0000   0.0000   0.0000   0.0000
     0.0000   0.0000   0.0000   0.0000   0.0000

          k = 0.0000 0.3975 0.0000 (203234 PWs)   bands (ev):

   -50.5714 -50.5714 -50.5700 -50.5700 -50.1458 -50.1457 -50.1443 -50.1443
   -49.7235 -49.7234 -49.7220 -49.7219 -49.4499 -49.4434 -49.4433 -49.4421
   -49.4313 -49.4286 -49.4286 -49.4264  -5.7557  -5.5463  -4.8694  -4.5990
    -3.6191  -3.3825  -3.3825  -3.1976  -3.1976  -3.1503  -2.7203  -2.7203
    -2.5172  -2.2502  -2.1659  -2.1659  -1.9017  -1.6039  -1.0193  -1.0193
    -0.9834  -0.2092  -0.0614   0.0235   0.0235

     occupation numbers 
     1.0000   1.0000   1.0000   1.0000   1.0000   1.0000   1.0000   1.0000
     1.0000   1.0000   1.0000   1.0000   1.0000   1.0000   1.0000   1.0000
     1.0000   1.0000   1.0000   1.0000   1.0000   1.0000   1.0000   1.0000
     1.0000   1.0001   1.0001   1.0280   1.0280   1.0581   0.0078   0.0078
     0.0000   0.0000   0.0000   0.0000   0.0000   0.0000   0.0000   0.0000
     0.0000   0.0000   0.0000   0.0000   0.0000

          k = 0.1000 0.0000 0.0000 (203333 PWs)   bands (ev):

   -50.5714 -50.5714 -50.5701 -50.5700 -50.1457 -50.1457 -50.1444 -50.1443
   -49.7235 -49.7234 -49.7220 -49.7219 -49.4501 -49.4441 -49.4427 -49.4412
   -49.4321 -49.4290 -49.4281 -49.4260  -6.1082  -5.2272  -4.2522  -4.1744
    -4.1557  -3.9340  -3.3113  -3.2794  -3.2057  -3.1541  -2.5467  -2.4234
    -2.4131  -2.3921  -2.1849  -2.0325  -1.8951  -1.6553  -1.5998  -1.5546
    -1.2812  -0.4460  -0.3518  -0.3079  -0.1247

     occupation numbers 
     1.0000   1.0000   1.0000   1.0000   1.0000   1.0000   1.0000   1.0000
     1.0000   1.0000   1.0000   1.0000   1.0000   1.0000   1.0000   1.0000
     1.0000   1.0000   1.0000   1.0000   1.0000   1.0000   1.0000   1.0000
     1.0000   1.0000   1.0015   1.0039   1.0240   1.0555   0.0000   0.0000
     0.0000   0.0000   0.0000   0.0000   0.0000   0.0000   0.0000   0.0000
     0.0000   0.0000   0.0000   0.0000   0.0000

          k = 0.1000 0.0994 0.0000 (203258 PWs)   bands (ev):

   -50.5714 -50.5714 -50.5701 -50.5700 -50.1457 -50.1457 -50.1444 -50.1443
   -49.7235 -49.7234 -49.7220 -49.7219 -49.4501 -49.4441 -49.4427 -49.4413
   -49.4320 -49.4290 -49.4281 -49.4261  -6.0846  -5.2064  -4.5825  -4.1523
    -4.0011  -3.7259  -3.5677  -3.2963  -3.1872  -2.8253  -2.7808  -2.4486
    -2.3690  -2.2812  -2.2728  -2.1702  -1.9326  -1.6301  -1.5303  -1.3837
    -1.1307  -0.6423  -0.3404  -0.1978  -0.1003

     occupation numbers 
     1.0000   1.0000   1.0000   1.0000   1.0000   1.0000   1.0000   1.0000
     1.0000   1.0000   1.0000   1.0000   1.0000   1.0000   1.0000   1.0000
     1.0000   1.0000   1.0000   1.0000   1.0000   1.0000   1.0000   1.0000
     1.0000   1.0000   1.0000   1.0024   1.0338   0.1131   0.0419   0.0000
     0.0000   0.0000   0.0000   0.0000   0.0000   0.0000   0.0000   0.0000
     0.0000   0.0000   0.0000   0.0000   0.0000

          k = 0.1000 0.1988 0.0000 (203264 PWs)   bands (ev):

   -50.5714 -50.5714 -50.5701 -50.5700 -50.1457 -50.1457 -50.1444 -50.1443
   -49.7235 -49.7234 -49.7220 -49.7219 -49.4500 -49.4441 -49.4427 -49.4416
   -49.4317 -49.4290 -49.4281 -49.4262  -6.0139  -5.1578  -4.9080  -4.0960
    -4.0861  -3.7476  -3.2784  -3.2683  -3.1330  -3.0571  -2.6085  -2.5169
    -2.5151  -2.3512  -2.2161  -2.1895  -1.9293  -1.5282  -1.4444  -1.1858
    -0.8501  -0.7058  -0.3642  -0.1005   0.0099

     occupation numbers 
     1.0000   1.0000   1.0000   1.0000   1.0000   1.0000   1.0000   1.0000
     1.0000   1.0000   1.0000   1.0000   1.0000   1.0000   1.0000   1.0000
     1.0000   1.0000   1.0000   1.0000   1.0000   1.0000   1.0000   1.0000
     1.0000   1.0000   1.0041   1.0054   1.0695   1.0591   0.0001   0.0000
     0.0000   0.0000   0.0000   0.0000   0.0000   0.0000   0.0000   0.0000
     0.0000   0.0000   0.0000   0.0000   0.0000

          k = 0.1000 0.2981 0.0000 (203250 PWs)   bands (ev):

   -50.5714 -50.5713 -50.5701 -50.5700 -50.1457 -50.1457 -50.1444 -50.1443
   -49.7235 -49.7234 -49.7220 -49.7219 -49.4498 -49.4441 -49.4427 -49.4419
   -49.4315 -49.4290 -49.4281 -49.4263  -5.8961  -5.2785  -4.9770  -4.3443
    -3.9760  -3.6939  -3.4025  -3.1190  -3.0421  -2.9422  -2.7984  -2.6363
    -2.5303  -2.3379  -2.2361  -1.9206  -1.9109  -1.5997  -1.2333  -1.0257
    -0.9358  -0.3321  -0.2707  -0.0541   0.1433

     occupation numbers 
     1.0000   1.0000   1.0000   1.0000   1.0000   1.0000   1.0000   1.0000
     1.0000   1.0000   1.0000   1.0000   1.0000   1.0000   1.0000   1.0000
     1.0000   1.0000   1.0000   1.0000   1.0000   1.0000   1.0000   1.0000
     1.0000   1.0000   1.0000   1.0772   1.0332   0.6115   0.0636   0.0004
     0.0000   0.0000   0.0000   0.0000   0.0000   0.0000   0.0000   0.0000
     0.0000   0.0000   0.0000   0.0000   0.0000

          k = 0.1000 0.3975 0.0000 (203200 PWs)   bands (ev):

   -50.5714 -50.5713 -50.5701 -50.5700 -50.1457 -50.1457 -50.1444 -50.1443
   -49.7235 -49.7234 -49.7220 -49.7219 -49.4498 -49.4441 -49.4427 -49.4421
   -49.4313 -49.4290 -49.4281 -49.4264  -5.7317  -5.5224  -4.8450  -4.5744
    -3.8230  -3.6273  -3.5941  -3.1247  -3.0453  -2.9339  -2.7482  -2.7023
    -2.4876  -2.2341  -2.2205  -1.9001  -1.8767  -1.5779  -1.1194  -0.9815
    -0.9556  -0.1836  -0.0957  -0.0433   0.2008

     occupation numbers 
     1.0000   1.0000   1.0000   1.0000   1.0000   1.0000   1.0000   1.0000
     1.0000   1.0000   1.0000   1.0000   1.0000   1.0000   1.0000   1.0000
     1.0000   1.0000   1.0000   1.0000   1.0000   1.0000   1.0000   1.0000
     1.0000   1.0000   1.0000   1.0744   1.0397   0.5656   0.0178   0.0044
     0.0000   0.0000   0.0000   0.0000   0.0000   0.0000   0.0000   0.0000
     0.0000   0.0000   0.0000   0.0000   0.0000

          k = 0.2000 0.0000 0.0000 (203263 PWs)   bands (ev):

   -50.5713 -50.5713 -50.5701 -50.5701 -50.1456 -50.1456 -50.1445 -50.1444
   -49.7234 -49.7233 -49.7221 -49.7220 -49.4498 -49.4450 -49.4422 -49.4412
   -49.4319 -49.4295 -49.4277 -49.4261  -6.0362  -5.1536  -4.5869  -4.1793
    -4.0822  -3.8591  -3.7060  -3.2068  -3.0749  -2.8186  -2.7184  -2.6589
    -2.4856  -2.3326  -2.0663  -2.0087  -1.9521  -1.5747  -1.5708  -1.4079
    -1.2210  -0.3673  -0.3472  -0.3125  -0.2265

     occupation numbers 
     1.0000   1.0000   1.0000   1.0000   1.0000   1.0000   1.0000   1.0000
     1.0000   1.0000   1.0000   1.0000   1.0000   1.0000   1.0000   1.0000
     1.0000   1.0000   1.0000   1.0000   1.0000   1.0000   1.0000   1.0000
     1.0000   1.0000   1.0000   1.0234   1.0770   0.0987   0.0074   0.0010
     0.0000   0.0000   0.0000   0.0000   0.0000   0.0000   0.0000   0.0000
     0.0000   0.0000   0.0000   0.0000   0.0000

          k = 0.2000 0.0994 0.0000 (203259 PWs)   bands (ev):

   -50.5713 -50.5713 -50.5701 -50.5701 -50.1456 -50.1456 -50.1445 -50.1444
   -49.7234 -49.7233 -49.7221 -49.7220 -49.4498 -49.4450 -49.4422 -49.4413
   -49.4318 -49.4295 -49.4277 -49.4262  -6.0126  -5.1328  -4.5642  -4.5100
    -3.9264  -3.6885  -3.6520  -3.4926  -3.1238  -2.7464  -2.6516  -2.5474
    -2.3559  -2.2898  -2.2630  -2.1954  -1.8594  -1.5516  -1.4387  -1.3710
    -1.0742  -0.5687  -0.4541  -0.2178  -0.1081

     occupation numbers 
     1.0000   1.0000   1.0000   1.0000   1.0000   1.0000   1.0000   1.0000
     1.0000   1.0000   1.0000   1.0000   1.0000   1.0000   1.0000   1.0000
     1.0000   1.0000   1.0000   1.0000   1.0000   1.0000   1.0000   1.0000
     1.0000   1.0000   1.0000   1.0000   1.0748   0.0169   0.0007   0.0000
     0.0000   0.0000   0.0000   0.0000   0.0000   0.0000   0.0000   0.0000
     0.0000   0.0000   0.0000   0.0000   0.0000

          k = 0.2000 0.1988 0.0000 (203186 PWs)   bands (ev):

   -50.5713 -50.5713 -50.5701 -50.5701 -50.1456 -50.1456 -50.1445 -50.1444
   -49.7234 -49.7233 -49.7221 -49.7220 -49.4497 -49.4450 -49.4422 -49.4415
   -49.4316 -49.4295 -49.4277 -49.4262  -5.9419  -5.0846  -4.8354  -4.4961
    -4.0223  -3.6723  -3.6532  -3.4260  -3.2014  -2.7088  -2.5723  -2.5337
    -2.4319  -2.3791  -2.1114  -2.0666  -1.7988  -1.5185  -1.4426  -1.1921
    -0.7725  -0.6463  -0.5731  -0.0879  -0.0094

     occupation numbers 
     1.0000   1.0000   1.0000   1.0000   1.0000   1.0000   1.0000   1.0000
     1.0000   1.0000   1.0000   1.0000   1.0000   1.0000   1.0000   1.0000
     1.0000   1.0000   1.0000   1.0000   1.0000   1.0000   1.0000   1.0000
     1.0000   1.0000   1.0000   1.0000   1.0260   0.0055   0.0000   0.0000
     0.0000   0.0000   0.0000   0.0000   0.0000   0.0000   0.0000   0.0000
     0.0000   0.0000   0.0000   0.0000   0.0000

          k = 0.2000 0.2981 0.0000 (203209 PWs)   bands (ev):

   -50.5713 -50.5713 -50.5701 -50.5701 -50.1456 -50.1456 -50.1445 -50.1444
   -49.7234 -49.7233 -49.7221 -49.7220 -49.4495 -49.4450 -49.4422 -49.4418
   -49.4314 -49.4295 -49.4277 -49.4263  -5.8242  -5.2066  -4.9035  -4.3828
    -4.2708  -3.7893  -3.6189  -3.4810  -2.9185  -2.8638  -2.7205  -2.5238
    -2.3622  -2.2523  -2.0451  -1.8418  -1.7524  -1.5198  -1.3512  -0.9834
    -0.8561  -0.6067  -0.2056   0.0336   0.0454

     occupation numbers 
     1.0000   1.0000   1.0000   1.0000   1.0000   1.0000   1.0000   1.0000
     1.0000   1.0000   1.0000   1.0000   1.0000   1.0000   1.0000   1.0000
     1.0000   1.0000   1.0000   1.0000   1.0000   1.0000   1.0000   1.0000
     1.0000   1.0000   1.0000   1.0000   0.4810   0.2276   0.0079   0.0000
     0.0000   0.0000   0.0000   0.0000   0.0000   0.0000   0.0000   0.0000
     0.0000   0.0000   0.0000   0.0000   0.0000

          k = 0.2000 0.3975 0.0000 (203166 PWs)   bands (ev):

   -50.5713 -50.5713 -50.5701 -50.5701 -50.1456 -50.1456 -50.1445 -50.1444
   -49.7234 -49.7233 -49.7221 -49.7220 -49.4495 -49.4449 -49.4423 -49.4420
   -49.4312 -49.4295 -49.4277 -49.4264  -5.6598  -5.4505  -4.7716  -4.5007
    -4.2250  -4.0231  -3.5196  -3.3728  -3.1095  -3.0483  -2.4716  -2.3994
    -2.3294  -2.1319  -2.1172  -1.8028  -1.7557  -1.5014  -1.1652  -0.9154
    -0.8732  -0.4176  -0.1132   0.0094   0.0192

     occupation numbers 
     1.0000   1.0000   1.0000   1.0000   1.0000   1.0000   1.0000   1.0000
     1.0000   1.0000   1.0000   1.0000   1.0000   1.0000   1.0000   1.0000
     1.0000   1.0000   1.0000   1.0000   1.0000   1.0000   1.0000   1.0000
     1.0000   1.0000   1.0000   1.0002   1.0810   1.0453   0.0000   0.0000
     0.0000   0.0000   0.0000   0.0000   0.0000   0.0000   0.0000   0.0000
     0.0000   0.0000   0.0000   0.0000   0.0000

          k = 0.3000 0.0000 0.0000 (203139 PWs)   bands (ev):

   -50.5711 -50.5711 -50.5703 -50.5703 -50.1455 -50.1454 -50.1446 -50.1446
   -49.7232 -49.7231 -49.7223 -49.7222 -49.4493 -49.4459 -49.4418 -49.4412
   -49.4317 -49.4300 -49.4273 -49.4263  -5.9161  -5.0311  -4.9505  -4.0620
    -4.0584  -3.9603  -3.7350  -3.1328  -3.0872  -3.0303  -2.9444  -2.7963
    -2.2697  -2.2012  -2.0639  -2.0362  -1.8205  -1.4373  -1.4251  -1.4035
    -1.1227  -0.6694  -0.2529  -0.1879  -0.0963

     occupation numbers 
     1.0000   1.0000   1.0000   1.0000   1.0000   1.0000   1.0000   1.0000
     1.0000   1.0000   1.0000   1.0000   1.0000   1.0000   1.0000   1.0000
     1.0000   1.0000   1.0000   1.0000   1.0000   1.0000   1.0000   1.0000
     1.0000   1.0000   1.0000   1.0697   1.0824   1.0053   0.6235   0.0606
     0.0000   0.0000   0.0000   0.0000   0.0000   0.0000   0.0000   0.0000
     0.0000   0.0000   0.0000   0.0000   0.0000

          k = 0.3000 0.0994 0.0000 (203174 PWs)   bands (ev):

   -50.5711 -50.5711 -50.5703 -50.5703 -50.1455 -50.1454 -50.1446 -50.1446
   -49.7232 -49.7231 -49.7223 -49.7222 -49.4492 -49.4459 -49.4418 -49.4413
   -49.4316 -49.4300 -49.4273 -49.4263  -5.8925  -5.0104  -4.9274  -4.3896
    -4.0431  -3.8024  -3.5300  -3.4540  -3.3686  -2.8601  -2.6310  -2.6165
    -2.4888  -2.1626  -2.0676  -2.0510  -1.7671  -1.4623  -1.4166  -1.2871
    -0.9889  -0.6811  -0.4579  -0.1768   0.0230

     occupation numbers 
     1.0000   1.0000   1.0000   1.0000   1.0000   1.0000   1.0000   1.0000
     1.0000   1.0000   1.0000   1.0000   1.0000   1.0000   1.0000   1.0000
     1.0000   1.0000   1.0000   1.0000   1.0000   1.0000   1.0000   1.0000
     1.0000   1.0000   1.0000   1.0000   1.0002   0.2142   0.0003   0.0002
     0.0000   0.0000   0.0000   0.0000   0.0000   0.0000   0.0000   0.0000
     0.0000   0.0000   0.0000   0.0000   0.0000

          k = 0.3000 0.1988 0.0000 (203207 PWs)   bands (ev):

   -50.5711 -50.5711 -50.5703 -50.5703 -50.1455 -50.1454 -50.1446 -50.1446
   -49.7232 -49.7231 -49.7223 -49.7222 -49.4491 -49.4459 -49.4418 -49.4415
   -49.4314 -49.4300 -49.4273 -49.4264  -5.8218  -4.9630  -4.8582  -4.7147
    -4.0034  -3.9002  -3.7674  -3.5481  -3.0746  -2.9765  -2.6507  -2.4125
    -2.2940  -2.1897  -2.0462  -1.9840  -1.6157  -1.4366  -1.3374  -1.3028
    -0.7018  -0.6512  -0.5577  -0.1919   0.0770

     occupation numbers 
     1.0000   1.0000   1.0000   1.0000   1.0000   1.0000   1.0000   1.0000
     1.0000   1.0000   1.0000   1.0000   1.0000   1.0000   1.0000   1.0000
     1.0000   1.0000   1.0000   1.0000   1.0000   1.0000   1.0000   1.0000
     1.0000   1.0000   1.0000   1.0000   1.0769   0.7944   0.0007   0.0000
     0.0000   0.0000   0.0000   0.0000   0.0000   0.0000   0.0000   0.0000
     0.0000   0.0000   0.0000   0.0000   0.0000

          k = 0.3000 0.2981 0.0000 (203169 PWs)   bands (ev):

   -50.5711 -50.5711 -50.5703 -50.5703 -50.1455 -50.1454 -50.1446 -50.1446
   -49.7232 -49.7231 -49.7223 -49.7222 -49.4490 -49.4458 -49.4419 -49.4417
   -49.4312 -49.4300 -49.4273 -49.4264  -5.7042  -5.0869  -4.7811  -4.7430
    -4.1489  -4.1383  -3.8235  -3.4950  -3.2189  -2.7355  -2.6146  -2.5923
    -2.1110  -2.0758  -1.8178  -1.7142  -1.6634  -1.4366  -1.3905  -0.9883
    -0.7456  -0.7301  -0.1600  -0.1110   0.0603

     occupation numbers 
     1.0000   1.0000   1.0000   1.0000   1.0000   1.0000   1.0000   1.0000
     1.0000   1.0000   1.0000   1.0000   1.0000   1.0000   1.0000   1.0000
     1.0000   1.0000   1.0000   1.0000   1.0000   1.0000   1.0000   1.0000
     1.0000   1.0000   1.0000   1.0000   1.0182   0.0124   0.0002   0.0001
     0.0000   0.0000   0.0000   0.0000   0.0000   0.0000   0.0000   0.0000
     0.0000   0.0000   0.0000   0.0000   0.0000

          k = 0.3000 0.3975 0.0000 (203179 PWs)   bands (ev):

   -50.5711 -50.5711 -50.5703 -50.5703 -50.1455 -50.1454 -50.1446 -50.1446
   -49.7232 -49.7231 -49.7223 -49.7222 -49.4490 -49.4458 -49.4419 -49.4419
   -49.4311 -49.4299 -49.4274 -49.4265  -5.5399  -5.3307  -4.6498  -4.5823
    -4.3783  -4.3769  -3.7038  -3.4326  -3.3971  -2.9228  -2.5575  -2.2535
    -2.1328  -1.9852  -1.7325  -1.6838  -1.6232  -1.3803  -1.2426  -0.9086
    -0.7405  -0.6610  -0.1481  -0.0372   0.0272

     occupation numbers 
     1.0000   1.0000   1.0000   1.0000   1.0000   1.0000   1.0000   1.0000
     1.0000   1.0000   1.0000   1.0000   1.0000   1.0000   1.0000   1.0000
     1.0000   1.0000   1.0000   1.0000   1.0000   1.0000   1.0000   1.0000
     1.0000   1.0000   1.0000   1.0000   1.0001   0.5045   0.0000   0.0000
     0.0000   0.0000   0.0000   0.0000   0.0000   0.0000   0.0000   0.0000
     0.0000   0.0000   0.0000   0.0000   0.0000

          k = 0.4000 0.0000 0.0000 (203087 PWs)   bands (ev):

   -50.5709 -50.5709 -50.5705 -50.5705 -50.1453 -50.1452 -50.1448 -50.1448
   -49.7230 -49.7229 -49.7225 -49.7224 -49.4486 -49.4469 -49.4415 -49.4412
   -49.4313 -49.4305 -49.4270 -49.4264  -5.7476  -5.2651  -4.8600  -4.3744
    -3.8907  -3.7914  -3.5633  -3.4235  -3.3215  -3.0881  -2.9235  -2.7654
    -2.4898  -2.2946  -2.0243  -1.6446  -1.6072  -1.5143  -1.2779  -1.1931
    -0.9829  -0.8872  -0.4819  -0.2180   0.0669

     occupation numbers 
     1.0000   1.0000   1.0000   1.0000   1.0000   1.0000   1.0000   1.0000
     1.0000   1.0000   1.0000   1.0000   1.0000   1.0000   1.0000   1.0000
     1.0000   1.0000   1.0000   1.0000   1.0000   1.0000   1.0000   1.0000
     1.0000   1.0000   1.0000   1.0000   1.0011   1.0826   0.5081   0.0284
     0.0000   0.0000   0.0000   0.0000   0.0000   0.0000   0.0000   0.0000
     0.0000   0.0000   0.0000   0.0000   0.0000

          k = 0.4000 0.0994 0.0000 (203147 PWs)   bands (ev):

   -50.5709 -50.5709 -50.5705 -50.5705 -50.1453 -50.1452 -50.1448 -50.1448
   -49.7230 -49.7229 -49.7225 -49.7224 -49.4486 -49.4469 -49.4415 -49.4413
   -49.4313 -49.4305 -49.4270 -49.4265  -5.7241  -5.2418  -4.8396  -4.3547
    -4.2220  -3.7514  -3.6307  -3.3617  -3.1983  -3.1540  -2.9024  -2.7414
    -2.4387  -1.9966  -1.9767  -1.8927  -1.6773  -1.5385  -1.2336  -1.0800
    -0.8947  -0.7748  -0.4357  -0.3682   0.0832

     occupation numbers 
     1.0000   1.0000   1.0000   1.0000   1.0000   1.0000   1.0000   1.0000
     1.0000   1.0000   1.0000   1.0000   1.0000   1.0000   1.0000   1.0000
     1.0000   1.0000   1.0000   1.0000   1.0000   1.0000   1.0000   1.0000
     1.0000   1.0000   1.0000   1.0002   1.0276   1.0556   0.3975   0.0147
     0.0000   0.0000   0.0000   0.0000   0.0000   0.0000   0.0000   0.0000
     0.0000   0.0000   0.0000   0.0000   0.0000

          k = 0.4000 0.1988 0.0000 (203116 PWs)   bands (ev):

   -50.5709 -50.5709 -50.5705 -50.5705 -50.1453 -50.1452 -50.1448 -50.1448
   -49.7230 -49.7229 -49.7225 -49.7224 -49.4485 -49.4468 -49.4416 -49.4415
   -49.4312 -49.4304 -49.4270 -49.4265  -5.6536  -5.1719  -4.7932  -4.5463
    -4.3121  -4.0707  -3.7310  -3.3770  -3.2625  -2.9145  -2.9007  -2.4376
    -2.2516  -2.1039  -1.9050  -1.8141  -1.6006  -1.4659  -1.2477  -1.1182
    -0.7025  -0.5332  -0.4519  -0.2763  -0.0195

     occupation numbers 
     1.0000   1.0000   1.0000   1.0000   1.0000   1.0000   1.0000   1.0000
     1.0000   1.0000   1.0000   1.0000   1.0000   1.0000   1.0000   1.0000
     1.0000   1.0000   1.0000   1.0000   1.0000   1.0000   1.0000   1.0000
     1.0000   1.0000   1.0000   1.0001   1.0063   0.4597   0.3889   0.0000
     0.0000   0.0000   0.0000   0.0000   0.0000   0.0000   0.0000   0.0000
     0.0000   0.0000   0.0000   0.0000   0.0000

          k = 0.4000 0.2981 0.0000 (203047 PWs)   bands (ev):

   -50.5709 -50.5709 -50.5705 -50.5705 -50.1453 -50.1452 -50.1448 -50.1448
   -49.7230 -49.7229 -49.7225 -49.7224 -49.4484 -49.4467 -49.4417 -49.4417
   -49.4310 -49.4304 -49.4270 -49.4266  -5.5361  -5.0555  -4.9196  -4.6106
    -4.4443  -4.1295  -3.9797  -3.5092  -3.3247  -2.8681  -2.5624  -2.4168
    -2.1443  -1.9644  -1.9170  -1.5469  -1.4607  -1.2722  -1.2230  -1.1867
    -0.6859  -0.5838  -0.2280  -0.0271   0.0422

     occupation numbers 
     1.0000   1.0000   1.0000   1.0000   1.0000   1.0000   1.0000   1.0000
     1.0000   1.0000   1.0000   1.0000   1.0000   1.0000   1.0000   1.0000
     1.0000   1.0000   1.0000   1.0000   1.0000   1.0000   1.0000   1.0000
     1.0000   1.0000   1.0000   1.0000   1.0009   0.2439   0.0000   0.0000
     0.0000   0.0000   0.0000   0.0000   0.0000   0.0000   0.0000   0.0000
     0.0000   0.0000   0.0000   0.0000   0.0000

          k = 0.4000 0.3975 0.0000 (203101 PWs)   bands (ev):

   -50.5709 -50.5709 -50.5705 -50.5705 -50.1453 -50.1452 -50.1448 -50.1448
   -49.7230 -49.7229 -49.7225 -49.7224 -49.4483 -49.4467 -49.4418 -49.4418
   -49.4309 -49.4303 -49.4271 -49.4266  -5.3721  -5.1631  -4.8930  -4.6857
    -4.4803  -4.2081  -4.0041  -3.7313  -3.2294  -2.7880  -2.7515  -2.3105
    -2.0527  -1.7832  -1.5385  -1.5301  -1.3851  -1.2909  -1.2330  -1.1682
    -0.6062  -0.5724  -0.2710  -0.0623   0.1433

     occupation numbers 
     1.0000   1.0000   1.0000   1.0000   1.0000   1.0000   1.0000   1.0000
     1.0000   1.0000   1.0000   1.0000   1.0000   1.0000   1.0000   1.0000
     1.0000   1.0000   1.0000   1.0000   1.0000   1.0000   1.0000   1.0000
     1.0000   1.0000   1.0000   1.0000   1.0144   0.0499   0.0195   0.0000
     0.0000   0.0000   0.0000   0.0000   0.0000   0.0000   0.0000   0.0000
     0.0000   0.0000   0.0000   0.0000   0.0000

          k =-0.5000 0.0000 0.0000 (203092 PWs)   bands (ev):

   -50.5707 -50.5707 -50.5707 -50.5707 -50.1450 -50.1450 -50.1450 -50.1450
   -49.7227 -49.7227 -49.7227 -49.7226 -49.4478 -49.4478 -49.4413 -49.4413
   -49.4310 -49.4309 -49.4267 -49.4267  -5.5307  -5.5307  -4.6408  -4.6408
    -3.6780  -3.6780  -3.5773  -3.5773  -3.3463  -3.3463  -2.7208  -2.7208
    -2.5440  -2.5440  -1.8138  -1.8138  -1.4565  -1.4565  -1.1623  -1.1623
    -0.7759  -0.7759  -0.6039  -0.6039   0.2027

     occupation numbers 
     1.0000   1.0000   1.0000   1.0000   1.0000   1.0000   1.0000   1.0000
     1.0000   1.0000   1.0000   1.0000   1.0000   1.0000   1.0000   1.0000
     1.0000   1.0000   1.0000   1.0000   1.0000   1.0000   1.0000   1.0000
     1.0000   1.0000   1.0000   1.0000   1.0004   1.0004   0.0080   0.0080
     0.0000   0.0000   0.0000   0.0000   0.0000   0.0000   0.0000   0.0000
     0.0000   0.0000   0.0000   0.0000   0.0000

          k =-0.5000 0.0994 0.0000 (203092 PWs)   bands (ev):

   -50.5707 -50.5707 -50.5707 -50.5707 -50.1450 -50.1450 -50.1450 -50.1450
   -49.7227 -49.7227 -49.7227 -49.7226 -49.4478 -49.4477 -49.4414 -49.4414
   -49.4309 -49.4309 -49.4267 -49.4267  -5.5073  -5.5073  -4.6207  -4.6207
    -4.0086  -4.0085  -3.4133  -3.4133  -3.1504  -3.1504  -2.9861  -2.9861
    -2.2199  -2.2199  -1.8096  -1.8096  -1.6883  -1.6883  -0.9048  -0.9048
    -0.8053  -0.8053  -0.5658  -0.5658   0.0914

     occupation numbers 
     1.0000   1.0000   1.0000   1.0000   1.0000   1.0000   1.0000   1.0000
     1.0000   1.0000   1.0000   1.0000   1.0000   1.0000   1.0000   1.0000
     1.0000   1.0000   1.0000   1.0000   1.0000   1.0000   1.0000   1.0000
     1.0000   1.0000   1.0000   1.0000   1.0580   1.0580   0.8411   0.8411
     0.0000   0.0000   0.0000   0.0000   0.0000   0.0000   0.0000   0.0000
     0.0000   0.0000   0.0000   0.0000   0.0000

          k =-0.5000 0.1988 0.0000 (202990 PWs)   bands (ev):

   -50.5707 -50.5707 -50.5707 -50.5707 -50.1450 -50.1450 -50.1450 -50.1450
   -49.7227 -49.7227 -49.7227 -49.7226 -49.4477 -49.4477 -49.4415 -49.4415
   -49.4308 -49.4308 -49.4267 -49.4267  -5.4370  -5.4369  -4.5759  -4.5759
    -4.3312  -4.3312  -3.5170  -3.5170  -3.1631  -3.1631  -2.6847  -2.6847
    -2.0661  -2.0661  -1.8674  -1.8674  -1.6198  -1.6198  -0.9478  -0.9478
    -0.6451  -0.6451  -0.3424  -0.3424  -0.0306

     occupation numbers 
     1.0000   1.0000   1.0000   1.0000   1.0000   1.0000   1.0000   1.0000
     1.0000   1.0000   1.0000   1.0000   1.0000   1.0000   1.0000   1.0000
     1.0000   1.0000   1.0000   1.0000   1.0000   1.0000   1.0000   1.0000
     1.0000   1.0000   1.0000   1.0000   1.0492   1.0493   0.0024   0.0024
     0.0000   0.0000   0.0000   0.0000   0.0000   0.0000   0.0000   0.0000
     0.0000   0.0000   0.0000   0.0000   0.0000

          k =-0.5000 0.2981 0.0000 (202980 PWs)   bands (ev):

   -50.5707 -50.5707 -50.5707 -50.5707 -50.1450 -50.1450 -50.1450 -50.1450
   -49.7227 -49.7227 -49.7227 -49.7226 -49.4476 -49.4476 -49.4416 -49.4416
   -49.4307 -49.4307 -49.4268 -49.4268  -5.3199  -5.3199  -4.7052  -4.7052
    -4.3929  -4.3929  -3.7653  -3.7653  -3.1126  -3.1126  -2.3555  -2.3554
    -2.2011  -2.2011  -1.6804  -1.6804  -1.3643  -1.3643  -1.0702  -1.0702
    -0.5762  -0.5762  -0.1367  -0.1367   0.0382

     occupation numbers 
     1.0000   1.0000   1.0000   1.0000   1.0000   1.0000   1.0000   1.0000
     1.0000   1.0000   1.0000   1.0000   1.0000   1.0000   1.0000   1.0000
     1.0000   1.0000   1.0000   1.0000   1.0000   1.0000   1.0000   1.0000
     1.0000   1.0000   1.0000   1.0000   1.0799   1.0799   0.0000   0.0000
     0.0000   0.0000   0.0000   0.0000   0.0000   0.0000   0.0000   0.0000
     0.0000   0.0000   0.0000   0.0000   0.0000

          k =-0.5000 0.3975 0.0000 (202998 PWs)   bands (ev):

   -50.5707 -50.5707 -50.5707 -50.5707 -50.1450 -50.1450 -50.1450 -50.1450
   -49.7227 -49.7227 -49.7227 -49.7226 -49.4476 -49.4476 -49.4417 -49.4417
   -49.4306 -49.4306 -49.4268 -49.4268  -5.1564  -5.1564  -4.9480  -4.9480
    -4.2643  -4.2643  -3.9915  -3.9915  -3.0223  -3.0223  -2.5416  -2.5416
    -1.8038  -1.8038  -1.5362  -1.5362  -1.3707  -1.3707  -1.1274  -1.1274
    -0.4491  -0.4491  -0.2566  -0.2565   0.2517

     occupation numbers 
     1.0000   1.0000   1.0000   1.0000   1.0000   1.0000   1.0000   1.0000
     1.0000   1.0000   1.0000   1.0000   1.0000   1.0000   1.0000   1.0000
     1.0000   1.0000   1.0000   1.0000   1.0000   1.0000   1.0000   1.0000
     1.0000   1.0000   1.0000   1.0000   0.9825   0.9825   0.0000   0.0000
     0.0000   0.0000   0.0000   0.0000   0.0000   0.0000   0.0000   0.0000
     0.0000   0.0000   0.0000   0.0000   0.0000

     the Fermi energy is    -2.9030 ev

!    total energy              =    -300.64360963 Ry
     total all-electron energy =      -300.643772 Ry
     estimated scf accuracy    <          2.2E-09 Ry

!    total charge of GC-SCF    =       0.71173502 e
     smearing contrib. (-TS)   =       0.00011293 Ry
     internal energy E=F+TS    =    -300.64372256 Ry

     The total energy is F=E-TS. E is the sum of the following terms:
     one-electron contribution =   -2629.23363172 Ry
     hartree contribution      =    1281.12914284 Ry
     xc contribution           =     -71.16549542 Ry
     ewald contribution        =    1133.93359460 Ry
     one-center paw contrib.   =       1.76648136 Ry
      -> PAW hartree energy AE =       7.40821678 Ry
      -> PAW hartree energy PS =      -7.18539764 Ry
      -> PAW xc energy AE      =      -3.48112614 Ry
      -> PAW xc energy PS      =       3.34658066 Ry
      -> total E_H with PAW    =    1281.35196199 Ry
      -> total E_XC with PAW   =     -71.30004090 Ry
     pot.stat. contrib. (-muN) =      -0.15191277 Ry
     electrostatic embedding   =      -0.11976422 Ry
     cavitation energy         =       0.02293695 Ry
     electrolyte free energy   =      -0.00337136 Ry
     correction to one-el term =     -16.82170283 Ry

     WARNING: you are using the parabolic pbc correction;
              the potential shift above must be added to 
              band and Fermi energies.

     convergence has been achieved in  26 iterations
     The dielectric solvent contribution to forces
     atom    1 type  1   force =     0.00000000    0.00167381    0.00067825
     atom    2 type  1   force =     0.00000000    0.00056434    0.00492365
     atom    3 type  1   force =     0.00000000    0.00369095   -0.00673701
     atom    4 type  1   force =     0.00000000   -0.01053357   -0.01891838
     atom    5 type  1   force =     0.00000000   -0.01625644    0.02380790
     atom    6 type  1   force =     0.00000002   -0.00056453   -0.00492541
     atom    7 type  1   force =     0.00000004   -0.00167391   -0.00067959
     atom    8 type  1   force =     0.00000022    0.01625748   -0.02380811
     atom    9 type  1   force =    -0.00000024    0.01053321    0.01891643
     atom   10 type  1   force =     0.00000004   -0.00369077    0.00673552
     atom   11 type  1   force =    -0.00000000    0.00167379    0.00067791
     atom   12 type  1   force =    -0.00000000    0.00056437    0.00492369
     atom   13 type  1   force =    -0.00000000    0.00369088   -0.00673695
     atom   14 type  1   force =    -0.00000000   -0.01053350   -0.01891826
     atom   15 type  1   force =    -0.00000000   -0.01625644    0.02380787
     atom   16 type  1   force =    -0.00000002   -0.00056453   -0.00492541
     atom   17 type  1   force =    -0.00000004   -0.00167391   -0.00067958
     atom   18 type  1   force =    -0.00000022    0.01625747   -0.02380811
     atom   19 type  1   force =     0.00000024    0.01053321    0.01891643
     atom   20 type  1   force =    -0.00000003   -0.00369077    0.00673551


     Forces acting on atoms (cartesian axes, Ry/au):

     atom    1 type  1   force =     0.00000000    0.00075651    0.00128072
     atom    2 type  1   force =     0.00000000    0.00031697    0.00059702
     atom    3 type  1   force =     0.00000000   -0.00064413   -0.00109876
     atom    4 type  1   force =     0.00000000    0.00080307    0.00032278
     atom    5 type  1   force =     0.00000000   -0.00025560   -0.00299829
     atom    6 type  1   force =     0.00000080   -0.00031718   -0.00059309
     atom    7 type  1   force =     0.00000022   -0.00075586   -0.00128053
     atom    8 type  1   force =     0.00000022    0.00025572    0.00299371
     atom    9 type  1   force =     0.00000004   -0.00080276   -0.00032431
     atom   10 type  1   force =    -0.00000027    0.00064387    0.00110117
     atom   11 type  1   force =     0.00000000    0.00075631    0.00128058
     atom   12 type  1   force =     0.00000000    0.00031591    0.00059607
     atom   13 type  1   force =     0.00000000   -0.00064385   -0.00109932
     atom   14 type  1   force =     0.00000000    0.00080290    0.00032280
     atom   15 type  1   force =     0.00000000   -0.00025568   -0.00299750
     atom   16 type  1   force =    -0.00000080   -0.00031718   -0.00059309
     atom   17 type  1   force =    -0.00000022   -0.00075586   -0.00128053
     atom   18 type  1   force =    -0.00000022    0.00025572    0.00299371
     atom   19 type  1   force =    -0.00000004   -0.00080276   -0.00032431
     atom   20 type  1   force =     0.00000027    0.00064387    0.00110117
     The non-local contrib.  to forces
     atom    1 type  1   force =     0.00000000    0.00156382    0.02882659
     atom    2 type  1   force =     0.00000000    0.00551838    0.00265569
     atom    3 type  1   force =     0.00000000    0.00285763   -0.00320040
     atom    4 type  1   force =     0.00000000    0.01918714   -0.06385387
     atom    5 type  1   force =     0.00000000    0.01206435    0.09126356
     atom    6 type  1   force =     0.00000070   -0.00551899   -0.00264928
     atom    7 type  1   force =     0.00000055   -0.00156417   -0.02882153
     atom    8 type  1   force =     0.00000091   -0.01206461   -0.09126238
     atom    9 type  1   force =    -0.00000014   -0.01918823    0.06385157
     atom   10 type  1   force =     0.00000040   -0.00285630    0.00320604
     atom   11 type  1   force =     0.00000000    0.00156409    0.02882564
     atom   12 type  1   force =     0.00000000    0.00551852    0.00265518
     atom   13 type  1   force =     0.00000000    0.00285728   -0.00320013
[...]
     1.0000   1.0000   1.0000   1.0000   1.0000   1.0000   1.0000   1.0000
     1.0000   1.0000   1.0000   1.0000   0.8349   0.8349   0.0000   0.0000
     0.0000   0.0000   0.0000   0.0000   0.0000   0.0000   0.0000   0.0000
     0.0000   0.0000   0.0000   0.0000   0.0000

     the Fermi energy is    -2.9040 ev

!    total energy              =    -300.64575065 Ry
     total all-electron energy =      -300.645913 Ry
     estimated scf accuracy    <          8.8E-13 Ry

!    total charge of GC-SCF    =       0.61149409 e
     smearing contrib. (-TS)   =       0.00006652 Ry
     internal energy E=F+TS    =    -300.64581717 Ry

     The total energy is F=E-TS. E is the sum of the following terms:
     one-electron contribution =   -2650.98887246 Ry
     hartree contribution      =    1292.09855037 Ry
     xc contribution           =     -71.23914881 Ry
     ewald contribution        =    1142.54092646 Ry
     one-center paw contrib.   =       1.76574922 Ry
      -> PAW hartree energy AE =       7.41517240 Ry
      -> PAW hartree energy PS =      -7.19239858 Ry
      -> PAW xc energy AE      =      -3.48252157 Ry
      -> PAW xc energy PS      =       3.34800430 Ry
      -> total E_H with PAW    =    1292.32132419 Ry
      -> total E_XC with PAW   =     -71.37366608 Ry
     pot.stat. contrib. (-muN) =      -0.13051734 Ry
     electrostatic embedding   =      -0.09387975 Ry
     cavitation energy         =       0.02242481 Ry
     electrolyte free energy   =      -0.00296019 Ry
     correction to one-el term =     -14.61808949 Ry

     WARNING: you are using the parabolic pbc correction;
              the potential shift above must be added to 
              band and Fermi energies.

     convergence has been achieved in  20 iterations
     The dielectric solvent contribution to forces
     atom    1 type  1   force =     0.00000000    0.00226310   -0.00149684
     atom    2 type  1   force =     0.00000000    0.00056350    0.00496230
     atom    3 type  1   force =     0.00000000    0.00416853   -0.00559422
     atom    4 type  1   force =     0.00000000   -0.01140851   -0.01706995
     atom    5 type  1   force =     0.00000000   -0.01709653    0.02241322
     atom    6 type  1   force =     0.00000000   -0.00056352   -0.00496135
     atom    7 type  1   force =     0.00000000   -0.00226315    0.00149781
     atom    8 type  1   force =     0.00000004    0.01709654   -0.02241229
     atom    9 type  1   force =    -0.00000004    0.01140842    0.01707087
     atom   10 type  1   force =    -0.00000000   -0.00416855    0.00559518
     atom   11 type  1   force =    -0.00000000    0.00226309   -0.00149692
     atom   12 type  1   force =    -0.00000000    0.00056350    0.00496228
     atom   13 type  1   force =    -0.00000000    0.00416852   -0.00559421
     atom   14 type  1   force =    -0.00000000   -0.01140848   -0.01706990
     atom   15 type  1   force =    -0.00000000   -0.01709655    0.02241319
     atom   16 type  1   force =    -0.00000000   -0.00056352   -0.00496135
     atom   17 type  1   force =    -0.00000001   -0.00226315    0.00149782
     atom   18 type  1   force =    -0.00000004    0.01709654   -0.02241229
     atom   19 type  1   force =     0.00000004    0.01140842    0.01707087
     atom   20 type  1   force =     0.00000000   -0.00416855    0.00559518


     Forces acting on atoms (cartesian axes, Ry/au):

     atom    1 type  1   force =     0.00000000    0.00002522    0.00000206
     atom    2 type  1   force =     0.00000000   -0.00002893   -0.00002624
     atom    3 type  1   force =     0.00000000    0.00030042    0.00006950
     atom    4 type  1   force =     0.00000000    0.00027561    0.00012251
     atom    5 type  1   force =     0.00000000   -0.00010365    0.00000712
     atom    6 type  1   force =     0.00000001    0.00002872    0.00002601
     atom    7 type  1   force =     0.00000005   -0.00002488   -0.00000197
     atom    8 type  1   force =    -0.00000001    0.00010368   -0.00000696
     atom    9 type  1   force =    -0.00000003   -0.00027573   -0.00012244
     atom   10 type  1   force =     0.00000002   -0.00030047   -0.00006957
     atom   11 type  1   force =     0.00000000    0.00002523    0.00000214
     atom   12 type  1   force =     0.00000000   -0.00002895   -0.00002630
     atom   13 type  1   force =     0.00000000    0.00030039    0.00006942
     atom   14 type  1   force =     0.00000000    0.00027563    0.00012249
     atom   15 type  1   force =     0.00000000   -0.00010362    0.00000715
     atom   16 type  1   force =    -0.00000001    0.00002872    0.00002601
     atom   17 type  1   force =    -0.00000005   -0.00002488   -0.00000197
     atom   18 type  1   force =     0.00000001    0.00010368   -0.00000696
     atom   19 type  1   force =     0.00000003   -0.00027573   -0.00012244
     atom   20 type  1   force =    -0.00000002   -0.00030047   -0.00006957
     The non-local contrib.  to forces
     atom    1 type  1   force =     0.00000000    0.00248366    0.02802152
     atom    2 type  1   force =     0.00000000    0.00491773    0.00172181
     atom    3 type  1   force =     0.00000000    0.00353390   -0.00149235
     atom    4 type  1   force =     0.00000000    0.01927848   -0.06318224
     atom    5 type  1   force =     0.00000000    0.01232587    0.09016243
     atom    6 type  1   force =     0.00000004   -0.00491795   -0.00172178
     atom    7 type  1   force =     0.00000014   -0.00248311   -0.02802138
     atom    8 type  1   force =     0.00000011   -0.01232624   -0.09016186
     atom    9 type  1   force =    -0.00000009   -0.01927869    0.06318189
     atom   10 type  1   force =     0.00000007   -0.00353398    0.00149222
     atom   11 type  1   force =     0.00000000    0.00248364    0.02802134
     atom   12 type  1   force =     0.00000000    0.00491780    0.00172176
     atom   13 type  1   force =     0.00000000    0.00353373   -0.00149238
     atom   14 type  1   force =     0.00000000    0.01927851   -0.06318188
     atom   15 type  1   force =     0.00000000    0.01232607    0.09016214
     atom   16 type  1   force =    -0.00000004   -0.00491795   -0.00172178
     atom   17 type  1   force =    -0.00000014   -0.00248311   -0.02802138
     atom   18 type  1   force =    -0.00000011   -0.01232624   -0.09016186
     atom   19 type  1   force =     0.00000009   -0.01927869    0.06318189
     atom   20 type  1   force =    -0.00000007   -0.00353398    0.00149222
     The ionic contribution  to forces
     atom    1 type  1   force =    -0.00000002    0.09054093    4.94622493
     atom    2 type  1   force =    -0.00000002   -0.04479474    1.12502788
     atom    3 type  1   force =    -0.00000003   -0.09178350   -2.89658694
     atom    4 type  1   force =    -0.00000002    0.34463255   -6.93451391
     atom    5 type  1   force =    -0.00000001    0.19942712    8.11998224
     atom    6 type  1   force =     0.00000114    0.04479274   -1.12502597
     atom    7 type  1   force =     0.00000268   -0.09052732   -4.94623104
     atom    8 type  1   force =     0.00000107   -0.19942850   -8.11997029
     atom    9 type  1   force =    -0.00000014   -0.34464032    6.93450344
     atom   10 type  1   force =     0.00000131    0.09178101    2.89659268
     atom   11 type  1   force =     0.00000001    0.09054011    4.94621249
     atom   12 type  1   force =     0.00000001   -0.04479446    1.12502347
     atom   13 type  1   force =     0.00000002   -0.09178453   -2.89657978
     atom   14 type  1   force =     0.00000001    0.34463288   -6.93450354
     atom   15 type  1   force =     0.00000001    0.19942841    8.11997555
     atom   16 type  1   force =    -0.00000113    0.04479274   -1.12502599
     atom   17 type  1   force =    -0.00000268   -0.09052731   -4.94623101
     atom   18 type  1   force =    -0.00000106   -0.19942850   -8.11997026
     atom   19 type  1   force =     0.00000015   -0.34464033    6.93450341
     atom   20 type  1   force =    -0.00000131    0.09178102    2.89659263
     The local contribution  to forces
     atom    1 type  1   force =     0.00000349   -0.09526250   -4.97274340
     atom    2 type  1   force =     0.00000348    0.03928449   -1.13173805
     atom    3 type  1   force =     0.00000290    0.08438137    2.90374272
     atom    4 type  1   force =     0.00000407   -0.35222747    7.01488811
     atom    5 type  1   force =     0.00000408   -0.19476362   -8.23255246
     atom    6 type  1   force =     0.00000353   -0.03928280    1.13173481
     atom    7 type  1   force =     0.00000165    0.09524874    4.97274886
     atom    8 type  1   force =     0.00000349    0.19476477    8.23253948
     atom    9 type  1   force =     0.00000437    0.35223555   -7.01487852
     atom   10 type  1   force =     0.00000306   -0.08437886   -2.90374974
     atom   11 type  1   force =     0.00000442   -0.09526163   -4.97273062
     atom   12 type  1   force =     0.00000441    0.03928413   -1.13173362
     atom   13 type  1   force =     0.00000557    0.08438254    2.90373552
     atom   14 type  1   force =     0.00000500   -0.35222784    7.01487727
     atom   15 type  1   force =     0.00000384   -0.19476507   -8.23254541
     atom   16 type  1   force =     0.00000586   -0.03928222    1.13173541
     atom   17 type  1   force =     0.00000719    0.09524874    4.97274825
     atom   18 type  1   force =     0.00000593    0.19476536    8.23253830
     atom   19 type  1   force =     0.00000388    0.35223555   -7.01487792
     atom   20 type  1   force =     0.00000576   -0.08437886   -2.90374853
     The core correction contribution to forces
     atom    1 type  1   force =     0.00000000    0.00000000    0.00000000
     atom    2 type  1   force =     0.00000000    0.00000000    0.00000000
     atom    3 type  1   force =     0.00000000    0.00000000    0.00000000
     atom    4 type  1   force =     0.00000000    0.00000000    0.00000000
     atom    5 type  1   force =     0.00000000    0.00000000    0.00000000
     atom    6 type  1   force =     0.00000000    0.00000000    0.00000000
     atom    7 type  1   force =     0.00000000    0.00000000    0.00000000
     atom    8 type  1   force =     0.00000000    0.00000000    0.00000000
     atom    9 type  1   force =     0.00000000    0.00000000    0.00000000
     atom   10 type  1   force =     0.00000000    0.00000000    0.00000000
     atom   11 type  1   force =     0.00000000    0.00000000    0.00000000
     atom   12 type  1   force =     0.00000000    0.00000000    0.00000000
     atom   13 type  1   force =     0.00000000    0.00000000    0.00000000
     atom   14 type  1   force =     0.00000000    0.00000000    0.00000000
     atom   15 type  1   force =     0.00000000    0.00000000    0.00000000
     atom   16 type  1   force =     0.00000000    0.00000000    0.00000000
     atom   17 type  1   force =     0.00000000    0.00000000    0.00000000
     atom   18 type  1   force =     0.00000000    0.00000000    0.00000000
     atom   19 type  1   force =     0.00000000    0.00000000    0.00000000
     atom   20 type  1   force =     0.00000000    0.00000000    0.00000000
     The Hubbard contrib.    to forces
     atom    1 type  1   force =     0.00000000    0.00000000    0.00000000
     atom    2 type  1   force =     0.00000000    0.00000000    0.00000000
     atom    3 type  1   force =     0.00000000    0.00000000    0.00000000
     atom    4 type  1   force =     0.00000000    0.00000000    0.00000000
     atom    5 type  1   force =     0.00000000    0.00000000    0.00000000
     atom    6 type  1   force =     0.00000000    0.00000000    0.00000000
     atom    7 type  1   force =     0.00000000    0.00000000    0.00000000
     atom    8 type  1   force =     0.00000000    0.00000000    0.00000000
     atom    9 type  1   force =     0.00000000    0.00000000    0.00000000
     atom   10 type  1   force =     0.00000000    0.00000000    0.00000000
     atom   11 type  1   force =     0.00000000    0.00000000    0.00000000
     atom   12 type  1   force =     0.00000000    0.00000000    0.00000000
     atom   13 type  1   force =     0.00000000    0.00000000    0.00000000
     atom   14 type  1   force =     0.00000000    0.00000000    0.00000000
     atom   15 type  1   force =     0.00000000    0.00000000    0.00000000
     atom   16 type  1   force =     0.00000000    0.00000000    0.00000000
     atom   17 type  1   force =     0.00000000    0.00000000    0.00000000
     atom   18 type  1   force =     0.00000000    0.00000000    0.00000000
     atom   19 type  1   force =     0.00000000    0.00000000    0.00000000
     atom   20 type  1   force =     0.00000000    0.00000000    0.00000000
     The SCF correction term to forces
     atom    1 type  1   force =    -0.00000000    0.00000002   -0.00000403
     atom    2 type  1   force =     0.00000000    0.00000007   -0.00000008
     atom    3 type  1   force =     0.00000000    0.00000012    0.00000039
     atom    4 type  1   force =    -0.00000000    0.00000054    0.00000061
     atom    5 type  1   force =     0.00000000    0.00000351    0.00000179
     atom    6 type  1   force =     0.00000000   -0.00000005    0.00000012
     atom    7 type  1   force =    -0.00000000   -0.00000006    0.00000417
     atom    8 type  1   force =     0.00000000   -0.00000321   -0.00000132
     atom    9 type  1   force =    -0.00000000   -0.00000070   -0.00000029
     atom   10 type  1   force =     0.00000000   -0.00000011   -0.00000037
     atom   11 type  1   force =    -0.00000000    0.00000001   -0.00000404
     atom   12 type  1   force =    -0.00000000    0.00000007   -0.00000008
     atom   13 type  1   force =     0.00000000    0.00000012    0.00000039
     atom   14 type  1   force =     0.00000000    0.00000055    0.00000064
     atom   15 type  1   force =     0.00000000    0.00000351    0.00000179
     atom   16 type  1   force =    -0.00000000   -0.00000005    0.00000012
     atom   17 type  1   force =     0.00000000   -0.00000006    0.00000417
     atom   18 type  1   force =     0.00000000   -0.00000321   -0.00000132
     atom   19 type  1   force =     0.00000000   -0.00000070   -0.00000029
     atom   20 type  1   force =    -0.00000000   -0.00000011   -0.00000037

     Total force =     0.000892     Total SCF correction =     0.000011
     Energy error            =      5.3E-06 Ry
     Gradient error          =      3.0E-04 Ry/Bohr

     bfgs converged in  28 scf cycles and  27 bfgs steps
     (criteria: energy <  1.0E-05 Ry, force <  3.9E-04 Ry/Bohr)

     End of BFGS Geometry Optimization

     Final energy             =    -300.6457506493 Ry

     File ./Li/Lithium.bfgs deleted, as requested
Begin final coordinates

ATOMIC_POSITIONS (angstrom)
Li              -0.0000000600        3.2228420713       25.4642236465
Li              -0.0000000600        6.1303537121       24.0766737963
Li              -0.0000000500        1.5060896996       22.4381500695
Li              -0.0000000700        4.2737335103       20.7879092689
Li              -0.0000000700        0.6748548039       27.2085960168
Li               1.7175759820        3.8552643378       23.1394747046
Li               1.7175759630        6.7627641732       21.7519220831
Li               1.7175785948        1.6295195286       20.0075640375
Li               1.7175791367        5.7118851113       26.4282358938
Li               1.7175755860        0.7982819350       24.7780027221
Li               3.4351561700        3.2228420653       25.4642182875
Li               3.4351561700        6.1303553210       24.0766729466
Li               3.4351561500        1.5060893747       22.4381532927
Li               3.4351561600        4.2737332174       20.7879148274
Li               3.4351561800        0.6748557653       27.2085908286
Li               5.1527363480        3.8552643278       23.1394746946
Li               5.1527363770        6.7627641732       21.7519220931
Li               5.1527337352        1.6295195186       20.0075640574
Li               5.1527332133        5.7118851113       26.4282358838
Li               5.1527367540        0.7982819350       24.7780027021
End final coordinates



     Writing all to output data dir ./Li/Lithium.save/ :
     XML data file
     init_run     :     13.88s CPU     21.03s WALL (       1 calls)
     electrons    :   6217.70s CPU   7871.74s WALL (      28 calls)
     update_pot   :      2.73s CPU      3.43s WALL (      27 calls)
     forces       :    134.16s CPU    137.79s WALL (      28 calls)

     Called by init_run:
     wfcinit      :      1.02s CPU      1.43s WALL (       1 calls)
     wfcinit:wfcr :      0.95s CPU      1.35s WALL (      15 calls)
     potinit      :      0.49s CPU      0.55s WALL (       1 calls)
     hinit0       :      1.96s CPU      2.19s WALL (       1 calls)

     Called by electrons:
     c_bands      :   3944.61s CPU   5005.54s WALL (     528 calls)
     sum_band     :    267.52s CPU    364.43s WALL (     528 calls)
     v_of_rho     :     40.45s CPU     49.94s WALL (     529 calls)
     v_h          :      3.67s CPU      4.70s WALL (     529 calls)
     v_xc         :     36.77s CPU     45.23s WALL (     529 calls)
     newd         :     18.80s CPU     27.17s WALL (     529 calls)
     PAW_pot      :      4.45s CPU      6.17s WALL (     556 calls)
     mix_rho      :     97.98s CPU    130.80s WALL (     528 calls)

     Called by c_bands:
     init_us_2    :     30.63s CPU     33.44s WALL (   16680 calls)
     cegterg      :   3804.05s CPU   4692.11s WALL (    9772 calls)

     Called by sum_band:
     sum_band:wei :      0.55s CPU      0.68s WALL (     528 calls)
     sum_band:loo :    241.20s CPU    327.21s WALL (     528 calls)
     sum_band:buf :      3.50s CPU      3.85s WALL (    7920 calls)
     sum_band:ini :     13.11s CPU     13.79s WALL (    7920 calls)
     sum_band:cal :     35.55s CPU     43.25s WALL (    8325 calls)
     sum_band:bec :      0.48s CPU      0.54s WALL (    8325 calls)
     addusdens    :     14.49s CPU     15.13s WALL (     528 calls)
                                        0.00s GPU  (     528 calls)
     addusd:skk   :      2.34s CPU      2.39s WALL (     528 calls)
                                        0.00s GPU  (     528 calls)

     Called by *egterg:
     cdiaghg      :    801.96s CPU    838.00s WALL (  135183 calls)
     cegterg:over :    278.97s CPU    308.39s WALL (  126403 calls)
     cegterg:upda :    257.79s CPU    265.99s WALL (  126403 calls)
     cegterg:last :     57.46s CPU     58.29s WALL (   13126 calls)
     h_psi        :   2157.69s CPU   2954.75s WALL (  136190 calls)
     s_psi        :    148.24s CPU    154.34s WALL (  136190 calls)
     g_psi        :      3.55s CPU      3.74s WALL (  126403 calls)

     Called by h_psi:
     h_psi:calbec :    265.87s CPU    326.84s WALL (  136190 calls)
     vloc_psi     :   1706.91s CPU   2426.26s WALL (  136190 calls)
                                        0.00s GPU  (  136190 calls)
     add_vuspsi   :    170.45s CPU    186.29s WALL (  136190 calls)

     General routines
     calbec       :    307.11s CPU    376.43s WALL (  146195 calls)
     fft          :     28.70s CPU     42.43s WALL (    6931 calls)
     ffts         :     65.04s CPU     88.15s WALL (   59236 calls)
     fftw         :   1797.39s CPU   2561.85s WALL ( 3580818 calls)
     interpolate  :      3.73s CPU      4.81s WALL (     529 calls)

     Parallel routines

     PAW routines
     PAW_pot      :      4.45s CPU      6.17s WALL (     556 calls)
     PAW_symme    :      0.11s CPU      0.15s WALL (    1084 calls)

     Environ routines

     PWSCF        :      1h48m CPU      2h16m WALL


   This run was terminated on:  13: 2:18   2Jan2025            

=------------------------------------------------------------------------------=
   JOB DONE.
=------------------------------------------------------------------------------=
