
     Program PWSCF v.7.4 starts on 23Jan2025 at  0:35:55 

     This program is part of the open-source Quantum ESPRESSO suite
     for quantum simulation of materials; please cite
         "P. Giannozzi et al., J. Phys.:Condens. Matter 21 395502 (2009);
         "P. Giannozzi et al., J. Phys.:Condens. Matter 29 465901 (2017);
         "P. Giannozzi et al., J. Chem. Phys. 152 154105 (2020);
          URL http://www.quantum-espresso.org", 
     in publications or presentations arising from this work. More details at
     http://www.quantum-espresso.org/quote

     Parallel version (MPI & OpenMP), running on     384 processor cores
     Number of MPI processes:               384
     Threads/MPI process:                     1

     MPI processes distributed on     2 nodes
     656367 MiB available memory on the printing compute node when the environment starts
 
     Reading input from espresso.pwi
Warning: card &CELL ignored
Warning: card    PRESS_CONV_THR   = 0.1 ignored
Warning: card    CELL_DOFREE      = 'ALL' ignored
Warning: card / ignored
Warning: card &FCP ignored
Warning: card / ignored
Warning: card &RISM ignored
Warning: card / ignored

     Current dimensions of program PWSCF are:
     Max number of different atomic species (ntypx) = 10
     Max number of k-points (npk) =  40000
     Max angular momentum in pseudopotentials (lmaxx) =  4

     IMPORTANT: XC functional enforced from input :
     Exchange-correlation= PBE
                           (   1   4   3   4   0   0   0)
     Any further DFT definition will be discarded
     Please, verify this is what you really want

     Found identity + ( -0.5000 -0.0000 -0.0000) symmetry
     This is a supercell, fractional translations are disabled
 
     K-points division:     npool     =       3
     R & G space division:  proc/nbgrp/npool/nimage =     128
     Subspace diagonalization in iterative solution of the eigenvalue problem:
     a serial algorithm will be used

 
     Parallelization info
     --------------------
     sticks:   dense  smooth     PW     G-vecs:    dense   smooth      PW
     Min         125      50     13                44077    11148    1527
     Max         126      51     14                44112    11171    1548
     Sum       16113    6449   1713              5644329  1428057  196531
 
     Using Slab Decomposition
 


     bravais-lattice index     =            0
     lattice parameter (alat)  =      18.3607  a.u.
     unit-cell volume          =   14771.6796 (a.u.)^3
     number of atoms/cell      =           36
     number of atomic types    =            1
     number of electrons       =       108.00
     number of Kohn-Sham states=           81
     kinetic-energy cutoff     =      80.0000  Ry
     charge density cutoff     =     800.0000  Ry
     scf convergence threshold =      1.0E-06
     mixing beta               =       0.2000
     number of iterations used =            8  local-TF  mixing
     energy convergence thresh.=      1.0E-05
     force convergence thresh. =      3.9E-04
     Exchange-correlation= PBE
                           (   1   4   3   4   0   0   0)
     nstep                     =           50


     celldm(1)=  18.360747  celldm(2)=   0.000000  celldm(3)=   0.000000
     celldm(4)=   0.000000  celldm(5)=   0.000000  celldm(6)=   0.000000

     crystal axes: (cart. coord. in units of alat)
               a(1) = (   1.000000   0.000000   0.000000 )  
               a(2) = (   0.250000   0.750000   0.000000 )  
               a(3) = (   0.000000   0.000000   3.181981 )  

     reciprocal axes: (cart. coord. in units 2 pi/alat)
               b(1) = (  1.000000 -0.333333  0.000000 )  
               b(2) = (  0.000000  1.333333  0.000000 )  
               b(3) = (  0.000000  0.000000  0.314270 )  


     PseudoPot. # 1 for Li read from file:
     /iridisfs/home/ba3g18/Repos/Pseudopotentials/pslibrary.1.0.0/pbe/PSEUDOPOTENTIALS/Li.pbe-sl-kjpaw_psl.1.0.0.UPF
     MD5 check sum: 3f4d2cafebb47c6c3aa8ed472e6f074d
     Pseudo is Projector augmented-wave, Zval =  3.0
     Generated using 'atomic' code by A. Dal Corso  v.7.4
     Shape of augmentation charge: PSQ
     Using radial grid of 1017 points,  4 beta functions with: 
                l(1) =   0
                l(2) =   0
                l(3) =   1
                l(4) =   1
     Q(r) pseudized with 0 coefficients 


     atomic species   valence    mass     pseudopotential
     Li                3.00     6.94000     Li( 1.00)

     No symmetry found



   Cartesian axes

     site n.     atom                  positions (alat units)
         1        Li     tau(   1) = (   0.0007738  -0.0574448   2.0886995  )
         2        Li     tau(   2) = (   0.2491748   0.4166427   1.1536302  )
         3        Li     tau(   3) = (   0.2493397   0.0973398   1.3113046  )
         4        Li     tau(   4) = (   0.4997057   0.4990254   1.3615091  )
         5        Li     tau(   5) = (   0.4998473   0.1641436   1.5088561  )
         6        Li     tau(   6) = (   0.2499849   0.5989042   1.6047894  )
         7        Li     tau(   7) = (   0.2501781   0.2345348   1.7302124  )
         8        Li     tau(   8) = (   0.5005521   0.6599194   1.8728340  )
         9        Li     tau(   9) = (   0.5006536   0.3535442   1.9854169  )
        10        Li     tau(  10) = (   0.2494482   0.6734139   1.3091468  )
        11        Li     tau(  11) = (   0.2498217   0.3487987   1.4517696  )
        12        Li     tau(  12) = (   0.5000156   0.7344299   1.5771914  )
        13        Li     tau(  13) = (   0.5001528   0.4191902   1.6731238  )
        14        Li     tau(  14) = (   0.5002939   0.0843072   1.8204709  )
        15        Li     tau(  15) = (   0.2506602   0.4859940   1.8706761  )
        16        Li     tau(  16) = (   0.2508257   0.1666896   2.0283515  )
        17        Li     tau(  17) = (   0.4992244   0.6407788   1.0932809  )
        18        Li     tau(  18) = (   0.4993455   0.2297865   1.1965622  )
        19        Li     tau(  19) = (   0.5007788  -0.0574449   2.0886991  )
        20        Li     tau(  20) = (   0.7491726   0.4166425   1.1536296  )
        21        Li     tau(  21) = (   0.7493398   0.0973396   1.3113038  )
        22        Li     tau(  22) = (   0.9997062   0.4990265   1.3615096  )
        23        Li     tau(  23) = (   0.9998470   0.1641433   1.5088567  )
        24        Li     tau(  24) = (   0.7499848   0.5989033   1.6047897  )
        25        Li     tau(  25) = (   0.7501776   0.2345347   1.7302108  )
        26        Li     tau(  26) = (   1.0005517   0.6599201   1.8728327  )
        27        Li     tau(  27) = (   1.0006551   0.3535463   1.9854183  )
        28        Li     tau(  28) = (   0.7494479   0.6734132   1.3091474  )
        29        Li     tau(  29) = (   0.7498226   0.3487987   1.4517683  )
        30        Li     tau(  30) = (   1.0000150   0.7344297   1.5771907  )
        31        Li     tau(  31) = (   1.0001531   0.4191900   1.6731242  )
        32        Li     tau(  32) = (   1.0002941   0.0843079   1.8204715  )
        33        Li     tau(  33) = (   0.7506603   0.4859928   1.8706765  )
        34        Li     tau(  34) = (   0.7508268   0.1666915   2.0283499  )
        35        Li     tau(  35) = (   0.9992229   0.6407770   1.0932810  )
        36        Li     tau(  36) = (   0.9993457   0.2297897   1.1965640  )

     number of k points=    32  Marzari-Vanderbilt smearing, width (Ry)=  0.0100
                       cart. coord. in units 2pi/alat
        k(    1) = (   0.0000000   0.0000000   0.0000000), wk =   0.0317460
        k(    2) = (   0.0000000   0.1481481   0.0000000), wk =   0.0634921
        k(    3) = (   0.0000000   0.2962963   0.0000000), wk =   0.0634921
        k(    4) = (   0.0000000   0.4444444   0.0000000), wk =   0.0634921
        k(    5) = (   0.0000000   0.5925926   0.0000000), wk =   0.0634921
        k(    6) = (   0.1428571  -0.0476190   0.0000000), wk =   0.0634921
        k(    7) = (   0.1428571   0.1005291   0.0000000), wk =   0.0634921
        k(    8) = (   0.1428571   0.2486772   0.0000000), wk =   0.0634921
        k(    9) = (   0.1428571   0.3968254   0.0000000), wk =   0.0634921
        k(   10) = (   0.1428571   0.5449735   0.0000000), wk =   0.0634921
        k(   11) = (   0.1428571  -0.6402116   0.0000000), wk =   0.0634921
        k(   12) = (   0.1428571  -0.4920635   0.0000000), wk =   0.0634921
        k(   13) = (   0.1428571  -0.3439153   0.0000000), wk =   0.0634921
        k(   14) = (   0.1428571  -0.1957672   0.0000000), wk =   0.0634921
        k(   15) = (   0.2857143  -0.0952381   0.0000000), wk =   0.0634921
        k(   16) = (   0.2857143   0.0529101   0.0000000), wk =   0.0634921
        k(   17) = (   0.2857143   0.2010582   0.0000000), wk =   0.0634921
        k(   18) = (   0.2857143   0.3492063   0.0000000), wk =   0.0634921
        k(   19) = (   0.2857143   0.4973545   0.0000000), wk =   0.0634921
        k(   20) = (   0.2857143  -0.6878307   0.0000000), wk =   0.0634921
        k(   21) = (   0.2857143  -0.5396825   0.0000000), wk =   0.0634921
        k(   22) = (   0.2857143  -0.3915344   0.0000000), wk =   0.0634921
        k(   23) = (   0.2857143  -0.2433862   0.0000000), wk =   0.0634921
        k(   24) = (   0.4285714  -0.1428571   0.0000000), wk =   0.0634921
        k(   25) = (   0.4285714   0.0052910   0.0000000), wk =   0.0634921
        k(   26) = (   0.4285714   0.1534392   0.0000000), wk =   0.0634921
        k(   27) = (   0.4285714   0.3015873   0.0000000), wk =   0.0634921
        k(   28) = (   0.4285714   0.4497354   0.0000000), wk =   0.0634921
        k(   29) = (   0.4285714  -0.7354497   0.0000000), wk =   0.0634921
        k(   30) = (   0.4285714  -0.5873016   0.0000000), wk =   0.0634921
        k(   31) = (   0.4285714  -0.4391534   0.0000000), wk =   0.0634921
        k(   32) = (   0.4285714  -0.2910053   0.0000000), wk =   0.0634921

     Dense  grid:  5644329 G-vectors     FFT dimensions: ( 180, 135, 540)

     Smooth grid:  1428057 G-vectors     FFT dimensions: ( 108,  90, 360)

     Estimated max dynamical RAM per process >      87.65 MB

     Estimated total dynamical RAM >      30.18 GB

     Initial potential from superposition of free atoms

     starting charge     107.8341, renormalised to     108.0000

     negative rho (up, down):  2.332E-03 0.000E+00
     Starting wfcs are  180 randomized atomic wfcs
     Checking if some PAW data can be deallocated... 

     total cpu time spent up to now is       11.0 secs

     Self-consistent Calculation

     iteration #  1     ecut=    80.00 Ry     beta= 0.20
     Davidson diagonalization with overlap
     ethr =  1.00E-02,  avg # of iterations =  3.8

     negative rho (up, down):  9.278E-05 0.000E+00

     total cpu time spent up to now is       19.8 secs

     total energy              =    -541.51717348 Ry
     estimated scf accuracy    <       4.30588244 Ry

     iteration #  2     ecut=    80.00 Ry     beta= 0.20
     Davidson diagonalization with overlap
     ethr =  3.99E-03,  avg # of iterations =  1.3

     total cpu time spent up to now is       25.8 secs

     total energy              =    -541.01261736 Ry
     estimated scf accuracy    <       3.12178167 Ry

     iteration #  3     ecut=    80.00 Ry     beta= 0.20
     Davidson diagonalization with overlap
     ethr =  2.89E-03,  avg # of iterations =  1.2

     total cpu time spent up to now is       31.0 secs

     total energy              =    -541.25044890 Ry
     estimated scf accuracy    <       0.28662923 Ry

     iteration #  4     ecut=    80.00 Ry     beta= 0.20
     Davidson diagonalization with overlap
     ethr =  2.65E-04,  avg # of iterations =  4.0

     total cpu time spent up to now is       37.5 secs

     total energy              =    -541.25680786 Ry
     estimated scf accuracy    <       0.32034130 Ry

     iteration #  5     ecut=    80.00 Ry     beta= 0.20
     Davidson diagonalization with overlap
     ethr =  2.65E-04,  avg # of iterations =  2.1

     total cpu time spent up to now is       43.0 secs

     total energy              =    -541.27056974 Ry
     estimated scf accuracy    <       0.08885198 Ry

     iteration #  6     ecut=    80.00 Ry     beta= 0.20
     Davidson diagonalization with overlap
     c_bands:  1 eigenvalues not converged
     ethr =  8.23E-05,  avg # of iterations =  8.7

     total cpu time spent up to now is       51.0 secs

     total energy              =    -541.25480676 Ry
     estimated scf accuracy    <       0.10327802 Ry

     iteration #  7     ecut=    80.00 Ry     beta= 0.20
     Davidson diagonalization with overlap
     ethr =  8.23E-05,  avg # of iterations =  4.4

     total cpu time spent up to now is       57.1 secs

     total energy              =    -541.25970565 Ry
     estimated scf accuracy    <       0.03317756 Ry

     iteration #  8     ecut=    80.00 Ry     beta= 0.20
     Davidson diagonalization with overlap
     ethr =  3.07E-05,  avg # of iterations =  3.3

     negative rho (up, down):  7.766E-02 0.000E+00

     total cpu time spent up to now is       63.1 secs

     total energy              =    -541.24662416 Ry
     estimated scf accuracy    <       0.10857203 Ry

     iteration #  9     ecut=    80.00 Ry     beta= 0.20
     Davidson diagonalization with overlap
     ethr =  3.07E-05,  avg # of iterations = 12.5

     negative rho (up, down):  2.610E-02 0.000E+00

     total cpu time spent up to now is       72.4 secs

     total energy              =    -541.25458431 Ry
     estimated scf accuracy    <       0.01848779 Ry

     iteration # 10     ecut=    80.00 Ry     beta= 0.20
     Davidson diagonalization with overlap
     c_bands:  2 eigenvalues not converged
     c_bands:  1 eigenvalues not converged
     ethr =  1.71E-05,  avg # of iterations = 13.7

     negative rho (up, down):  9.563E-02 0.000E+00

     total cpu time spent up to now is       82.0 secs

     total energy              =    -541.25593139 Ry
     estimated scf accuracy    <       0.19298059 Ry

     iteration # 11     ecut=    80.00 Ry     beta= 0.20
     Davidson diagonalization with overlap
     c_bands:  1 eigenvalues not converged
     ethr =  1.71E-05,  avg # of iterations = 13.3

     negative rho (up, down):  9.163E-02 0.000E+00

     total cpu time spent up to now is       90.9 secs

     total energy              =    -541.25074591 Ry
     estimated scf accuracy    <       0.08416733 Ry

     iteration # 12     ecut=    80.00 Ry     beta= 0.20
     Davidson diagonalization with overlap
     ethr =  1.71E-05,  avg # of iterations =  2.0

     negative rho (up, down):  6.493E-02 0.000E+00

     total cpu time spent up to now is       96.3 secs

     total energy              =    -541.24880041 Ry
     estimated scf accuracy    <       0.02196619 Ry

     iteration # 13     ecut=    80.00 Ry     beta= 0.20
     Davidson diagonalization with overlap
     c_bands:  2 eigenvalues not converged
     ethr =  1.71E-05,  avg # of iterations = 11.4

     negative rho (up, down):  5.802E-02 0.000E+00

     total cpu time spent up to now is      104.6 secs

     total energy              =    -541.24951161 Ry
     estimated scf accuracy    <       0.00200864 Ry

     iteration # 14     ecut=    80.00 Ry     beta= 0.20
     Davidson diagonalization with overlap
     c_bands:  1 eigenvalues not converged
     ethr =  1.86E-06,  avg # of iterations = 10.0

     negative rho (up, down):  2.567E-02 0.000E+00

     total cpu time spent up to now is      113.7 secs

     total energy              =    -541.24996483 Ry
     estimated scf accuracy    <       0.00040442 Ry

     iteration # 15     ecut=    80.00 Ry     beta= 0.20
     Davidson diagonalization with overlap
     ethr =  3.74E-07,  avg # of iterations = 14.2

     negative rho (up, down):  3.568E-03 0.000E+00

     total cpu time spent up to now is      123.7 secs

     total energy              =    -541.24957470 Ry
     estimated scf accuracy    <       0.00165709 Ry

     iteration # 16     ecut=    80.00 Ry     beta= 0.20
     Davidson diagonalization with overlap
     ethr =  3.74E-07,  avg # of iterations = 14.6

     negative rho (up, down):  2.800E-03 0.000E+00

     total cpu time spent up to now is      132.7 secs

     total energy              =    -541.24978587 Ry
     estimated scf accuracy    <       0.00000618 Ry

     iteration # 17     ecut=    80.00 Ry     beta= 0.20
     Davidson diagonalization with overlap
     ethr =  5.72E-09,  avg # of iterations =  5.9

     negative rho (up, down):  2.312E-03 0.000E+00

     total cpu time spent up to now is      142.0 secs

     total energy              =    -541.24982071 Ry
     estimated scf accuracy    <       0.00000570 Ry

     iteration # 18     ecut=    80.00 Ry     beta= 0.20
     Davidson diagonalization with overlap
     ethr =  5.27E-09,  avg # of iterations =  3.3

     negative rho (up, down):  3.129E-05 0.000E+00

     total cpu time spent up to now is      147.7 secs

     total energy              =    -541.24983677 Ry
     estimated scf accuracy    <       0.00000351 Ry

     iteration # 19     ecut=    80.00 Ry     beta= 0.20
     Davidson diagonalization with overlap
     c_bands:  1 eigenvalues not converged
     c_bands:  1 eigenvalues not converged
     c_bands:  1 eigenvalues not converged
     ethr =  3.25E-09,  avg # of iterations = 14.8

     negative rho (up, down):  1.915E-04 0.000E+00

     total cpu time spent up to now is      156.4 secs

     total energy              =    -541.24984118 Ry
     estimated scf accuracy    <       0.00000183 Ry

     iteration # 20     ecut=    80.00 Ry     beta= 0.20
     Davidson diagonalization with overlap
     ethr =  1.69E-09,  avg # of iterations =  6.9

     negative rho (up, down):  2.065E-04 0.000E+00

     total cpu time spent up to now is      162.9 secs

     End of self-consistent calculation

          k = 0.0000 0.0000 0.0000 (178567 PWs)   bands (ev):

   -49.1520 -49.1520 -49.1520 -49.1520 -48.7168 -48.7168 -48.7167 -48.7166
   -48.6417 -48.6417 -48.6416 -48.6416 -48.1074 -48.1070 -48.1070 -48.1068
   -48.0783 -48.0778 -48.0733 -48.0732 -48.0598 -48.0514 -48.0512 -48.0430
   -48.0303 -48.0302 -48.0302 -48.0301 -47.9964 -47.9962 -47.9957 -47.9957
   -47.9838 -47.9835 -47.9794 -47.9792  -4.9163  -4.3609  -3.5982  -3.5955
    -3.4554  -3.0270  -3.0263  -2.7992  -2.7987  -2.5642  -2.5482  -2.4056
    -2.2630  -2.1590  -2.1513  -2.1420  -1.9714  -1.9170  -1.3848  -1.3630
    -1.3385  -1.1004  -1.0741  -1.0589  -1.0040  -0.8746  -0.6216  -0.4119
    -0.4117  -0.3386  -0.2263  -0.1826   0.0723   0.2737   0.3025   0.3288
     0.3591   0.6599   0.6809   0.8446   1.0392   1.0720   1.1390   1.4331
     1.4701

          k = 0.0000 0.1481 0.0000 (178518 PWs)   bands (ev):

   -49.1520 -49.1520 -49.1520 -49.1520 -48.7168 -48.7168 -48.7167 -48.7166
   -48.6417 -48.6417 -48.6416 -48.6416 -48.1074 -48.1070 -48.1070 -48.1068
   -48.0783 -48.0778 -48.0734 -48.0732 -48.0598 -48.0514 -48.0512 -48.0430
   -48.0303 -48.0302 -48.0302 -48.0301 -47.9964 -47.9962 -47.9957 -47.9957
   -47.9838 -47.9835 -47.9794 -47.9792  -4.8903  -4.3348  -3.6883  -3.4534
    -3.4314  -3.2399  -3.1155  -2.9000  -2.8587  -2.6626  -2.4112  -2.3410
    -2.2693  -2.2056  -2.1774  -1.9373  -1.7381  -1.6997  -1.6530  -1.4920
    -1.2614  -1.2073  -1.1033  -0.9850  -0.8409  -0.7873  -0.7021  -0.6517
    -0.6395  -0.2650  -0.0607  -0.0311   0.0605   0.2629   0.3214   0.3565
     0.5659   0.6622   0.7242   0.9324   1.0448   1.0474   1.2573   1.2681
     1.4350

          k = 0.0000 0.2963 0.0000 (178450 PWs)   bands (ev):

   -49.1520 -49.1520 -49.1520 -49.1520 -48.7168 -48.7168 -48.7167 -48.7166
   -48.6417 -48.6417 -48.6416 -48.6416 -48.1073 -48.1070 -48.1070 -48.1068
   -48.0782 -48.0778 -48.0735 -48.0732 -48.0597 -48.0514 -48.0512 -48.0430
   -48.0303 -48.0302 -48.0302 -48.0301 -47.9964 -47.9962 -47.9957 -47.9956
   -47.9838 -47.9835 -47.9794 -47.9792  -4.8122  -4.2569  -3.7276  -3.6336
    -3.3655  -3.2597  -3.1565  -3.1386  -3.0391  -2.7011  -2.5828  -2.3419
    -2.2193  -2.0982  -1.8246  -1.7836  -1.7310  -1.6781  -1.6078  -1.3019
    -1.2513  -1.1377  -1.1120  -1.1024  -0.9593  -0.9106  -0.8564  -0.7813
    -0.2850  -0.1755  -0.1423   0.0277   0.2398   0.2923   0.3488   0.3781
     0.8162   0.8833   0.8965   0.9626   1.1141   1.1736   1.1766   1.3173
     1.4283

          k = 0.0000 0.4444 0.0000 (178426 PWs)   bands (ev):

   -49.1520 -49.1520 -49.1520 -49.1520 -48.7168 -48.7168 -48.7167 -48.7166
   -48.6417 -48.6417 -48.6416 -48.6416 -48.1073 -48.1071 -48.1070 -48.1068
   -48.0782 -48.0778 -48.0737 -48.0732 -48.0595 -48.0514 -48.0512 -48.0430
   -48.0303 -48.0302 -48.0302 -48.0301 -47.9964 -47.9962 -47.9958 -47.9956
   -47.9838 -47.9835 -47.9794 -47.9792  -4.6821  -4.1294  -3.9714  -3.7145
    -3.4405  -3.3626  -3.1748  -3.1410  -3.0141  -2.7973  -2.4976  -2.4655
    -2.2089  -2.1518  -2.0075  -1.8665  -1.5913  -1.4838  -1.4188  -1.3883
    -1.1471  -1.1134  -1.0259  -0.9934  -0.9907  -0.9021  -0.8016  -0.5472
    -0.3710  -0.2778   0.0004   0.1801   0.2485   0.3367   0.3904   0.7685
     0.8519   0.8537   0.9050   0.9282   1.0908   1.1009   1.2810   1.4162
     1.6077

          k = 0.0000 0.5926 0.0000 (178483 PWs)   bands (ev):

   -49.1520 -49.1520 -49.1520 -49.1520 -48.7168 -48.7168 -48.7167 -48.7166
   -48.6417 -48.6417 -48.6416 -48.6416 -48.1072 -48.1071 -48.1070 -48.1068
   -48.0781 -48.0778 -48.0739 -48.0732 -48.0595 -48.0514 -48.0512 -48.0430
   -48.0303 -48.0302 -48.0302 -48.0301 -47.9964 -47.9962 -47.9958 -47.9956
   -47.9838 -47.9835 -47.9794 -47.9792  -4.4997  -4.2654  -3.9416  -3.7080
    -3.6491  -3.5315  -3.0772  -3.0167  -2.9638  -2.7677  -2.7184  -2.3848
    -2.2145  -2.1594  -2.0214  -1.9832  -1.8115  -1.6214  -1.4198  -1.1459
    -1.0940  -1.0620  -1.0209  -0.9192  -0.8635  -0.6732  -0.5900  -0.4712
    -0.3457  -0.1366  -0.0267   0.1803   0.2701   0.2913   0.3272   0.6912
     0.8159   0.8424   0.8745   0.9430   1.0487   1.0610   1.3950   1.5262
     1.5449

          k = 0.1429-0.0476 0.0000 (178500 PWs)   bands (ev):

   -49.1520 -49.1520 -49.1520 -49.1520 -48.7168 -48.7168 -48.7167 -48.7166
   -48.6417 -48.6417 -48.6416 -48.6416 -48.1074 -48.1070 -48.1070 -48.1068
   -48.0783 -48.0778 -48.0733 -48.0732 -48.0596 -48.0532 -48.0494 -48.0432
   -48.0303 -48.0302 -48.0302 -48.0301 -47.9963 -47.9962 -47.9957 -47.9957
   -47.9838 -47.9835 -47.9794 -47.9792  -4.8894  -4.3336  -3.9465  -3.4276
    -3.3797  -3.1944  -2.9228  -2.7555  -2.6286  -2.6244  -2.4700  -2.3842
    -2.3307  -2.3061  -2.1665  -2.0246  -1.8257  -1.6269  -1.4720  -1.4393
    -1.3294  -1.2530  -1.1898  -0.9420  -0.9254  -0.7297  -0.6819  -0.6669
    -0.4740  -0.4164  -0.2428  -0.2410  -0.0407   0.0876   0.2050   0.2079
     0.4034   0.7323   0.7591   0.9026   1.0936   1.1332   1.1879   1.3350
     1.4396

          k = 0.1429 0.1005 0.0000 (178452 PWs)   bands (ev):

   -49.1520 -49.1520 -49.1520 -49.1520 -48.7168 -48.7168 -48.7167 -48.7166
   -48.6417 -48.6417 -48.6416 -48.6416 -48.1074 -48.1070 -48.1070 -48.1068
   -48.0783 -48.0778 -48.0733 -48.0733 -48.0596 -48.0531 -48.0495 -48.0432
   -48.0303 -48.0302 -48.0302 -48.0301 -47.9963 -47.9962 -47.9958 -47.9957
   -47.9838 -47.9835 -47.9794 -47.9792  -4.8801  -4.3243  -3.8200  -3.4189
    -3.3050  -3.2558  -3.0862  -3.0802  -2.7270  -2.5622  -2.5180  -2.4557
    -2.3391  -2.2899  -1.9629  -1.8561  -1.8052  -1.6706  -1.5754  -1.4288
    -1.2659  -1.2080  -1.0360  -0.8927  -0.8229  -0.7557  -0.6841  -0.5938
    -0.5181  -0.3641  -0.2489  -0.2075  -0.1037   0.1852   0.1940   0.2841
     0.3467   0.7164   0.7436   0.8786   1.0824   1.1749   1.2194   1.3267
     1.4864

          k = 0.1429 0.2487 0.0000 (178508 PWs)   bands (ev):

   -49.1520 -49.1520 -49.1520 -49.1520 -48.7168 -48.7168 -48.7167 -48.7166
   -48.6417 -48.6417 -48.6416 -48.6416 -48.1073 -48.1070 -48.1070 -48.1068
   -48.0782 -48.0778 -48.0735 -48.0733 -48.0595 -48.0531 -48.0495 -48.0432
   -48.0303 -48.0302 -48.0302 -48.0301 -47.9963 -47.9962 -47.9958 -47.9957
   -47.9838 -47.9835 -47.9794 -47.9792  -4.8188  -4.2630  -3.6421  -3.4901
    -3.3767  -3.3631  -3.3602  -3.0792  -2.9030  -2.8203  -2.7810  -2.3326
    -2.1500  -1.9956  -1.9081  -1.8646  -1.8372  -1.6012  -1.3586  -1.2173
    -1.1932  -1.1194  -1.1043  -0.9696  -0.9172  -0.8652  -0.7776  -0.6894
    -0.3482  -0.2942  -0.2509  -0.0211  -0.0086   0.2633   0.2860   0.3907
     0.5757   0.6916   0.7989   0.8175   1.0820   1.1611   1.3796   1.4288
     1.4742

          k = 0.1429 0.3968 0.0000 (178446 PWs)   bands (ev):

   -49.1520 -49.1520 -49.1520 -49.1520 -48.7168 -48.7168 -48.7167 -48.7166
   -48.6417 -48.6417 -48.6416 -48.6416 -48.1073 -48.1070 -48.1070 -48.1068
   -48.0782 -48.0778 -48.0737 -48.0733 -48.0594 -48.0531 -48.0495 -48.0432
   -48.0303 -48.0302 -48.0302 -48.0301 -47.9963 -47.9962 -47.9958 -47.9957
   -47.9838 -47.9835 -47.9794 -47.9792  -4.7054  -4.1505  -3.8457  -3.6125
    -3.4131  -3.3641  -3.3462  -3.1639  -3.0509  -2.8552  -2.7846  -2.3877
    -2.1539  -2.1251  -1.9380  -1.8409  -1.5493  -1.3500  -1.2556  -1.2467
    -1.1839  -1.1209  -1.0731  -1.0388  -0.9175  -0.8106  -0.7145  -0.6912
    -0.4366  -0.3197   0.0094   0.1554   0.2297   0.2756   0.3547   0.3957
     0.6573   0.6910   0.7904   0.9621   1.1701   1.2968   1.3752   1.3961
     1.5688

          k = 0.1429 0.5450 0.0000 (178416 PWs)   bands (ev):

   -49.1520 -49.1520 -49.1520 -49.1520 -48.7168 -48.7168 -48.7167 -48.7166
   -48.6417 -48.6417 -48.6416 -48.6416 -48.1072 -48.1071 -48.1070 -48.1068
   -48.0781 -48.0778 -48.0738 -48.0733 -48.0593 -48.0531 -48.0495 -48.0432
   -48.0303 -48.0302 -48.0302 -48.0301 -47.9963 -47.9962 -47.9958 -47.9957
   -47.9838 -47.9836 -47.9794 -47.9792  -4.5398  -4.1561  -3.9795  -3.7977
    -3.6000  -3.3159  -3.2359  -3.1284  -3.0508  -2.7377  -2.6618  -2.5988
    -2.2753  -2.0374  -1.9129  -1.8117  -1.7046  -1.5343  -1.3895  -1.2520
    -1.2067  -1.0431  -0.9250  -0.8935  -0.7398  -0.6837  -0.6075  -0.5185
    -0.4432  -0.1776  -0.1725   0.1733   0.2049   0.3484   0.3588   0.5939
     0.7104   0.7347   0.8380   0.8680   1.0837   1.2418   1.2779   1.4998
     1.5093

          k = 0.1429-0.6402 0.0000 (178458 PWs)   bands (ev):

   -49.1520 -49.1520 -49.1520 -49.1520 -48.7168 -48.7168 -48.7167 -48.7166
   -48.6417 -48.6417 -48.6416 -48.6416 -48.1072 -48.1071 -48.1070 -48.1068
   -48.0781 -48.0778 -48.0739 -48.0732 -48.0593 -48.0532 -48.0494 -48.0432
   -48.0303 -48.0302 -48.0302 -48.0301 -47.9963 -47.9962 -47.9958 -47.9957
   -47.9838 -47.9836 -47.9794 -47.9792  -4.4059  -4.3220  -3.9316  -3.8501
    -3.7620  -3.3652  -3.2130  -2.9350  -2.8122  -2.8053  -2.6418  -2.4643
    -2.2680  -2.1998  -1.9685  -1.8062  -1.6367  -1.6207  -1.4903  -1.3260
    -1.2277  -1.1575  -0.9134  -0.8731  -0.6978  -0.6727  -0.5401  -0.5359
    -0.3869  -0.2471  -0.0460   0.1752   0.1995   0.2699   0.3886   0.5881
     0.6347   0.7346   0.9033   1.0126   1.0240   1.1369   1.3214   1.4673
     1.5945

          k = 0.1429-0.4921 0.0000 (178370 PWs)   bands (ev):

   -49.1520 -49.1520 -49.1520 -49.1520 -48.7168 -48.7168 -48.7167 -48.7166
   -48.6417 -48.6417 -48.6416 -48.6416 -48.1072 -48.1071 -48.1070 -48.1068
   -48.0781 -48.0778 -48.0738 -48.0732 -48.0593 -48.0532 -48.0494 -48.0432
   -48.0303 -48.0302 -48.0302 -48.0301 -47.9963 -47.9962 -47.9958 -47.9957
   -47.9838 -47.9835 -47.9794 -47.9792  -4.6050  -4.0736  -4.0242  -4.0135
    -3.5030  -3.4452  -3.1092  -3.0599  -2.5694  -2.5643  -2.5346  -2.4742
    -2.4310  -2.0864  -2.0236  -1.8804  -1.5754  -1.5568  -1.4484  -1.4163
    -1.2747  -1.1834  -1.0370  -0.9756  -0.9339  -0.9147  -0.6944  -0.4961
    -0.3994  -0.3599  -0.2151   0.1706   0.2555   0.4321   0.4867   0.5324
     0.6675   0.6931   0.8429   0.9399   1.1250   1.1344   1.3150   1.4443
     1.4455

          k = 0.1429-0.3439 0.0000 (178438 PWs)   bands (ev):

   -49.1520 -49.1520 -49.1520 -49.1520 -48.7168 -48.7168 -48.7167 -48.7166
   -48.6417 -48.6417 -48.6416 -48.6416 -48.1073 -48.1070 -48.1070 -48.1068
   -48.0782 -48.0778 -48.0736 -48.0732 -48.0594 -48.0533 -48.0494 -48.0432
   -48.0303 -48.0302 -48.0302 -48.0301 -47.9963 -47.9962 -47.9958 -47.9957
   -47.9838 -47.9835 -47.9794 -47.9792  -4.7519  -4.1964  -4.0433  -3.7248
    -3.4745  -3.3243  -3.1107  -2.8585  -2.8197  -2.5519  -2.3230  -2.3032
    -2.2544  -2.1435  -2.0299  -1.9638  -1.5489  -1.5362  -1.4655  -1.4206
    -1.3747  -1.3578  -1.1931  -1.0769  -1.0621  -0.8876  -0.7913  -0.7745
    -0.3934  -0.2879  -0.2134   0.0012   0.1791   0.2648   0.2693   0.5078
     0.6520   0.6796   0.9483   1.0620   1.0985   1.1598   1.2354   1.3864
     1.5192

          k = 0.1429-0.1958 0.0000 (178495 PWs)   bands (ev):

   -49.1520 -49.1520 -49.1520 -49.1520 -48.7168 -48.7168 -48.7167 -48.7166
   -48.6417 -48.6417 -48.6416 -48.6416 -48.1073 -48.1070 -48.1070 -48.1068
   -48.0783 -48.0778 -48.0734 -48.0732 -48.0595 -48.0532 -48.0494 -48.0432
   -48.0303 -48.0302 -48.0302 -48.0301 -47.9963 -47.9962 -47.9958 -47.9957
   -47.9838 -47.9835 -47.9794 -47.9792  -4.8467  -4.2908  -4.0210  -3.4526
    -3.3907  -3.3463  -3.0339  -2.7676  -2.6051  -2.5384  -2.4554  -2.3767
    -2.3569  -2.0986  -2.0581  -1.8290  -1.8201  -1.6147  -1.5532  -1.5328
    -1.4204  -1.2788  -1.1553  -1.0890  -0.9079  -0.9000  -0.7456  -0.6999
    -0.5244  -0.2629  -0.2214  -0.2146  -0.1452   0.2595   0.2888   0.4776
     0.4941   0.6879   0.7565   0.9545   1.0723   1.1246   1.1483   1.3908
     1.4893

          k = 0.2857-0.0952 0.0000 (178519 PWs)   bands (ev):

   -49.1520 -49.1520 -49.1520 -49.1520 -48.7168 -48.7167 -48.7167 -48.7167
   -48.6417 -48.6417 -48.6416 -48.6416 -48.1073 -48.1071 -48.1070 -48.1068
   -48.0782 -48.0779 -48.0733 -48.0732 -48.0590 -48.0550 -48.0477 -48.0438
   -48.0303 -48.0302 -48.0302 -48.0301 -47.9962 -47.9961 -47.9958 -47.9958
   -47.9837 -47.9836 -47.9794 -47.9793  -4.8086  -4.2517  -4.2428  -3.6789
    -3.3443  -2.9961  -2.8989  -2.7675  -2.7417  -2.4447  -2.3938  -2.3225
    -2.2662  -2.1646  -1.9919  -1.8120  -1.7257  -1.5331  -1.5018  -1.5010
    -1.3979  -1.2002  -1.1616  -1.1388  -0.9888  -0.8297  -0.7865  -0.7655
    -0.5637  -0.5611  -0.4680  -0.3373  -0.3228  -0.1161   0.0995   0.1447
     0.5520   0.6467   0.7992   0.9594   1.0376   1.0963   1.3130   1.3783
     1.4626

          k = 0.2857 0.0529 0.0000 (178527 PWs)   bands (ev):

   -49.1520 -49.1520 -49.1520 -49.1520 -48.7168 -48.7167 -48.7167 -48.7167
   -48.6417 -48.6417 -48.6416 -48.6416 -48.1073 -48.1070 -48.1070 -48.1068
   -48.0782 -48.0778 -48.0733 -48.0733 -48.0590 -48.0549 -48.0477 -48.0438
   -48.0303 -48.0302 -48.0302 -48.0301 -47.9963 -47.9961 -47.9958 -47.9958
   -47.9837 -47.9836 -47.9793 -47.9793  -4.8160  -4.2591  -4.1332  -3.5712
    -3.3512  -3.2490  -2.8706  -2.8700  -2.7566  -2.5733  -2.5464  -2.3158
    -2.2831  -2.2668  -1.9458  -1.8203  -1.6763  -1.5745  -1.3944  -1.3642
    -1.1792  -1.1506  -1.0966  -1.0823  -0.9083  -0.8723  -0.8362  -0.5995
    -0.5138  -0.4783  -0.4081  -0.3336  -0.2929  -0.1551   0.0533   0.1079
     0.5240   0.6577   0.8158   0.9424   0.9508   1.0765   1.3257   1.4313
     1.4335

          k = 0.2857 0.2011 0.0000 (178563 PWs)   bands (ev):

   -49.1520 -49.1520 -49.1520 -49.1520 -48.7168 -48.7167 -48.7167 -48.7167
   -48.6417 -48.6417 -48.6416 -48.6416 -48.1073 -48.1070 -48.1070 -48.1068
   -48.0782 -48.0778 -48.0734 -48.0734 -48.0589 -48.0548 -48.0477 -48.0438
   -48.0303 -48.0302 -48.0302 -48.0301 -47.9963 -47.9961 -47.9958 -47.9958
   -47.9837 -47.9836 -47.9793 -47.9793  -4.7715  -4.2146  -3.9718  -3.5575
    -3.4073  -3.3158  -3.2877  -3.0044  -2.9425  -2.7123  -2.4792  -2.3489
    -2.2765  -2.0754  -2.0206  -1.7680  -1.5144  -1.4599  -1.3557  -1.3342
    -1.3063  -1.0751  -1.0561  -0.9054  -0.8406  -0.7231  -0.6881  -0.6067
    -0.5410  -0.4720  -0.3680  -0.2665  -0.2113  -0.0204   0.1943   0.2172
     0.4727   0.6995   0.7329   0.8346   1.0447   1.1566   1.3332   1.4007
     1.5332

          k = 0.2857 0.3492 0.0000 (178484 PWs)   bands (ev):

   -49.1520 -49.1520 -49.1520 -49.1520 -48.7168 -48.7167 -48.7167 -48.7167
   -48.6417 -48.6417 -48.6416 -48.6416 -48.1072 -48.1070 -48.1070 -48.1069
   -48.0781 -48.0778 -48.0735 -48.0734 -48.0588 -48.0548 -48.0477 -48.0438
   -48.0303 -48.0302 -48.0302 -48.0301 -47.9963 -47.9961 -47.9959 -47.9957
   -47.9837 -47.9836 -47.9793 -47.9792  -4.6749  -4.1184  -3.8093  -3.7582
    -3.6660  -3.2543  -3.2498  -3.1942  -3.0471  -2.9644  -2.4025  -2.3138
    -2.2535  -2.2444  -2.0754  -1.4942  -1.4710  -1.4620  -1.3199  -1.1524
    -1.1340  -1.0651  -1.0018  -0.9873  -0.8373  -0.8274  -0.7044  -0.6531
    -0.3210  -0.2938  -0.2797  -0.1435  -0.0238   0.0948   0.2592   0.3126
     0.5088   0.6739   0.6953   0.7663   1.1961   1.3051   1.3925   1.4018
     1.6116

          k = 0.2857 0.4974 0.0000 (178446 PWs)   bands (ev):

   -49.1520 -49.1520 -49.1520 -49.1520 -48.7168 -48.7167 -48.7167 -48.7167
   -48.6417 -48.6417 -48.6416 -48.6416 -48.1072 -48.1070 -48.1070 -48.1068
   -48.0781 -48.0778 -48.0737 -48.0734 -48.0587 -48.0549 -48.0477 -48.0438
   -48.0303 -48.0302 -48.0302 -48.0301 -47.9963 -47.9961 -47.9959 -47.9957
   -47.9837 -47.9836 -47.9793 -47.9792  -4.5261  -4.0107  -4.0047  -3.9521
    -3.5023  -3.4408  -3.4398  -3.0292  -2.9504  -2.9284  -2.5099  -2.5031
    -2.3400  -2.0225  -2.0058  -1.5656  -1.5281  -1.4033  -1.3903  -1.3610
    -1.0519  -0.9284  -0.9219  -0.8868  -0.8829  -0.8592  -0.5157  -0.3983
    -0.3767  -0.3412  -0.2345  -0.0337   0.0607   0.1716   0.2804   0.4752
     0.5548   0.6392   0.6940   0.8564   1.0771   1.3323   1.4087   1.4381
     1.5607

          k = 0.2857-0.6878 0.0000 (178477 PWs)   bands (ev):

   -49.1520 -49.1520 -49.1520 -49.1520 -48.7168 -48.7167 -48.7167 -48.7167
   -48.6417 -48.6417 -48.6416 -48.6416 -48.1072 -48.1071 -48.1070 -48.1068
   -48.0780 -48.0778 -48.0738 -48.0733 -48.0587 -48.0549 -48.0477 -48.0439
   -48.0303 -48.0302 -48.0302 -48.0301 -47.9963 -47.9961 -47.9959 -47.9957
   -47.9837 -47.9836 -47.9793 -47.9792  -4.3254  -4.2582  -4.1611  -3.7700
    -3.6972  -3.5984  -3.1778  -2.8565  -2.8471  -2.7449  -2.7361  -2.5502
    -2.2616  -1.8933  -1.7744  -1.7434  -1.6039  -1.5841  -1.5674  -1.3704
    -1.1893  -1.1529  -0.9557  -0.8202  -0.7962  -0.6641  -0.5019  -0.4937
    -0.3879  -0.2951  -0.1689   0.0042   0.1083   0.2398   0.2873   0.4522
     0.5427   0.6448   0.8343   0.9571   0.9666   1.1452   1.4024   1.4249
     1.5805

          k = 0.2857-0.5397 0.0000 (178492 PWs)   bands (ev):

   -49.1520 -49.1520 -49.1520 -49.1520 -48.7168 -48.7167 -48.7167 -48.7167
   -48.6417 -48.6417 -48.6416 -48.6416 -48.1072 -48.1071 -48.1070 -48.1068
   -48.0780 -48.0779 -48.0737 -48.0732 -48.0587 -48.0550 -48.0477 -48.0438
   -48.0303 -48.0302 -48.0302 -48.0301 -47.9962 -47.9961 -47.9959 -47.9957
   -47.9837 -47.9836 -47.9794 -47.9792  -4.4741  -4.2595  -4.0743  -3.9129
    -3.6954  -3.5182  -2.9828  -2.8211  -2.7763  -2.7080  -2.5805  -2.2482
    -2.1335  -2.0530  -1.9672  -1.7413  -1.5894  -1.5827  -1.5547  -1.4570
    -1.3709  -1.1850  -1.0769  -0.9368  -0.8511  -0.7671  -0.7387  -0.5815
    -0.4073  -0.3560  -0.2231  -0.0054   0.0889   0.1701   0.2892   0.5292
     0.5493   0.6679   0.7040   1.0254   1.0432   1.2756   1.3567   1.4291
     1.4298

          k = 0.2857-0.3915 0.0000 (178502 PWs)   bands (ev):

   -49.1520 -49.1520 -49.1520 -49.1520 -48.7168 -48.7167 -48.7167 -48.7167
   -48.6417 -48.6417 -48.6416 -48.6416 -48.1072 -48.1071 -48.1070 -48.1068
   -48.0781 -48.0779 -48.0736 -48.0732 -48.0588 -48.0550 -48.0476 -48.0438
   -48.0303 -48.0302 -48.0302 -48.0301 -47.9962 -47.9961 -47.9959 -47.9957
   -47.9837 -47.9836 -47.9794 -47.9792  -4.6377  -4.3060  -4.0818  -3.7625
    -3.7413  -3.2684  -3.0885  -2.8217  -2.5201  -2.4111  -2.3341  -2.3080
    -2.0801  -2.0757  -1.9521  -1.8526  -1.7820  -1.7334  -1.5056  -1.5012
    -1.3169  -1.1803  -1.1468  -1.1049  -0.9672  -0.8583  -0.7991  -0.7032
    -0.6980  -0.4469  -0.2995  -0.2066   0.0279   0.1623   0.3088   0.3515
     0.4226   0.6686   0.7639   1.0386   1.1474   1.1794   1.3539   1.4226
     1.5025

          k = 0.2857-0.2434 0.0000 (178566 PWs)   bands (ev):

   -49.1520 -49.1520 -49.1520 -49.1520 -48.7168 -48.7167 -48.7167 -48.7167
   -48.6417 -48.6417 -48.6416 -48.6416 -48.1073 -48.1071 -48.1070 -48.1068
   -48.0782 -48.0779 -48.0734 -48.0732 -48.0589 -48.0550 -48.0476 -48.0438
   -48.0303 -48.0302 -48.0302 -48.0301 -47.9962 -47.9961 -47.9959 -47.9958
   -47.9837 -47.9836 -47.9794 -47.9793  -4.7492  -4.3004  -4.1924  -3.7358
    -3.4061  -3.2902  -2.8199  -2.8169  -2.5648  -2.5000  -2.2808  -2.2571
    -2.0132  -1.9751  -1.9300  -1.9220  -1.8119  -1.7342  -1.7280  -1.4151
    -1.3668  -1.3112  -1.1809  -1.1223  -1.0469  -0.8115  -0.7982  -0.7326
    -0.6692  -0.5201  -0.4337  -0.3416  -0.2562   0.0134   0.2486   0.2770
     0.4471   0.7060   0.7466   1.0334   1.1144   1.1759   1.1944   1.3535
     1.5575

          k = 0.4286-0.1429 0.0000 (178559 PWs)   bands (ev):

   -49.1520 -49.1520 -49.1520 -49.1520 -48.7168 -48.7167 -48.7167 -48.7167
   -48.6417 -48.6417 -48.6416 -48.6416 -48.1072 -48.1071 -48.1069 -48.1069
   -48.0781 -48.0780 -48.0733 -48.0733 -48.0579 -48.0566 -48.0461 -48.0448
   -48.0302 -48.0302 -48.0302 -48.0302 -47.9961 -47.9960 -47.9960 -47.9959
   -47.9837 -47.9836 -47.9793 -47.9793  -4.6740  -4.4854  -4.1152  -3.9243
    -3.2063  -3.0179  -3.0167  -2.9796  -2.4435  -2.4099  -2.2455  -2.1950
    -2.0802  -1.9742  -1.8132  -1.7117  -1.6636  -1.6323  -1.5564  -1.5240
    -1.4971  -1.2721  -1.2384  -1.1456  -1.1245  -0.9858  -0.8332  -0.7490
    -0.6861  -0.6131  -0.6052  -0.4923  -0.3560  -0.2127  -0.0356   0.0818
     0.5294   0.6713   0.8680   0.9493   1.0331   1.0694   1.3336   1.3958
     1.5319

          k = 0.4286 0.0053 0.0000 (178536 PWs)   bands (ev):

   -49.1520 -49.1520 -49.1520 -49.1520 -48.7168 -48.7167 -48.7167 -48.7167
   -48.6417 -48.6417 -48.6416 -48.6416 -48.1072 -48.1071 -48.1069 -48.1069
   -48.0781 -48.0779 -48.0734 -48.0732 -48.0580 -48.0565 -48.0461 -48.0448
   -48.0302 -48.0302 -48.0302 -48.0302 -47.9961 -47.9960 -47.9959 -47.9959
   -47.9837 -47.9836 -47.9793 -47.9793  -4.6981  -4.3925  -4.1393  -3.8323
    -3.3559  -3.2280  -2.9550  -2.7426  -2.6143  -2.5814  -2.3915  -2.1707
    -2.0635  -1.9615  -1.9581  -1.8215  -1.7572  -1.5148  -1.4732  -1.3416
    -1.3014  -1.2030  -1.1687  -1.0167  -0.9373  -0.9129  -0.8574  -0.8108
    -0.7871  -0.7239  -0.6386  -0.3108  -0.2236  -0.1253  -0.0974   0.1086
     0.5924   0.6492   0.7974   0.8358   0.9740   1.0710   1.4735   1.4986
     1.5008

          k = 0.4286 0.1534 0.0000 (178548 PWs)   bands (ev):

   -49.1520 -49.1520 -49.1520 -49.1520 -48.7168 -48.7167 -48.7167 -48.7167
   -48.6417 -48.6417 -48.6416 -48.6416 -48.1072 -48.1071 -48.1069 -48.1069
   -48.0781 -48.0779 -48.0735 -48.0733 -48.0579 -48.0564 -48.0461 -48.0448
   -48.0302 -48.0302 -48.0302 -48.0302 -47.9961 -47.9960 -47.9959 -47.9959
   -47.9837 -47.9836 -47.9793 -47.9793  -4.6702  -4.2477  -4.1115  -3.7065
    -3.6597  -3.2030  -3.1335  -3.0459  -2.7426  -2.4848  -2.4719  -2.2039
    -2.1821  -2.0559  -1.8824  -1.7248  -1.7164  -1.5577  -1.5156  -1.2182
    -1.1551  -1.1347  -1.0138  -0.9802  -0.9135  -0.8610  -0.7424  -0.6384
    -0.5789  -0.5548  -0.5042  -0.3887  -0.2154  -0.0257   0.0633   0.1085
     0.6223   0.6749   0.6905   0.9373   0.9621   1.0288   1.3923   1.4881
     1.5319

          k = 0.4286 0.3016 0.0000 (178543 PWs)   bands (ev):

   -49.1520 -49.1520 -49.1520 -49.1520 -48.7168 -48.7167 -48.7167 -48.7167
   -48.6417 -48.6417 -48.6416 -48.6416 -48.1072 -48.1070 -48.1070 -48.1069
   -48.0781 -48.0779 -48.0735 -48.0734 -48.0578 -48.0564 -48.0462 -48.0448
   -48.0302 -48.0302 -48.0302 -48.0302 -47.9962 -47.9960 -47.9960 -47.9959
   -47.9837 -47.9836 -47.9793 -47.9793  -4.5904  -4.0512  -4.0321  -3.9507
    -3.4936  -3.4338  -3.3899  -3.1386  -2.8381  -2.5751  -2.5241  -2.4437
    -2.1136  -1.9188  -1.9071  -1.8864  -1.6124  -1.5497  -1.2946  -1.2801
    -1.0678  -0.9504  -0.9312  -0.8720  -0.8404  -0.7593  -0.6842  -0.5575
    -0.4836  -0.4652  -0.3618  -0.2611  -0.0893   0.0256   0.0959   0.3191
     0.5231   0.6426   0.6864   0.8223   0.9911   1.1729   1.4144   1.4453
     1.5710

          k = 0.4286 0.4497 0.0000 (178470 PWs)   bands (ev):

   -49.1520 -49.1520 -49.1520 -49.1520 -48.7168 -48.7167 -48.7167 -48.7167
   -48.6417 -48.6417 -48.6416 -48.6416 -48.1072 -48.1071 -48.1070 -48.1069
   -48.0780 -48.0779 -48.0736 -48.0735 -48.0578 -48.0564 -48.0462 -48.0448
   -48.0302 -48.0302 -48.0302 -48.0302 -47.9962 -47.9960 -47.9960 -47.9959
   -47.9837 -47.9836 -47.9793 -47.9793  -4.4585  -4.1697  -3.9037  -3.8039
    -3.7668  -3.6074  -3.2482  -3.2343  -2.9472  -2.6748  -2.5082  -2.3158
    -2.2968  -2.0034  -1.9167  -1.9040  -1.6649  -1.3840  -1.2262  -1.2129
    -1.0135  -0.9443  -0.8730  -0.7992  -0.7511  -0.6142  -0.5959  -0.4983
    -0.4883  -0.3917  -0.3728  -0.3183   0.0582   0.1160   0.1907   0.3232
     0.5692   0.5783   0.6951   0.8863   0.9519   1.1705   1.4538   1.4588
     1.5501

          k = 0.4286-0.7354 0.0000 (178458 PWs)   bands (ev):

   -49.1520 -49.1520 -49.1520 -49.1520 -48.7168 -48.7167 -48.7167 -48.7167
   -48.6417 -48.6417 -48.6416 -48.6416 -48.1071 -48.1071 -48.1070 -48.1069
   -48.0780 -48.0779 -48.0737 -48.0734 -48.0577 -48.0565 -48.0461 -48.0448
   -48.0302 -48.0302 -48.0302 -48.0302 -47.9961 -47.9960 -47.9960 -47.9959
   -47.9837 -47.9836 -47.9793 -47.9792  -4.3368  -4.2746  -4.0575  -3.7776
    -3.7154  -3.4995  -3.4991  -2.9917  -2.7945  -2.7885  -2.5596  -2.4381
    -2.0563  -2.0513  -1.8431  -1.7939  -1.7706  -1.4423  -1.4103  -1.1962
    -1.1381  -1.0185  -0.8745  -0.7095  -0.7016  -0.6683  -0.5724  -0.5425
    -0.4643  -0.4225  -0.3718  -0.1018  -0.0146   0.1117   0.2044   0.4308
     0.5879   0.6244   0.7369   0.8587   0.9418   0.9611   1.3644   1.5190
     1.5399

          k = 0.4286-0.5873 0.0000 (178462 PWs)   bands (ev):

   -49.1520 -49.1520 -49.1520 -49.1520 -48.7168 -48.7167 -48.7167 -48.7167
   -48.6417 -48.6417 -48.6416 -48.6416 -48.1071 -48.1071 -48.1070 -48.1069
   -48.0780 -48.0779 -48.0737 -48.0733 -48.0577 -48.0566 -48.0461 -48.0448
   -48.0302 -48.0302 -48.0302 -48.0302 -47.9961 -47.9960 -47.9960 -47.9959
   -47.9837 -47.9836 -47.9793 -47.9792  -4.4519  -4.2894  -4.0391  -3.8910
    -3.7299  -3.4814  -3.1504  -2.9847  -2.8018  -2.5666  -2.5425  -2.3143
    -2.0543  -1.9443  -1.8017  -1.7516  -1.6630  -1.5681  -1.4991  -1.4379
    -1.4015  -1.0836  -1.0607  -0.8035  -0.7157  -0.6893  -0.6751  -0.5916
    -0.4631  -0.4279  -0.3760  -0.2365  -0.1134   0.0958   0.1988   0.4241
     0.5529   0.5867   0.8499   0.8629   0.9610   1.0184   1.3692   1.4157
     1.5834

          k = 0.4286-0.4392 0.0000 (178465 PWs)   bands (ev):

   -49.1520 -49.1520 -49.1520 -49.1520 -48.7168 -48.7167 -48.7167 -48.7167
   -48.6417 -48.6417 -48.6416 -48.6416 -48.1072 -48.1071 -48.1070 -48.1069
   -48.0780 -48.0780 -48.0736 -48.0732 -48.0578 -48.0566 -48.0461 -48.0448
   -48.0302 -48.0302 -48.0302 -48.0302 -47.9961 -47.9960 -47.9960 -47.9959
   -47.9837 -47.9836 -47.9793 -47.9793  -4.5151  -4.4696  -3.9538  -3.9140
    -3.7453  -3.2159  -3.0396  -2.9544  -2.7510  -2.2767  -2.1954  -2.1412
    -2.1112  -1.9978  -1.9525  -1.9241  -1.7920  -1.5686  -1.5366  -1.3784
    -1.3245  -1.2525  -1.1985  -1.0442  -0.8965  -0.8077  -0.6678  -0.6366
    -0.5540  -0.5194  -0.4940  -0.4012  -0.3728   0.0767   0.1034   0.3052
     0.5169   0.5713   0.8616   0.9575   1.1022   1.1834   1.2805   1.4575
     1.5461

          k = 0.4286-0.2910 0.0000 (178585 PWs)   bands (ev):

   -49.1520 -49.1520 -49.1520 -49.1520 -48.7168 -48.7167 -48.7167 -48.7167
   -48.6417 -48.6417 -48.6416 -48.6416 -48.1072 -48.1072 -48.1069 -48.1069
   -48.0781 -48.0780 -48.0734 -48.0732 -48.0579 -48.0566 -48.0461 -48.0448
   -48.0302 -48.0302 -48.0302 -48.0302 -47.9961 -47.9960 -47.9960 -47.9959
   -47.9837 -47.9836 -47.9793 -47.9793  -4.5978  -4.5262  -4.0395  -3.9648
    -3.4079  -3.1432  -3.0495  -2.8150  -2.5680  -2.3149  -2.1145  -2.0602
    -2.0144  -1.9570  -1.8984  -1.8898  -1.8764  -1.7276  -1.5842  -1.4911
    -1.3615  -1.2713  -1.1606  -1.0903  -0.9834  -0.9490  -0.8854  -0.8310
    -0.6671  -0.5524  -0.5251  -0.4939  -0.3655  -0.1099   0.0781   0.0851
     0.5144   0.6466   0.8490   0.9917   1.0982   1.1656   1.2867   1.4081
     1.5165

     the Fermi energy is    -1.5168 ev

!    total energy              =    -541.24984233 Ry
     total all-electron energy =      -541.250135 Ry
     estimated scf accuracy    <       0.00000048 Ry
     smearing contrib. (-TS)   =      -0.00180618 Ry
     internal energy E=F+TS    =    -541.24803616 Ry

     The total energy is F=E-TS. E is the sum of the following terms:
     one-electron contribution =   -2896.53078395 Ry
     hartree contribution      =    1394.23092870 Ry
     xc contribution           =    -128.90106427 Ry
     ewald contribution        =    1086.77832512 Ry
     one-center paw contrib.   =       3.17455824 Ry

     convergence has been achieved in  20 iterations

     Forces acting on atoms (cartesian axes, Ry/au):

     atom    1 type  1   force =    -0.00002036   -0.00026295   -0.00012206
     atom    2 type  1   force =     0.00006847   -0.00012905    0.00030337
     atom    3 type  1   force =     0.00006050   -0.00003365   -0.00011173
     atom    4 type  1   force =    -0.00005597   -0.00001334    0.00033591
     atom    5 type  1   force =    -0.00002829   -0.00006355   -0.00003815
     atom    6 type  1   force =     0.00002513   -0.00000255    0.00000672
     atom    7 type  1   force =     0.00001174    0.00003733   -0.00008714
     atom    8 type  1   force =     0.00001275   -0.00013760   -0.00019908
     atom    9 type  1   force =     0.00004247    0.00025540   -0.00019070
     atom   10 type  1   force =    -0.00001300    0.00013918    0.00019883
     atom   11 type  1   force =    -0.00001178   -0.00003889    0.00008867
     atom   12 type  1   force =    -0.00002580    0.00000236   -0.00000726
     atom   13 type  1   force =     0.00002995    0.00006443    0.00003796
     atom   14 type  1   force =     0.00005400    0.00001412   -0.00033554
     atom   15 type  1   force =    -0.00005919    0.00003463    0.00011350
     atom   16 type  1   force =    -0.00006683    0.00012949   -0.00030379
     atom   17 type  1   force =     0.00001991    0.00026193    0.00012179
     atom   18 type  1   force =    -0.00004252   -0.00025431    0.00018799
     atom   19 type  1   force =    -0.00002232   -0.00026280   -0.00012316
     atom   20 type  1   force =     0.00006596   -0.00013020    0.00030352
     atom   21 type  1   force =     0.00006150   -0.00003419   -0.00011539
     atom   22 type  1   force =    -0.00005473   -0.00001335    0.00033639
     atom   23 type  1   force =    -0.00002940   -0.00006450   -0.00003781
     atom   24 type  1   force =     0.00002522   -0.00000258    0.00000642
     atom   25 type  1   force =     0.00001315    0.00003858   -0.00008779
     atom   26 type  1   force =     0.00001278   -0.00013786   -0.00019879
     atom   27 type  1   force =     0.00004284    0.00025541   -0.00018907
     atom   28 type  1   force =    -0.00001253    0.00013652    0.00020002
     atom   29 type  1   force =    -0.00001189   -0.00003862    0.00008927
     atom   30 type  1   force =    -0.00002524    0.00000327   -0.00000688
     atom   31 type  1   force =     0.00002982    0.00006352    0.00003759
     atom   32 type  1   force =     0.00005521    0.00001316   -0.00033554
     atom   33 type  1   force =    -0.00006210    0.00003268    0.00011270
     atom   34 type  1   force =    -0.00006820    0.00013097   -0.00030374
     atom   35 type  1   force =     0.00002107    0.00026208    0.00012324
     atom   36 type  1   force =    -0.00004235   -0.00025508    0.00018974

     Total force =     0.001428     Total SCF correction =     0.000424
     SCF correction compared to forces is large: reduce conv_thr to get better values

     BFGS Geometry Optimization
     Energy error            =      2.0E-06 Ry
     Gradient error          =      3.4E-04 Ry/Bohr

     bfgs converged in   1 scf cycles and   0 bfgs steps
     (criteria: energy <  1.0E-05 Ry, force <  3.9E-04 Ry/Bohr)

     End of BFGS Geometry Optimization

     Final energy             =    -541.2498423338 Ry
Begin final coordinates

ATOMIC_POSITIONS (angstrom)
Li               0.0075186100       -0.5581392500       20.2939896300
Li               2.4210042200        4.0481375200       11.2087735300
Li               2.4226062600        0.9457621300       12.7407519900
Li               4.8551853900        4.8485755600       13.2285434600
Li               4.8565603000        1.5948339400       14.6601801200
Li               2.4288751700        5.8190066400       15.5922762300
Li               2.4307528200        2.2787606100       16.8108975200
Li               4.8634090400        6.4118352400       18.1966213100
Li               4.8643951400        3.4350668600       19.2904873300
Li               2.4236604900        6.5429491400       12.7197870400
Li               2.4272894200        3.3889587900       14.1055222700
Li               4.8581956400        7.1357864500       15.3241319400
Li               4.8595288000        4.0728892100       16.2562198600
Li               4.8609003400        0.8191360000       17.6878569500
Li               2.4354370600        4.7219613300       18.1756552200
Li               2.4370449000        1.6195713000       19.7076437700
Li               4.8505089100        6.2258642000       10.6224147300
Li               4.8516853700        2.2326261600       11.6259049200
Li               4.8656109500       -0.5581401600       20.2939863000
Li               7.2790276900        4.0481359800       11.2087673000
Li               7.2806523400        0.9457598000       12.7407442300
Li               9.7132340200        4.8485858800       13.2285479900
Li               9.7146021000        1.5948304400       14.6601862000
Li               7.2869193900        5.8189980400       15.5922790300
Li               7.2887921400        2.2787595600       16.8108815100
Li               9.7214492500        6.4118422500       18.1966088300
Li               9.7224542900        3.4350877000       19.2905001100
Li               7.2817026500        6.5429422200       12.7197923200
Li               7.2853431200        3.3889593900       14.1055096900
Li               9.7162342800        7.1357842200       15.3241245800
Li               9.7175760300        4.0728871100       16.2562231400
Li               9.7189463000        0.8191432800       17.6878624000
Li               7.2934817300        4.7219489700       18.1756588900
Li               7.2951003500        1.6195897700       19.7076275400
Li               9.7085380200        6.2258458400       10.6224157600
Li               9.7097315600        2.2326569600       11.6259220500
End final coordinates


     Message from routine punch:
     Nothing written, as per user request (disk_io='none')
 
     init_run     :      9.41s CPU      9.68s WALL (       1 calls)
     electrons    :    149.45s CPU    151.86s WALL (       1 calls)
     forces       :      0.80s CPU      0.82s WALL (       1 calls)

     Called by init_run:
     wfcinit      :      3.20s CPU      3.35s WALL (       1 calls)
     potinit      :      0.35s CPU      0.37s WALL (       1 calls)
     hinit0       :      0.01s CPU      0.04s WALL (       1 calls)

     Called by electrons:
     c_bands      :    126.62s CPU    128.02s WALL (      20 calls)
     sum_band     :     16.78s CPU     17.23s WALL (      20 calls)
     v_of_rho     :      1.76s CPU      1.90s WALL (      21 calls)
     newd         :      0.57s CPU      0.71s WALL (      21 calls)
     PAW_pot      :      0.57s CPU      0.59s WALL (      21 calls)
     mix_rho      :      2.78s CPU      2.88s WALL (      20 calls)

     Called by c_bands:
     init_us_2    :      2.44s CPU      2.45s WALL (     462 calls)
     cegterg      :    102.42s CPU    103.77s WALL (     220 calls)

     Called by *egterg:
     cdiaghg      :     13.01s CPU     13.06s WALL (    1916 calls)
     h_psi        :     61.94s CPU     63.17s WALL (    1927 calls)
     s_psi        :      6.79s CPU      6.82s WALL (    1927 calls)
     g_psi        :      0.05s CPU      0.05s WALL (    1696 calls)

     Called by h_psi:
     h_psi:calbec :     11.10s CPU     11.26s WALL (    1927 calls)
     vloc_psi     :     41.41s CPU     42.44s WALL (    1927 calls)
                                        0.00s GPU  (    1927 calls)
     add_vuspsi   :      8.98s CPU      9.02s WALL (    1927 calls)

     General routines
     calbec       :     14.33s CPU     14.56s WALL (    2191 calls)
     fft          :      1.20s CPU      1.22s WALL (     273 calls)
     ffts         :      2.07s CPU      2.10s WALL (    2146 calls)
     fftw         :     46.15s CPU     47.31s WALL (  111262 calls)
     interpolate  :      0.12s CPU      0.12s WALL (      21 calls)
 
     Parallel routines
 
     PWSCF        :   2m42.79s CPU   2m46.88s WALL

 
   This run was terminated on:   0:38:42  23Jan2025            

=------------------------------------------------------------------------------=
   JOB DONE.
=------------------------------------------------------------------------------=
