
     Program PWSCF v.7.4 starts on 23Jan2025 at  0:35:55 

     This program is part of the open-source Quantum ESPRESSO suite
     for quantum simulation of materials; please cite
         "P. Giannozzi et al., J. Phys.:Condens. Matter 21 395502 (2009);
         "P. Giannozzi et al., J. Phys.:Condens. Matter 29 465901 (2017);
         "P. Giannozzi et al., J. Chem. Phys. 152 154105 (2020);
          URL http://www.quantum-espresso.org", 
     in publications or presentations arising from this work. More details at
     http://www.quantum-espresso.org/quote

     Parallel version (MPI & OpenMP), running on     384 processor cores
     Number of MPI processes:               384
     Threads/MPI process:                     1

     MPI processes distributed on     2 nodes
     646274 MiB available memory on the printing compute node when the environment starts
 
     Reading input from espresso.pwi
Warning: card &CELL ignored
Warning: card    PRESS_CONV_THR   = 0.1 ignored
Warning: card    CELL_DOFREE      = 'ALL' ignored
Warning: card / ignored
Warning: card &FCP ignored
Warning: card / ignored
Warning: card &RISM ignored
Warning: card / ignored

     Current dimensions of program PWSCF are:
     Max number of different atomic species (ntypx) = 10
     Max number of k-points (npk) =  40000
     Max angular momentum in pseudopotentials (lmaxx) =  4

     IMPORTANT: XC functional enforced from input :
     Exchange-correlation= PBE
                           (   1   4   3   4   0   0   0)
     Any further DFT definition will be discarded
     Please, verify this is what you really want

     Found identity + ( -0.5000 -0.0000  0.0000) symmetry
     This is a supercell, fractional translations are disabled
 
     K-points division:     npool     =       3
     R & G space division:  proc/nbgrp/npool/nimage =     128
     Subspace diagonalization in iterative solution of the eigenvalue problem:
     a serial algorithm will be used

 
     Parallelization info
     --------------------
     sticks:   dense  smooth     PW     G-vecs:    dense   smooth      PW
     Min          66      26      7                24490     6182     889
     Max          67      27      8                24519     6221     910
     Sum        8497    3389    941              3135967   793171  115001
 
     Using Slab Decomposition
 


     bravais-lattice index     =            0
     lattice parameter (alat)  =      12.9830  a.u.
     unit-cell volume          =    8206.4828 (a.u.)^3
     number of atoms/cell      =           20
     number of atomic types    =            1
     number of electrons       =        60.00
     number of Kohn-Sham states=           45
     kinetic-energy cutoff     =      80.0000  Ry
     charge density cutoff     =     800.0000  Ry
     scf convergence threshold =      1.0E-06
     mixing beta               =       0.2000
     number of iterations used =            8  local-TF  mixing
     energy convergence thresh.=      1.0E-05
     force convergence thresh. =      3.9E-04
     Exchange-correlation= PBE
                           (   1   4   3   4   0   0   0)
     nstep                     =           50


     celldm(1)=  12.983009  celldm(2)=   0.000000  celldm(3)=   0.000000
     celldm(4)=   0.000000  celldm(5)=   0.000000  celldm(6)=   0.000000

     crystal axes: (cart. coord. in units of alat)
               a(1) = (   1.000000   0.000000   0.000000 )  
               a(2) = (  -0.250000   0.790569   0.000000 )  
               a(3) = (   0.000000   0.000000   4.743416 )  

     reciprocal axes: (cart. coord. in units 2 pi/alat)
               b(1) = (  1.000000  0.316228  0.000000 )  
               b(2) = (  0.000000  1.264912  0.000000 )  
               b(3) = (  0.000000  0.000000  0.210819 )  


     PseudoPot. # 1 for Li read from file:
     /iridisfs/home/ba3g18/Repos/Pseudopotentials/pslibrary.1.0.0/pbe/PSEUDOPOTENTIALS/Li.pbe-sl-kjpaw_psl.1.0.0.UPF
     MD5 check sum: 3f4d2cafebb47c6c3aa8ed472e6f074d
     Pseudo is Projector augmented-wave, Zval =  3.0
     Generated using 'atomic' code by A. Dal Corso  v.7.4
     Shape of augmentation charge: PSQ
     Using radial grid of 1017 points,  4 beta functions with: 
                l(1) =   0
                l(2) =   0
                l(3) =   1
                l(4) =   1
     Q(r) pseudized with 0 coefficients 


     atomic species   valence    mass     pseudopotential
     Li                3.00     6.94000     Li( 1.00)

     No symmetry found



   Cartesian axes

     site n.     atom                  positions (alat units)
         1        Li     tau(   1) = (   0.2500089   0.3270018   1.7953420  )
         2        Li     tau(   2) = (  -0.0000567   0.6287015   1.9959498  )
         3        Li     tau(   3) = (   0.0001008   0.1686393   2.1081878  )
         4        Li     tau(   4) = (   0.2499867   0.4650509   2.3117213  )
         5        Li     tau(   5) = (   0.2500134   0.0092908   2.4316951  )
         6        Li     tau(   6) = (  -0.0001008   0.3057026   2.6352285  )
         7        Li     tau(   7) = (   0.2500566   0.6362094   2.7474669  )
         8        Li     tau(   8) = (   0.2499909   0.1473398   2.9480742  )
         9        Li     tau(   9) = (   0.0002543   0.5056212   3.0702030  )
        10        Li     tau(  10) = (   0.4997456  -0.0312796   1.6732133  )
        11        Li     tau(  11) = (   0.7500090   0.3270018   1.7953421  )
        12        Li     tau(  12) = (   0.4999434   0.6287016   1.9959497  )
        13        Li     tau(  13) = (   0.5001008   0.1686393   2.1081877  )
        14        Li     tau(  14) = (   0.7499866   0.4650508   2.3117213  )
        15        Li     tau(  15) = (   0.7500134   0.0092909   2.4316951  )
        16        Li     tau(  16) = (   0.4998991   0.3057025   2.6352286  )
        17        Li     tau(  17) = (   0.7500566   0.6362093   2.7474669  )
        18        Li     tau(  18) = (   0.7499910   0.1473400   2.9480741  )
        19        Li     tau(  19) = (   0.5002543   0.5056212   3.0702031  )
        20        Li     tau(  20) = (   0.9997458  -0.0312797   1.6732132  )

     number of k points=    62  Marzari-Vanderbilt smearing, width (Ry)=  0.0100
                       cart. coord. in units 2pi/alat
        k(    1) = (   0.0000000   0.0000000   0.0000000), wk =   0.0166667
        k(    2) = (   0.0000000   0.1054093   0.0000000), wk =   0.0333333
        k(    3) = (   0.0000000   0.2108186   0.0000000), wk =   0.0333333
        k(    4) = (   0.0000000   0.3162279   0.0000000), wk =   0.0333333
        k(    5) = (   0.0000000   0.4216372   0.0000000), wk =   0.0333333
        k(    6) = (   0.0000000   0.5270466   0.0000000), wk =   0.0333333
        k(    7) = (   0.0000000  -0.6324559   0.0000000), wk =   0.0166667
        k(    8) = (   0.1000000   0.0316228   0.0000000), wk =   0.0333333
        k(    9) = (   0.1000000   0.1370321   0.0000000), wk =   0.0333333
        k(   10) = (   0.1000000   0.2424414   0.0000000), wk =   0.0333333
        k(   11) = (   0.1000000   0.3478507   0.0000000), wk =   0.0333333
        k(   12) = (   0.1000000   0.4532600   0.0000000), wk =   0.0333333
        k(   13) = (   0.1000000   0.5586693   0.0000000), wk =   0.0333333
        k(   14) = (   0.1000000  -0.6008331   0.0000000), wk =   0.0333333
        k(   15) = (   0.1000000  -0.4954238   0.0000000), wk =   0.0333333
        k(   16) = (   0.1000000  -0.3900144   0.0000000), wk =   0.0333333
        k(   17) = (   0.1000000  -0.2846051   0.0000000), wk =   0.0333333
        k(   18) = (   0.1000000  -0.1791958   0.0000000), wk =   0.0333333
        k(   19) = (   0.1000000  -0.0737865   0.0000000), wk =   0.0333333
        k(   20) = (   0.2000000   0.0632456   0.0000000), wk =   0.0333333
        k(   21) = (   0.2000000   0.1686549   0.0000000), wk =   0.0333333
        k(   22) = (   0.2000000   0.2740642   0.0000000), wk =   0.0333333
        k(   23) = (   0.2000000   0.3794735   0.0000000), wk =   0.0333333
        k(   24) = (   0.2000000   0.4848828   0.0000000), wk =   0.0333333
        k(   25) = (   0.2000000   0.5902921   0.0000000), wk =   0.0333333
        k(   26) = (   0.2000000  -0.5692103   0.0000000), wk =   0.0333333
        k(   27) = (   0.2000000  -0.4638010   0.0000000), wk =   0.0333333
        k(   28) = (   0.2000000  -0.3583917   0.0000000), wk =   0.0333333
        k(   29) = (   0.2000000  -0.2529823   0.0000000), wk =   0.0333333
        k(   30) = (   0.2000000  -0.1475730   0.0000000), wk =   0.0333333
        k(   31) = (   0.2000000  -0.0421637   0.0000000), wk =   0.0333333
        k(   32) = (   0.3000000   0.0948684   0.0000000), wk =   0.0333333
        k(   33) = (   0.3000000   0.2002777   0.0000000), wk =   0.0333333
        k(   34) = (   0.3000000   0.3056870   0.0000000), wk =   0.0333333
        k(   35) = (   0.3000000   0.4110963   0.0000000), wk =   0.0333333
        k(   36) = (   0.3000000   0.5165056   0.0000000), wk =   0.0333333
        k(   37) = (   0.3000000   0.6219149   0.0000000), wk =   0.0333333
        k(   38) = (   0.3000000  -0.5375875   0.0000000), wk =   0.0333333
        k(   39) = (   0.3000000  -0.4321782   0.0000000), wk =   0.0333333
        k(   40) = (   0.3000000  -0.3267689   0.0000000), wk =   0.0333333
        k(   41) = (   0.3000000  -0.2213596   0.0000000), wk =   0.0333333
        k(   42) = (   0.3000000  -0.1159502   0.0000000), wk =   0.0333333
        k(   43) = (   0.3000000  -0.0105409   0.0000000), wk =   0.0333333
        k(   44) = (   0.4000000   0.1264912   0.0000000), wk =   0.0333333
        k(   45) = (   0.4000000   0.2319005   0.0000000), wk =   0.0333333
        k(   46) = (   0.4000000   0.3373098   0.0000000), wk =   0.0333333
        k(   47) = (   0.4000000   0.4427191   0.0000000), wk =   0.0333333
        k(   48) = (   0.4000000   0.5481284   0.0000000), wk =   0.0333333
        k(   49) = (   0.4000000   0.6535377   0.0000000), wk =   0.0333333
        k(   50) = (   0.4000000  -0.5059647   0.0000000), wk =   0.0333333
        k(   51) = (   0.4000000  -0.4005554   0.0000000), wk =   0.0333333
        k(   52) = (   0.4000000  -0.2951461   0.0000000), wk =   0.0333333
        k(   53) = (   0.4000000  -0.1897368   0.0000000), wk =   0.0333333
        k(   54) = (   0.4000000  -0.0843274   0.0000000), wk =   0.0333333
        k(   55) = (   0.4000000   0.0210819   0.0000000), wk =   0.0333333
        k(   56) = (  -0.5000000  -0.1581140   0.0000000), wk =   0.0166667
        k(   57) = (  -0.5000000  -0.0527047   0.0000000), wk =   0.0333333
        k(   58) = (  -0.5000000   0.0527047   0.0000000), wk =   0.0333333
        k(   59) = (  -0.5000000   0.1581140   0.0000000), wk =   0.0333333
        k(   60) = (  -0.5000000   0.2635233   0.0000000), wk =   0.0333333
        k(   61) = (  -0.5000000   0.3689326   0.0000000), wk =   0.0333333
        k(   62) = (  -0.5000000  -0.7905698   0.0000000), wk =   0.0166667

     Dense  grid:  3135967 G-vectors     FFT dimensions: ( 120, 100, 576)

     Smooth grid:   793171 G-vectors     FFT dimensions: (  75,  64, 360)

     Estimated max dynamical RAM per process >      47.85 MB

     Estimated total dynamical RAM >      13.95 GB

     Initial potential from superposition of free atoms

     starting charge      59.9078, renormalised to      60.0000

     negative rho (up, down):  1.362E-03 0.000E+00
     Starting wfcs are  100 randomized atomic wfcs
     Checking if some PAW data can be deallocated... 

     total cpu time spent up to now is        7.3 secs

     Self-consistent Calculation

     iteration #  1     ecut=    80.00 Ry     beta= 0.20
     Davidson diagonalization with overlap
     ethr =  1.00E-02,  avg # of iterations =  3.5

     negative rho (up, down):  9.103E-05 0.000E+00

     total cpu time spent up to now is       12.3 secs

     total energy              =    -300.84523867 Ry
     estimated scf accuracy    <       2.31101062 Ry

     iteration #  2     ecut=    80.00 Ry     beta= 0.20
     Davidson diagonalization with overlap
     ethr =  3.85E-03,  avg # of iterations =  1.1

     total cpu time spent up to now is       15.5 secs

     total energy              =    -300.55301021 Ry
     estimated scf accuracy    <       1.74875410 Ry

     iteration #  3     ecut=    80.00 Ry     beta= 0.20
     Davidson diagonalization with overlap
     ethr =  2.91E-03,  avg # of iterations =  1.0

     total cpu time spent up to now is       18.3 secs

     total energy              =    -300.69461229 Ry
     estimated scf accuracy    <       0.20327801 Ry

     iteration #  4     ecut=    80.00 Ry     beta= 0.20
     Davidson diagonalization with overlap
     ethr =  3.39E-04,  avg # of iterations =  4.0

     total cpu time spent up to now is       21.8 secs

     total energy              =    -300.72590942 Ry
     estimated scf accuracy    <       0.55541850 Ry

     iteration #  5     ecut=    80.00 Ry     beta= 0.20
     Davidson diagonalization with overlap
     ethr =  3.39E-04,  avg # of iterations =  1.1

     total cpu time spent up to now is       24.5 secs

     total energy              =    -300.71459102 Ry
     estimated scf accuracy    <       0.21690582 Ry

     iteration #  6     ecut=    80.00 Ry     beta= 0.20
     Davidson diagonalization with overlap
     ethr =  3.39E-04,  avg # of iterations =  1.0

     total cpu time spent up to now is       27.3 secs

     total energy              =    -300.72130898 Ry
     estimated scf accuracy    <       0.03779220 Ry

     iteration #  7     ecut=    80.00 Ry     beta= 0.20
     Davidson diagonalization with overlap
     ethr =  6.30E-05,  avg # of iterations =  5.5

     total cpu time spent up to now is       31.1 secs

     total energy              =    -300.73856940 Ry
     estimated scf accuracy    <       0.15821545 Ry

     iteration #  8     ecut=    80.00 Ry     beta= 0.20
     Davidson diagonalization with overlap
     ethr =  6.30E-05,  avg # of iterations =  1.0

     negative rho (up, down):  4.785E-03 0.000E+00

     total cpu time spent up to now is       33.9 secs

     total energy              =    -300.72352888 Ry
     estimated scf accuracy    <       0.22866719 Ry

     iteration #  9     ecut=    80.00 Ry     beta= 0.20
     Davidson diagonalization with overlap
     ethr =  6.30E-05,  avg # of iterations =  3.7

     negative rho (up, down):  4.299E-02 0.000E+00

     total cpu time spent up to now is       37.2 secs

     total energy              =    -300.71955912 Ry
     estimated scf accuracy    <       0.11462756 Ry

     iteration # 10     ecut=    80.00 Ry     beta= 0.20
     Davidson diagonalization with overlap
     ethr =  6.30E-05,  avg # of iterations =  4.7

     negative rho (up, down):  4.196E-02 0.000E+00

     total cpu time spent up to now is       40.7 secs

     total energy              =    -300.71797686 Ry
     estimated scf accuracy    <       0.05252585 Ry

     iteration # 11     ecut=    80.00 Ry     beta= 0.20
     Davidson diagonalization with overlap
     c_bands:  1 eigenvalues not converged
     ethr =  6.30E-05,  avg # of iterations =  1.6

     negative rho (up, down):  5.580E-02 0.000E+00

     total cpu time spent up to now is       43.6 secs

     total energy              =    -300.71207960 Ry
     estimated scf accuracy    <       0.03970868 Ry

     iteration # 12     ecut=    80.00 Ry     beta= 0.20
     Davidson diagonalization with overlap
     c_bands:  1 eigenvalues not converged
     c_bands:  2 eigenvalues not converged
     c_bands:  1 eigenvalues not converged
     ethr =  6.30E-05,  avg # of iterations =  8.6

     negative rho (up, down):  3.590E-02 0.000E+00

     total cpu time spent up to now is       47.5 secs

     total energy              =    -300.71710490 Ry
     estimated scf accuracy    <       0.00535276 Ry

     iteration # 13     ecut=    80.00 Ry     beta= 0.20
     Davidson diagonalization with overlap
     c_bands:  1 eigenvalues not converged
     ethr =  8.92E-06,  avg # of iterations = 10.2

     negative rho (up, down):  1.594E-02 0.000E+00

     total cpu time spent up to now is       51.9 secs

     total energy              =    -300.71233768 Ry
     estimated scf accuracy    <       0.04638568 Ry

     iteration # 14     ecut=    80.00 Ry     beta= 0.20
     Davidson diagonalization with overlap
     c_bands:  1 eigenvalues not converged
     c_bands:  1 eigenvalues not converged
     c_bands:  1 eigenvalues not converged
     c_bands:  1 eigenvalues not converged
     ethr =  8.92E-06,  avg # of iterations = 10.0

     negative rho (up, down):  1.656E-02 0.000E+00

     total cpu time spent up to now is       56.4 secs

     total energy              =    -300.71302369 Ry
     estimated scf accuracy    <       0.00636604 Ry

     iteration # 15     ecut=    80.00 Ry     beta= 0.20
     Davidson diagonalization with overlap
     ethr =  8.92E-06,  avg # of iterations =  5.6

     negative rho (up, down):  2.608E-03 0.000E+00

     total cpu time spent up to now is       59.8 secs

     total energy              =    -300.71337538 Ry
     estimated scf accuracy    <       0.00092270 Ry

     iteration # 16     ecut=    80.00 Ry     beta= 0.20
     Davidson diagonalization with overlap
     ethr =  1.54E-06,  avg # of iterations =  9.5

     negative rho (up, down):  4.646E-04 0.000E+00

     total cpu time spent up to now is       64.3 secs

     total energy              =    -300.71336570 Ry
     estimated scf accuracy    <       0.00020614 Ry

     iteration # 17     ecut=    80.00 Ry     beta= 0.20
     Davidson diagonalization with overlap
     c_bands:  1 eigenvalues not converged
     ethr =  3.44E-07,  avg # of iterations =  7.7

     negative rho (up, down):  2.516E-04 0.000E+00

     total cpu time spent up to now is       68.5 secs

     total energy              =    -300.71341773 Ry
     estimated scf accuracy    <       0.00000375 Ry

     iteration # 18     ecut=    80.00 Ry     beta= 0.20
     Davidson diagonalization with overlap
     c_bands:  1 eigenvalues not converged
     ethr =  6.25E-09,  avg # of iterations =  6.5

     negative rho (up, down):  2.055E-04 0.000E+00

     total cpu time spent up to now is       73.3 secs

     total energy              =    -300.71342159 Ry
     estimated scf accuracy    <       0.00000202 Ry

     iteration # 19     ecut=    80.00 Ry     beta= 0.20
     Davidson diagonalization with overlap
     c_bands:  1 eigenvalues not converged
     ethr =  3.36E-09,  avg # of iterations =  5.2

     negative rho (up, down):  1.292E-04 0.000E+00

     total cpu time spent up to now is       76.8 secs

     End of self-consistent calculation

          k = 0.0000 0.0000 0.0000 ( 99285 PWs)   bands (ev):

   -48.9261 -48.9260 -48.9246 -48.9246 -48.4719 -48.4718 -48.4704 -48.4703
   -48.1428 -48.1411 -48.1396 -48.1393 -48.1030 -48.0987 -48.0971 -48.0950
   -48.0590 -48.0588 -48.0581 -48.0580  -4.9876  -4.4980  -3.6485  -2.5802
    -2.3636  -2.3519  -1.9488  -1.8891  -1.5170  -1.4223  -1.3339  -1.3154
    -1.1468  -1.0483  -0.8733  -0.6817  -0.5858  -0.5059  -0.1945  -0.0845
     0.0244   0.9923   1.0667   1.1532   1.2136

          k = 0.0000 0.1054 0.0000 ( 99254 PWs)   bands (ev):

   -48.9261 -48.9260 -48.9246 -48.9246 -48.4719 -48.4718 -48.4704 -48.4703
   -48.1428 -48.1411 -48.1396 -48.1393 -48.1030 -48.0987 -48.0971 -48.0950
   -48.0590 -48.0588 -48.0581 -48.0580  -4.9612  -4.4715  -3.6219  -2.5539
    -2.4791  -2.1935  -2.0362  -1.8100  -1.7548  -1.4982  -1.4335  -1.4297
    -1.2337  -0.9242  -0.8942  -0.7524  -0.5739  -0.3787  -0.3221   0.1542
     0.1574   1.0288   1.0837   1.1775   1.2565

          k = 0.0000 0.2108 0.0000 ( 99168 PWs)   bands (ev):

   -48.9261 -48.9260 -48.9246 -48.9246 -48.4719 -48.4718 -48.4704 -48.4703
   -48.1427 -48.1411 -48.1396 -48.1393 -48.1030 -48.0987 -48.0971 -48.0951
   -48.0590 -48.0588 -48.0581 -48.0580  -4.8818  -4.3921  -3.5422  -2.5526
    -2.4833  -2.3275  -2.1188  -1.9717  -1.8962  -1.5733  -1.4752  -1.4078
    -1.3976  -1.1494  -1.0274  -0.8484  -0.5286  -0.3340  -0.1822   0.3784
     0.4538   1.1308   1.1426   1.2649   1.3830

          k = 0.0000 0.3162 0.0000 ( 99184 PWs)   bands (ev):

   -48.9260 -48.9260 -48.9246 -48.9246 -48.4719 -48.4718 -48.4704 -48.4703
   -48.1425 -48.1410 -48.1396 -48.1393 -48.1030 -48.0987 -48.0971 -48.0953
   -48.0590 -48.0588 -48.0581 -48.0580  -4.7495  -4.2599  -3.4106  -2.8386
    -2.5772  -2.3718  -2.3245  -2.1389  -1.7367  -1.7359  -1.5477  -1.4479
    -1.2860  -1.2786  -1.2697  -0.8441  -0.6019  -0.3290  -0.1659   0.4486
     0.6691   1.1594   1.3451   1.3574   1.5756

          k = 0.0000 0.4216 0.0000 ( 99152 PWs)   bands (ev):

   -48.9260 -48.9260 -48.9246 -48.9246 -48.4719 -48.4718 -48.4704 -48.4703
   -48.1424 -48.1410 -48.1396 -48.1393 -48.1030 -48.0987 -48.0971 -48.0954
   -48.0591 -48.0588 -48.0581 -48.0580  -4.5640  -4.0754  -3.2864  -3.2326
    -2.7872  -2.5525  -2.1829  -2.1186  -1.9717  -1.9155  -1.5727  -1.4752
    -1.3973  -1.1468  -1.0271  -0.8494  -0.8152  -0.3346  -0.1445   0.3783
     0.5873   1.1311   1.2650   1.5715   1.8051

          k = 0.0000 0.5270 0.0000 ( 99241 PWs)   bands (ev):

   -48.9260 -48.9260 -48.9246 -48.9246 -48.4719 -48.4718 -48.4704 -48.4703
   -48.1422 -48.1410 -48.1396 -48.1393 -48.1030 -48.0987 -48.0971 -48.0956
   -48.0591 -48.0588 -48.0581 -48.0580  -4.3254  -3.8447  -3.6770  -3.2235
    -2.9507  -2.4790  -2.3594  -2.1933  -2.0361  -1.8863  -1.7544  -1.4288
    -1.2804  -1.2335  -0.8955  -0.7959  -0.7520  -0.3236  -0.2064   0.1568
     0.5150   1.0841   1.1774   1.5166   1.7475

          k = 0.0000-0.6325 0.0000 ( 99174 PWs)   bands (ev):

   -48.9260 -48.9260 -48.9246 -48.9246 -48.4719 -48.4718 -48.4704 -48.4703
   -48.1422 -48.1409 -48.1396 -48.1393 -48.1030 -48.0987 -48.0971 -48.0956
   -48.0591 -48.0589 -48.0581 -48.0580  -4.0350  -4.0339  -3.5533  -3.5362
    -2.7102  -2.6551  -2.3633  -2.3519  -1.9487  -1.8886  -1.7080  -1.4856
    -1.4211  -1.1468  -0.8750  -0.6827  -0.6808  -0.3072  -0.1968  -0.0848
     0.5295   1.0670   1.1531   1.3846   1.7342

          k = 0.1000 0.0316 0.0000 ( 99201 PWs)   bands (ev):

   -48.9260 -48.9260 -48.9246 -48.9246 -48.4718 -48.4717 -48.4704 -48.4703
   -48.1427 -48.1411 -48.1396 -48.1394 -48.1030 -48.0990 -48.0969 -48.0950
   -48.0590 -48.0588 -48.0581 -48.0580  -4.9614  -4.4718  -3.6220  -2.8548
    -2.5531  -2.3944  -1.8124  -1.6504  -1.4899  -1.4390  -1.4208  -1.2391
    -1.1706  -1.0002  -0.7877  -0.7030  -0.5581  -0.4703  -0.1689  -0.0651
     0.0617   1.0221   1.0720   1.0966   1.2487

          k = 0.1000 0.1370 0.0000 ( 99220 PWs)   bands (ev):

   -48.9260 -48.9260 -48.9246 -48.9246 -48.4719 -48.4717 -48.4704 -48.4703
   -48.1427 -48.1410 -48.1397 -48.1394 -48.1029 -48.0992 -48.0967 -48.0951
   -48.0590 -48.0588 -48.0581 -48.0580  -4.9192  -4.4294  -3.5794  -2.9656
    -2.5112  -2.5040  -1.9446  -1.7469  -1.6376  -1.5532  -1.4339  -1.2948
    -1.0690  -0.9266  -0.8006  -0.6125  -0.5276  -0.2819  -0.2177   0.1953
     0.2572   1.0452   1.0811   1.1536   1.3160

          k = 0.1000 0.2424 0.0000 ( 99166 PWs)   bands (ev):

   -48.9260 -48.9260 -48.9246 -48.9246 -48.4719 -48.4718 -48.4704 -48.4703
   -48.1425 -48.1410 -48.1397 -48.1394 -48.1029 -48.0993 -48.0966 -48.0952
   -48.0590 -48.0588 -48.0581 -48.0580  -4.8239  -4.3342  -3.4839  -3.0263
    -2.5641  -2.4910  -2.3903  -2.0118  -1.7943  -1.4451  -1.3551  -1.2246
    -1.1744  -1.1212  -0.8317  -0.7193  -0.5017  -0.1407  -0.1163   0.4569
     0.5726   1.0557   1.2183   1.2778   1.4661

          k = 0.1000 0.3479 0.0000 ( 99215 PWs)   bands (ev):

   -48.9260 -48.9260 -48.9246 -48.9246 -48.4719 -48.4718 -48.4704 -48.4703
   -48.1424 -48.1410 -48.1397 -48.1394 -48.1029 -48.0993 -48.0966 -48.0954
   -48.0590 -48.0588 -48.0581 -48.0580  -4.6757  -4.1861  -3.3374  -3.0365
    -2.9538  -2.5741  -2.4712  -2.2630  -1.8025  -1.6383  -1.3655  -1.2417
    -1.2011  -1.0552  -0.8927  -0.7254  -0.6331  -0.1339  -0.0888   0.5111
     0.6940   1.0627   1.3445   1.4423   1.4529

          k = 0.1000 0.4533 0.0000 ( 99146 PWs)   bands (ev):

   -48.9260 -48.9260 -48.9246 -48.9246 -48.4719 -48.4718 -48.4704 -48.4703
   -48.1422 -48.1409 -48.1397 -48.1394 -48.1029 -48.0992 -48.0966 -48.0955
   -48.0590 -48.0588 -48.0581 -48.0580  -4.4743  -3.9862  -3.3864  -3.1542
    -2.9959  -2.8741  -2.5339  -2.1506  -1.9493  -1.7696  -1.5634  -1.2282
    -1.1174  -1.0924  -0.8260  -0.7971  -0.6581  -0.1837  -0.1212   0.3137
     0.5776   1.0460   1.1928   1.5989   1.8374

          k = 0.1000 0.5587 0.0000 ( 99172 PWs)   bands (ev):

   -48.9260 -48.9260 -48.9246 -48.9246 -48.4719 -48.4718 -48.4704 -48.4703
   -48.1421 -48.1409 -48.1397 -48.1394 -48.1029 -48.0991 -48.0968 -48.0956
   -48.0591 -48.0588 -48.0581 -48.0580  -4.2198  -3.7936  -3.7085  -3.2954
    -2.9050  -2.8576  -2.4440  -2.4333  -1.7940  -1.7539  -1.6854  -1.3847
    -1.3332  -1.1027  -0.7992  -0.7222  -0.6304  -0.2206  -0.1969   0.0122
     0.5436   1.0563   1.1142   1.4762   1.6706

          k = 0.1000-0.6008 0.0000 ( 99193 PWs)   bands (ev):

   -48.9260 -48.9260 -48.9246 -48.9246 -48.4719 -48.4718 -48.4704 -48.4703
   -48.1421 -48.1409 -48.1396 -48.1394 -48.1029 -48.0988 -48.0970 -48.0956
   -48.0591 -48.0588 -48.0581 -48.0580  -4.1033  -3.9144  -3.6109  -3.4259
    -2.7644  -2.7509  -2.5606  -2.3053  -1.8929  -1.7108  -1.5860  -1.5043
    -1.4281  -1.3146  -0.8546  -0.7758  -0.6697  -0.2960  -0.2685   0.0215
     0.5525   1.0645   1.1243   1.4202   1.7116

          k = 0.1000-0.4954 0.0000 ( 99209 PWs)   bands (ev):

   -48.9260 -48.9260 -48.9246 -48.9246 -48.4719 -48.4718 -48.4704 -48.4703
   -48.1422 -48.1409 -48.1396 -48.1394 -48.1029 -48.0986 -48.0973 -48.0956
   -48.0591 -48.0588 -48.0581 -48.0580  -4.3788  -3.8928  -3.5440  -3.1295
    -2.9604  -2.5756  -2.2388  -2.1234  -1.9905  -1.9197  -1.6562  -1.5770
    -1.4125  -1.1790  -1.1551  -0.8108  -0.8091  -0.4871  -0.1463   0.1948
     0.5473   1.0040   1.2643   1.6115   1.7267

          k = 0.1000-0.3900 0.0000 ( 99180 PWs)   bands (ev):

   -48.9260 -48.9260 -48.9246 -48.9246 -48.4719 -48.4718 -48.4704 -48.4703
   -48.1423 -48.1410 -48.1396 -48.1394 -48.1029 -48.0982 -48.0977 -48.0954
   -48.0590 -48.0588 -48.0581 -48.0580  -4.6015  -4.1123  -3.2661  -3.1326
    -2.6415  -2.3416  -2.1996  -2.0598  -1.9585  -1.8679  -1.7897  -1.6467
    -1.4622  -1.2427  -1.1472  -0.9393  -0.7260  -0.5688  -0.1226   0.3021
     0.6539   0.9366   1.3821   1.5334   1.7703

          k = 0.1000-0.2846 0.0000 ( 99194 PWs)   bands (ev):

   -48.9260 -48.9260 -48.9246 -48.9246 -48.4719 -48.4718 -48.4704 -48.4703
   -48.1425 -48.1410 -48.1396 -48.1394 -48.1029 -48.0981 -48.0978 -48.0953
   -48.0590 -48.0588 -48.0581 -48.0580  -4.7710  -4.2813  -3.4312  -2.6728
    -2.3560  -2.2367  -2.1963  -2.0728  -2.0636  -1.7789  -1.6672  -1.5625
    -1.4093  -1.2760  -1.1824  -0.9970  -0.5787  -0.5298  -0.1400   0.3224
     0.6668   0.9208   1.3013   1.3972   1.5430

          k = 0.1000-0.1792 0.0000 ( 99207 PWs)   bands (ev):

   -48.9260 -48.9260 -48.9246 -48.9246 -48.4719 -48.4718 -48.4704 -48.4703
   -48.1426 -48.1410 -48.1396 -48.1394 -48.1029 -48.0984 -48.0975 -48.0951
   -48.0590 -48.0588 -48.0581 -48.0580  -4.8874  -4.3977  -3.5475  -2.4873
    -2.4814  -2.1541  -2.0579  -1.9985  -1.7639  -1.7314  -1.6158  -1.4071
    -1.3514  -1.2775  -1.0248  -0.8499  -0.5317  -0.5070  -0.1941   0.2471
     0.3787   0.9745   1.1263   1.3669   1.5039

          k = 0.1000-0.0738 0.0000 ( 99207 PWs)   bands (ev):

   -48.9260 -48.9260 -48.9246 -48.9246 -48.4718 -48.4717 -48.4704 -48.4703
   -48.1427 -48.1411 -48.1396 -48.1394 -48.1030 -48.0987 -48.0972 -48.0950
   -48.0590 -48.0588 -48.0581 -48.0580  -4.9509  -4.4612  -3.6113  -2.6947
    -2.5425  -2.2371  -1.9384  -1.6275  -1.5761  -1.5100  -1.4755  -1.4203
    -1.3077  -0.9707  -0.9196  -0.7776  -0.5560  -0.4172  -0.3827   0.0979
     0.1143   1.0363   1.0430   1.1721   1.2661

          k = 0.2000 0.0632 0.0000 ( 99189 PWs)   bands (ev):

   -48.9259 -48.9259 -48.9247 -48.9247 -48.4717 -48.4716 -48.4705 -48.4704
   -48.1425 -48.1409 -48.1399 -48.1395 -48.1028 -48.0996 -48.0964 -48.0950
   -48.0589 -48.0587 -48.0582 -48.0581  -4.8829  -4.3932  -3.5426  -3.3028
    -2.8278  -2.4721  -2.0179  -1.5003  -1.3981  -1.2903  -1.2407  -1.1966
    -1.1345  -0.8611  -0.7942  -0.6537  -0.4732  -0.3681  -0.0469  -0.0061
     0.1697   0.9129   1.0372   1.1086   1.3535

          k = 0.2000 0.1687 0.0000 ( 99218 PWs)   bands (ev):

   -48.9259 -48.9259 -48.9247 -48.9247 -48.4717 -48.4716 -48.4705 -48.4704
   -48.1424 -48.1409 -48.1399 -48.1395 -48.1028 -48.0998 -48.0962 -48.0951
   -48.0589 -48.0587 -48.0582 -48.0581  -4.8248  -4.3349  -3.4840  -3.4005
    -2.9256  -2.4155  -2.1117  -2.0304  -1.6102  -1.3342  -1.2310  -1.0341
    -0.9620  -0.9121  -0.6372  -0.4969  -0.4239  -0.1371  -0.0912   0.2772
     0.4134   0.8638   1.0769   1.1883   1.4442

          k = 0.2000 0.2741 0.0000 ( 99256 PWs)   bands (ev):

   -48.9259 -48.9259 -48.9247 -48.9247 -48.4717 -48.4716 -48.4705 -48.4704
   -48.1423 -48.1409 -48.1399 -48.1395 -48.1027 -48.1000 -48.0961 -48.0953
   -48.0589 -48.0587 -48.0582 -48.0580  -4.7137  -4.2238  -3.4468  -3.3728
    -2.9720  -2.5543  -2.2937  -2.1563  -2.0776  -1.2978  -1.2345  -1.2000
    -0.8922  -0.8330  -0.6054  -0.4502  -0.4318  -0.0604  -0.0137   0.4916
     0.7272   0.7337   1.2048   1.3488   1.3662

          k = 0.2000 0.3795 0.0000 ( 99182 PWs)   bands (ev):

   -48.9259 -48.9259 -48.9247 -48.9247 -48.4718 -48.4717 -48.4705 -48.4704
   -48.1421 -48.1408 -48.1399 -48.1395 -48.1027 -48.0999 -48.0961 -48.0955
   -48.0590 -48.0587 -48.0582 -48.0580  -4.5496  -4.0600  -3.4417  -3.2119
    -3.0179  -2.9668  -2.5272  -2.1513  -2.1412  -1.6757  -1.2333  -1.0762
    -0.9160  -0.8441  -0.6225  -0.6023  -0.4541  -0.0463  -0.0322   0.4599
     0.7484   0.7599   1.1793   1.3771   1.7391

          k = 0.2000 0.4849 0.0000 ( 99135 PWs)   bands (ev):

   -48.9259 -48.9259 -48.9247 -48.9247 -48.4718 -48.4717 -48.4705 -48.4704
   -48.1420 -48.1408 -48.1399 -48.1395 -48.1027 -48.0998 -48.0962 -48.0956
   -48.0590 -48.0588 -48.0582 -48.0581  -4.3323  -3.8451  -3.4346  -3.3850
    -3.0508  -2.9100  -2.8803  -2.1353  -2.0967  -1.8593  -1.2316  -1.0737
    -1.0634  -1.0089  -0.7454  -0.6569  -0.5250  -0.0892  -0.0582   0.2202
     0.6270   0.8825   1.0580   1.4796   1.7317

          k = 0.2000 0.5903 0.0000 ( 99207 PWs)   bands (ev):

   -48.9259 -48.9259 -48.9247 -48.9247 -48.4718 -48.4717 -48.4705 -48.4704
   -48.1420 -48.1408 -48.1399 -48.1395 -48.1026 -48.0996 -48.0965 -48.0957
   -48.0590 -48.0588 -48.0582 -48.0581  -4.0621  -3.8108  -3.5675  -3.3218
    -3.2771  -2.8020  -2.7052  -2.4557  -1.9930  -1.6520  -1.3461  -1.3298
    -1.2735  -1.1423  -0.8524  -0.6706  -0.5988  -0.1843  -0.1090   0.0066
     0.6253   0.9080   1.0465   1.4944   1.5550

          k = 0.2000-0.5692 0.0000 ( 99195 PWs)   bands (ev):

   -48.9259 -48.9259 -48.9247 -48.9247 -48.4718 -48.4717 -48.4705 -48.4704
   -48.1420 -48.1408 -48.1398 -48.1395 -48.1026 -48.0993 -48.0968 -48.0957
   -48.0590 -48.0588 -48.0582 -48.0581  -4.1203  -3.7478  -3.6190  -3.2564
    -3.1183  -2.7588  -2.6432  -2.3918  -1.8422  -1.7100  -1.6948  -1.3893
    -1.2806  -1.2377  -1.1148  -0.6914  -0.6267  -0.4645  -0.1587   0.0903
     0.6203   0.8399   1.1328   1.5233   1.6361

          k = 0.2000-0.4638 0.0000 ( 99148 PWs)   bands (ev):

   -48.9259 -48.9259 -48.9247 -48.9247 -48.4718 -48.4717 -48.4705 -48.4704
   -48.1420 -48.1408 -48.1398 -48.1395 -48.1027 -48.0989 -48.0972 -48.0956
   -48.0590 -48.0588 -48.0582 -48.0581  -4.3800  -3.8919  -3.3559  -3.0662
    -2.9095  -2.8341  -2.4360  -2.0891  -2.0736  -1.8759  -1.6794  -1.5612
    -1.4505  -1.1429  -1.0407  -0.8179  -0.7547  -0.6601  -0.0453   0.1211
     0.6430   0.7457   1.2569   1.6669   1.7347

          k = 0.2000-0.3584 0.0000 ( 99154 PWs)   bands (ev):

   -48.9259 -48.9259 -48.9247 -48.9247 -48.4718 -48.4717 -48.4705 -48.4704
   -48.1422 -48.1408 -48.1398 -48.1395 -48.1027 -48.0986 -48.0975 -48.0954
   -48.0590 -48.0587 -48.0582 -48.0581  -4.5866  -4.0969  -3.2476  -2.9285
    -2.6528  -2.4418  -2.4170  -2.1732  -2.1713  -1.9369  -1.5993  -1.5049
    -1.3781  -1.1696  -1.1158  -1.1042  -0.6305  -0.5735  -0.0525   0.1210
     0.6842   0.7705   1.4134   1.5459   1.5582

          k = 0.2000-0.2530 0.0000 ( 99201 PWs)   bands (ev):

   -48.9259 -48.9259 -48.9247 -48.9247 -48.4717 -48.4716 -48.4705 -48.4704
   -48.1423 -48.1409 -48.1398 -48.1395 -48.1027 -48.0986 -48.0974 -48.0952
   -48.0589 -48.0587 -48.0582 -48.0581  -4.7402  -4.2502  -3.3992  -2.7079
    -2.4611  -2.3574  -2.3132  -2.2217  -1.9849  -1.8754  -1.5034  -1.4246
    -1.2702  -1.1741  -1.1566  -1.0686  -0.6341  -0.4175  -0.0597   0.1220
     0.6753   0.6915   1.3073   1.3813   1.5763

          k = 0.2000-0.1476 0.0000 ( 99191 PWs)   bands (ev):

   -48.9259 -48.9259 -48.9247 -48.9247 -48.4717 -48.4716 -48.4705 -48.4704
   -48.1424 -48.1409 -48.1398 -48.1395 -48.1028 -48.0990 -48.0971 -48.0951
   -48.0589 -48.0587 -48.0582 -48.0581  -4.8406  -4.3508  -3.5000  -2.9553
    -2.4811  -2.4305  -2.0032  -1.9252  -1.7002  -1.5199  -1.5195  -1.4333
    -1.3479  -1.1407  -0.8618  -0.7510  -0.6646  -0.4349  -0.1848   0.1194
     0.3535   0.7636   1.1664   1.2285   1.4189

          k = 0.2000-0.0422 0.0000 ( 99163 PWs)   bands (ev):

   -48.9259 -48.9259 -48.9247 -48.9247 -48.4717 -48.4716 -48.4705 -48.4704
   -48.1425 -48.1409 -48.1398 -48.1395 -48.1028 -48.0993 -48.0967 -48.0950
   -48.0589 -48.0587 -48.0582 -48.0581  -4.8882  -4.3985  -3.5479  -3.1541
    -2.6790  -2.4773  -1.8762  -1.6354  -1.4152  -1.3848  -1.3678  -1.1916
    -1.1577  -1.0903  -0.9087  -0.6907  -0.4748  -0.3948  -0.3923   0.0789
     0.1444   0.8572   1.1018   1.1122   1.3448

          k = 0.3000 0.0949 0.0000 ( 99144 PWs)   bands (ev):

   -48.9258 -48.9257 -48.9249 -48.9249 -48.4716 -48.4715 -48.4707 -48.4706
   -48.1421 -48.1407 -48.1402 -48.1397 -48.1025 -48.1003 -48.0960 -48.0951
   -48.0588 -48.0586 -48.0583 -48.0581  -4.7519  -4.2621  -3.6988  -3.4106
    -3.2162  -2.3804  -2.3383  -1.5377  -1.4023  -1.3284  -1.2632  -1.1593
    -0.8903  -0.6799  -0.6377  -0.3899  -0.3263  -0.2072  -0.0772   0.1346
     0.3338   0.8655   0.9015   1.2376   1.3373

          k = 0.3000 0.2003 0.0000 ( 99232 PWs)   bands (ev):

   -48.9258 -48.9257 -48.9249 -48.9249 -48.4716 -48.4715 -48.4707 -48.4706
   -48.1420 -48.1407 -48.1402 -48.1397 -48.1025 -48.1005 -48.0958 -48.0952
   -48.0588 -48.0586 -48.0583 -48.0581  -4.6780  -4.1880  -3.7820  -3.3360
    -3.2998  -2.4634  -2.2700  -2.0661  -1.6278  -1.4467  -1.1764  -0.9239
    -0.8696  -0.5689  -0.4705  -0.4179  -0.2683   0.0276   0.0419   0.2851
     0.6073   0.6345   1.1104   1.2476   1.3247

          k = 0.3000 0.3057 0.0000 ( 99204 PWs)   bands (ev):

   -48.9258 -48.9257 -48.9249 -48.9249 -48.4716 -48.4715 -48.4707 -48.4706
   -48.1419 -48.1407 -48.1403 -48.1397 -48.1024 -48.1006 -48.0957 -48.0954
   -48.0589 -48.0586 -48.0583 -48.0581  -4.5510  -4.0610  -3.8133  -3.3312
    -3.2092  -2.5799  -2.4946  -2.1392  -2.0879  -1.4730  -1.2739  -1.0398
    -0.5952  -0.5327  -0.5001  -0.3272  -0.2315  -0.0631   0.0640   0.4130
     0.4581   0.9092   1.1431   1.3261   1.4883

          k = 0.3000 0.4111 0.0000 ( 99213 PWs)   bands (ev):

   -48.9257 -48.9257 -48.9249 -48.9249 -48.4716 -48.4715 -48.4707 -48.4706
   -48.1418 -48.1406 -48.1402 -48.1397 -48.1023 -48.1005 -48.0958 -48.0956
   -48.0589 -48.0587 -48.0583 -48.0581  -4.3711  -3.8815  -3.7924  -3.3103
    -3.0396  -3.0265  -2.5315  -2.4738  -1.9735  -1.6560  -1.4552  -0.9013
    -0.8448  -0.5676  -0.5441  -0.4437  -0.3983   0.0113   0.0886   0.3241
     0.5858   0.8313   1.1298   1.2589   1.7309

          k = 0.3000 0.5165 0.0000 ( 99164 PWs)   bands (ev):

   -48.9257 -48.9257 -48.9249 -48.9249 -48.4716 -48.4715 -48.4707 -48.4706
   -48.1417 -48.1406 -48.1402 -48.1397 -48.1022 -48.1004 -48.0959 -48.0958
   -48.0589 -48.0587 -48.0583 -48.0581  -4.1380  -3.7196  -3.6537  -3.4293
    -3.2370  -2.9788  -2.7509  -2.4010  -2.1045  -1.6810  -1.3999  -1.2596
    -1.0114  -0.8090  -0.6134  -0.5822  -0.3936  -0.0194   0.0360   0.1400
     0.7263   0.8372   0.9347   1.3095   1.8492

          k = 0.3000 0.6219 0.0000 ( 99188 PWs)   bands (ev):

   -48.9257 -48.9257 -48.9249 -48.9249 -48.4716 -48.4715 -48.4707 -48.4706
   -48.1417 -48.1406 -48.1402 -48.1397 -48.1022 -48.1001 -48.0962 -48.0958
   -48.0589 -48.0587 -48.0583 -48.0582  -3.8526  -3.7896  -3.5947  -3.3617
    -3.2972  -3.1118  -2.5051  -2.4199  -2.2770  -1.7133  -1.4794  -1.2850
    -1.2540  -1.2202  -0.7243  -0.4382  -0.4341  -0.3306  -0.0925   0.1339
     0.6675   0.7404   1.0621   1.4319   1.5592

          k = 0.3000-0.5376 0.0000 ( 99124 PWs)   bands (ev):

   -48.9257 -48.9257 -48.9249 -48.9249 -48.4716 -48.4715 -48.4707 -48.4706
   -48.1417 -48.1406 -48.1401 -48.1397 -48.1022 -48.0998 -48.0966 -48.0958
   -48.0589 -48.0587 -48.0583 -48.0582  -4.0851  -3.6088  -3.4958  -3.4182
    -3.0389  -2.9351  -2.7116  -2.1704  -2.1313  -2.1045  -1.6375  -1.6299
    -1.1443  -1.0678  -0.8254  -0.7727  -0.5476  -0.4064   0.0075   0.1003
     0.4933   0.7250   1.2125   1.4608   1.6703

          k = 0.3000-0.4322 0.0000 ( 99113 PWs)   bands (ev):

   -48.9257 -48.9257 -48.9249 -48.9249 -48.4716 -48.4715 -48.4707 -48.4706
   -48.1418 -48.1406 -48.1401 -48.1396 -48.1023 -48.0995 -48.0969 -48.0956
   -48.0589 -48.0587 -48.0584 -48.0582  -4.3287  -3.8394  -3.1906  -3.1159
    -2.9967  -2.7117  -2.6099  -2.5061  -2.0499  -1.9525  -1.8368  -1.7145
    -1.1950  -0.9569  -0.8866  -0.8437  -0.6088  -0.5079   0.0003   0.0902
     0.4780   0.7987   1.2727   1.4195   1.8160

          k = 0.3000-0.3268 0.0000 ( 99132 PWs)   bands (ev):

   -48.9258 -48.9257 -48.9249 -48.9249 -48.4716 -48.4715 -48.4707 -48.4706
   -48.1419 -48.1407 -48.1401 -48.1396 -48.1024 -48.0994 -48.0970 -48.0954
   -48.0589 -48.0586 -48.0584 -48.0582  -4.5193  -4.0292  -3.1778  -2.9135
    -2.8523  -2.6737  -2.4267  -2.3613  -2.1921  -2.0957  -1.5969  -1.5001
    -1.3529  -1.0127  -0.9214  -0.7449  -0.6491  -0.3664  -0.0536   0.0656
     0.5026   0.9226   1.2780   1.3867   1.5459

          k = 0.3000-0.2214 0.0000 ( 99122 PWs)   bands (ev):

   -48.9258 -48.9257 -48.9249 -48.9249 -48.4716 -48.4715 -48.4707 -48.4706
   -48.1420 -48.1407 -48.1401 -48.1396 -48.1024 -48.0995 -48.0969 -48.0952
   -48.0588 -48.0586 -48.0584 -48.0582  -4.6568  -4.1668  -3.3148  -3.1391
    -2.6690  -2.5682  -2.2611  -2.1572  -2.1098  -1.7967  -1.7224  -1.2592
    -1.1579  -0.9408  -0.9400  -0.8362  -0.5348  -0.2652  -0.0169   0.0619
     0.4845   0.6782   1.2755   1.3481   1.4094

          k = 0.3000-0.1160 0.0000 ( 99114 PWs)   bands (ev):

   -48.9258 -48.9257 -48.9249 -48.9249 -48.4716 -48.4715 -48.4707 -48.4706
   -48.1421 -48.1407 -48.1401 -48.1397 -48.1025 -48.0997 -48.0966 -48.0951
   -48.0588 -48.0586 -48.0583 -48.0582  -4.7414  -4.2515  -3.3999  -3.3768
    -2.8938  -2.3278  -2.2094  -2.0680  -1.7050  -1.6458  -1.2811  -1.2144
    -1.1183  -0.8726  -0.8102  -0.6779  -0.4203  -0.3132  -0.1572   0.0838
     0.3780   0.4796   1.2312   1.2500   1.5388

          k = 0.3000-0.0105 0.0000 ( 99136 PWs)   bands (ev):

   -48.9258 -48.9257 -48.9249 -48.9249 -48.4716 -48.4715 -48.4707 -48.4706
   -48.1421 -48.1407 -48.1402 -48.1397 -48.1025 -48.1001 -48.0963 -48.0950
   -48.0588 -48.0586 -48.0583 -48.0582  -4.7730  -4.2833  -3.5636  -3.4319
    -3.0806  -2.3594  -2.2464  -1.7989  -1.3125  -1.2786  -1.2520  -1.1208
    -1.0424  -0.8421  -0.7448  -0.4899  -0.3564  -0.3552  -0.2993   0.1347
     0.2421   0.6212   1.0984   1.2143   1.6227

          k = 0.4000 0.1265 0.0000 ( 99137 PWs)   bands (ev):

   -48.9256 -48.9255 -48.9251 -48.9251 -48.4714 -48.4713 -48.4709 -48.4708
   -48.1417 -48.1407 -48.1405 -48.1399 -48.1021 -48.1010 -48.0956 -48.0952
   -48.0587 -48.0585 -48.0584 -48.0582  -4.5682  -4.0787  -4.0418  -3.5552
    -3.2266  -2.7083  -2.1541  -1.6595  -1.5391  -1.4375  -1.1435  -1.0399
    -0.9829  -0.5793  -0.4968  -0.1787  -0.1167  -0.0075   0.0001   0.3044
     0.5135   0.6964   0.8390   1.3320   1.4904

          k = 0.4000 0.2319 0.0000 ( 99183 PWs)   bands (ev):

   -48.9256 -48.9255 -48.9251 -48.9251 -48.4714 -48.4713 -48.4709 -48.4708
   -48.1416 -48.1407 -48.1405 -48.1400 -48.1020 -48.1011 -48.0955 -48.0954
   -48.0587 -48.0585 -48.0584 -48.0582  -4.4785  -4.1099  -3.9887  -3.6236
    -3.1362  -2.7771  -2.1074  -2.0227  -1.7209  -1.6039  -0.9696  -0.9360
    -0.7937  -0.6558  -0.5059  -0.1852  -0.0679  -0.0055   0.2374   0.2827
     0.4840   0.7851   1.0817   1.3198   1.4648

          k = 0.4000 0.3373 0.0000 ( 99181 PWs)   bands (ev):

   -48.9255 -48.9255 -48.9251 -48.9251 -48.4714 -48.4713 -48.4709 -48.4708
   -48.1415 -48.1407 -48.1404 -48.1400 -48.1019 -48.1012 -48.0956 -48.0954
   -48.0587 -48.0585 -48.0584 -48.0582  -4.3359  -4.1256  -3.8459  -3.6394
    -2.9941  -2.7930  -2.5580  -2.0696  -1.9146  -1.7360  -1.2170  -0.8177
    -0.6668  -0.6249  -0.4385  -0.2924  -0.1988  -0.0969   0.2251   0.3360
     0.4324   1.1050   1.1458   1.2463   1.4337

          k = 0.4000 0.4427 0.0000 ( 99159 PWs)   bands (ev):

   -48.9255 -48.9255 -48.9251 -48.9251 -48.4714 -48.4713 -48.4709 -48.4708
   -48.1414 -48.1407 -48.1404 -48.1400 -48.1017 -48.1011 -48.0958 -48.0955
   -48.0588 -48.0585 -48.0584 -48.0582  -4.1403  -4.0889  -3.6511  -3.6026
    -2.9937  -2.8107  -2.7559  -2.4816  -1.7807  -1.7010  -1.5642  -1.1393
    -0.7229  -0.6945  -0.5977  -0.4611  -0.0724  -0.0176   0.2491   0.2546
     0.5574   0.8886   1.0049   1.4139   1.4673

          k = 0.4000 0.5481 0.0000 ( 99130 PWs)   bands (ev):

   -48.9255 -48.9255 -48.9251 -48.9251 -48.4714 -48.4713 -48.4709 -48.4708
   -48.1413 -48.1406 -48.1404 -48.1399 -48.1016 -48.1009 -48.0960 -48.0957
   -48.0588 -48.0586 -48.0584 -48.0583  -3.9998  -3.8919  -3.5130  -3.4302
    -3.3525  -2.9049  -2.6661  -2.5208  -2.0340  -1.6694  -1.5837  -1.4449
    -1.1662  -0.9201  -0.5530  -0.3574  -0.3281  -0.0054   0.1439   0.3449
     0.6577   0.7978   0.8404   1.4805   1.5290

          k = 0.4000 0.6535 0.0000 ( 99182 PWs)   bands (ev):

   -48.9255 -48.9255 -48.9251 -48.9251 -48.4714 -48.4713 -48.4709 -48.4708
   -48.1413 -48.1406 -48.1404 -48.1399 -48.1016 -48.1007 -48.0960 -48.0960
   -48.0588 -48.0586 -48.0585 -48.0583  -3.8583  -3.7179  -3.5923  -3.3711
    -3.2247  -3.0999  -2.5249  -2.3621  -2.2245  -2.1120  -1.6184  -1.4712
    -1.3177  -1.0719  -0.7587  -0.4433  -0.2608  -0.0369   0.0528   0.2677
     0.3956   0.8023   1.0662   1.5208   1.5240

          k = 0.4000-0.5060 0.0000 ( 99095 PWs)   bands (ev):

   -48.9255 -48.9255 -48.9251 -48.9251 -48.4714 -48.4713 -48.4709 -48.4708
   -48.1413 -48.1405 -48.1404 -48.1399 -48.1017 -48.1004 -48.0963 -48.0959
   -48.0588 -48.0586 -48.0585 -48.0583  -3.9976  -3.6645  -3.5114  -3.2285
    -3.1775  -2.7873  -2.5968  -2.5359  -2.3420  -2.0229  -1.9025  -1.5317
    -1.3301  -1.1202  -0.8019  -0.4319  -0.3706  -0.1203  -0.0253   0.2058
     0.3776   0.8101   1.2234   1.3625   1.4573

          k = 0.4000-0.4006 0.0000 ( 99074 PWs)   bands (ev):

   -48.9255 -48.9255 -48.9251 -48.9251 -48.4714 -48.4713 -48.4709 -48.4708
   -48.1414 -48.1405 -48.1404 -48.1399 -48.1018 -48.1002 -48.0965 -48.0957
   -48.0588 -48.0585 -48.0585 -48.0583  -4.2249  -3.7351  -3.4188  -2.9606
    -2.8871  -2.8849  -2.8247  -2.4373  -2.3253  -2.0569  -1.8200  -1.5689
    -1.4489  -1.0226  -0.7273  -0.5297  -0.3699  -0.2474   0.0158   0.2450
     0.3207   0.9780   1.1859   1.3643   1.3888

          k = 0.4000-0.2951 0.0000 ( 99045 PWs)   bands (ev):

   -48.9256 -48.9255 -48.9251 -48.9251 -48.4714 -48.4713 -48.4709 -48.4708
   -48.1415 -48.1405 -48.1404 -48.1399 -48.1019 -48.1002 -48.0966 -48.0955
   -48.0587 -48.0585 -48.0585 -48.0583  -4.3993  -3.9093  -3.2471  -3.1231
    -3.0569  -2.7548  -2.6305  -2.3711  -1.9803  -1.8999  -1.8820  -1.7575
    -1.0573  -0.8955  -0.8725  -0.6784  -0.2506  -0.1133   0.0497   0.2250
     0.2916   1.0252   1.1523   1.2640   1.4233

          k = 0.4000-0.1897 0.0000 ( 99071 PWs)   bands (ev):

   -48.9256 -48.9255 -48.9251 -48.9251 -48.4714 -48.4713 -48.4709 -48.4708
   -48.1416 -48.1405 -48.1405 -48.1399 -48.1021 -48.1003 -48.0965 -48.0953
   -48.0587 -48.0585 -48.0585 -48.0583  -4.5207  -4.0310  -3.5233  -3.1787
    -3.0390  -2.7656  -2.3196  -2.1346  -2.1101  -1.8556  -1.4377  -1.4136
    -1.1070  -1.0059  -0.6497  -0.4257  -0.2331  -0.0767  -0.0100   0.1870
     0.3467   0.6532   1.2223   1.3261   1.3533

          k = 0.4000-0.0843 0.0000 ( 99141 PWs)   bands (ev):

   -48.9256 -48.9255 -48.9251 -48.9251 -48.4714 -48.4713 -48.4709 -48.4708
   -48.1417 -48.1405 -48.1405 -48.1399 -48.1021 -48.1005 -48.0962 -48.0951
   -48.0587 -48.0585 -48.0585 -48.0583  -4.5893  -4.0999  -3.7483  -3.2610
    -3.2480  -2.4186  -2.3710  -2.1749  -1.8692  -1.3777  -1.3213  -1.0887
    -0.9939  -0.9429  -0.5121  -0.3918  -0.1631  -0.0874  -0.0585   0.0491
     0.3915   0.4377   1.1696   1.3363   1.4232

          k = 0.4000 0.0211 0.0000 ( 99096 PWs)   bands (ev):

   -48.9256 -48.9255 -48.9251 -48.9251 -48.4714 -48.4713 -48.4709 -48.4708
   -48.1417 -48.1406 -48.1405 -48.1399 -48.1022 -48.1008 -48.0959 -48.0951
   -48.0587 -48.0585 -48.0584 -48.0583  -4.6051  -4.1158  -3.9212  -3.4341
    -3.2640  -2.5874  -2.1907  -1.9312  -1.5341  -1.4371  -1.0999  -0.9966
    -0.8233  -0.6878  -0.6026  -0.4728  -0.2256  -0.1158  -0.0218   0.3796
     0.3810   0.4331   0.9829   1.3376   1.5605

          k =-0.5000-0.1581 0.0000 ( 99124 PWs)   bands (ev):

   -48.9254 -48.9253 -48.9253 -48.9253 -48.4711 -48.4711 -48.4710 -48.4710
   -48.1412 -48.1412 -48.1402 -48.1402 -48.1016 -48.1016 -48.0954 -48.0953
   -48.0586 -48.0586 -48.0584 -48.0584  -4.3316  -4.3316  -3.8429  -3.8429
    -2.9918  -2.9918  -1.9243  -1.9243  -1.5048  -1.5048  -1.0695  -1.0695
    -0.8132  -0.8131  -0.3266  -0.3266   0.1287   0.1288   0.1921   0.1921
     0.6012   0.6012   1.1100   1.1102   1.5922

          k =-0.5000-0.0527 0.0000 ( 99169 PWs)   bands (ev):

   -48.9254 -48.9253 -48.9253 -48.9253 -48.4711 -48.4711 -48.4710 -48.4710
   -48.1412 -48.1411 -48.1402 -48.1402 -48.1017 -48.1014 -48.0956 -48.0952
   -48.0586 -48.0585 -48.0584 -48.0584  -4.3842  -4.2263  -3.8958  -3.7372
    -3.0451  -2.8858  -2.0275  -1.9752  -1.8073  -1.5398  -0.9655  -0.8811
    -0.7483  -0.6671  -0.6174  -0.4218  -0.0864   0.1113   0.1556   0.3873
     0.4846   0.6494   1.0849   1.3238   1.5450

          k =-0.5000 0.0527 0.0000 ( 99154 PWs)   bands (ev):

   -48.9254 -48.9253 -48.9253 -48.9253 -48.4711 -48.4711 -48.4710 -48.4710
   -48.1412 -48.1410 -48.1402 -48.1402 -48.1017 -48.1012 -48.0958 -48.0952
   -48.0586 -48.0585 -48.0584 -48.0584  -4.3842  -4.0682  -3.8958  -3.5790
    -3.0451  -2.7292  -2.4883  -1.9914  -1.9752  -1.6603  -1.1212  -0.9655
    -0.8811  -0.6172  -0.5624  -0.4217  -0.0866  -0.0608   0.1112   0.3431
     0.4845   0.6520   1.2745   1.3245   1.3601

          k =-0.5000 0.1581 0.0000 ( 99076 PWs)   bands (ev):

   -48.9253 -48.9253 -48.9253 -48.9253 -48.4711 -48.4711 -48.4710 -48.4710
   -48.1412 -48.1409 -48.1402 -48.1401 -48.1016 -48.1011 -48.0961 -48.0954
   -48.0586 -48.0586 -48.0584 -48.0584  -4.3316  -3.8575  -3.8429  -3.3696
    -2.9918  -2.9052  -2.5539  -2.3660  -1.9242  -1.6041  -1.5047  -1.3698
    -1.0692  -0.8131  -0.5070  -0.3266  -0.2866   0.1285   0.1922   0.3612
     0.5133   0.6010   1.1097   1.2579   1.3867

          k =-0.5000 0.2635 0.0000 ( 99076 PWs)   bands (ev):

   -48.9253 -48.9253 -48.9253 -48.9253 -48.4712 -48.4711 -48.4710 -48.4710
   -48.1411 -48.1409 -48.1402 -48.1401 -48.1014 -48.1009 -48.0962 -48.0956
   -48.0586 -48.0586 -48.0584 -48.0584  -4.2262  -3.7372  -3.5945  -3.2842
    -3.0961  -2.8857  -2.7913  -2.2317  -2.0275  -1.9188  -1.8072  -1.5396
    -1.1697  -0.8001  -0.7483  -0.6670  -0.1055   0.1555   0.2087   0.3872
     0.4575   0.6490   1.0843   1.2969   1.3748

          k =-0.5000 0.3689 0.0000 ( 99061 PWs)   bands (ev):

   -48.9253 -48.9253 -48.9253 -48.9253 -48.4712 -48.4711 -48.4710 -48.4710
   -48.1410 -48.1409 -48.1402 -48.1401 -48.1012 -48.1009 -48.0963 -48.0958
   -48.0586 -48.0586 -48.0584 -48.0584  -4.0682  -3.5944  -3.5790  -3.2842
    -3.0961  -2.7913  -2.7291  -2.4883  -2.2316  -1.9913  -1.9189  -1.6601
    -1.1695  -1.1212  -0.8002  -0.5622  -0.1052  -0.0609   0.2083   0.3428
     0.4573   0.6514   1.2743   1.2980   1.3605

          k =-0.5000-0.7906 0.0000 ( 99028 PWs)   bands (ev):

   -48.9253 -48.9253 -48.9253 -48.9253 -48.4712 -48.4711 -48.4710 -48.4710
   -48.1409 -48.1409 -48.1401 -48.1401 -48.1011 -48.1010 -48.0961 -48.0961
   -48.0586 -48.0586 -48.0584 -48.0584  -3.8575  -3.8575  -3.3696  -3.3696
    -2.9052  -2.9052  -2.5538  -2.5538  -2.3659  -2.3659  -1.6041  -1.6041
    -1.3697  -1.3697  -0.5070  -0.5070  -0.2864  -0.2864   0.3610   0.3610
     0.5125   0.5125   1.2582   1.2582   1.3870

     the Fermi energy is    -1.5709 ev

!    total energy              =    -300.71342173 Ry
     total all-electron energy =      -300.713584 Ry
     estimated scf accuracy    <       0.00000030 Ry
     smearing contrib. (-TS)   =      -0.00067362 Ry
     internal energy E=F+TS    =    -300.71274811 Ry

     The total energy is F=E-TS. E is the sum of the following terms:
     one-electron contribution =   -1757.01904558 Ry
     hartree contribution      =     848.40468290 Ry
     xc contribution           =     -71.62632683 Ry
     ewald contribution        =     677.76426722 Ry
     one-center paw contrib.   =       1.76367418 Ry

     convergence has been achieved in  19 iterations

     Forces acting on atoms (cartesian axes, Ry/au):

     atom    1 type  1   force =     0.00000102   -0.00010424    0.00013535
     atom    2 type  1   force =     0.00002488   -0.00004175    0.00006308
     atom    3 type  1   force =    -0.00003904    0.00001114    0.00000308
     atom    4 type  1   force =     0.00000740   -0.00002386   -0.00001673
     atom    5 type  1   force =    -0.00000848    0.00002143    0.00000032
     atom    6 type  1   force =     0.00003845   -0.00001166   -0.00001596
     atom    7 type  1   force =    -0.00002431    0.00004214   -0.00006653
     atom    8 type  1   force =     0.00000026    0.00010466   -0.00012641
     atom    9 type  1   force =    -0.00003661   -0.00007963   -0.00014623
     atom   10 type  1   force =     0.00003362    0.00008011    0.00017045
     atom   11 type  1   force =     0.00000075   -0.00010391    0.00013449
     atom   12 type  1   force =     0.00002405   -0.00004244    0.00006369
     atom   13 type  1   force =    -0.00003798    0.00001104    0.00000367
     atom   14 type  1   force =     0.00000938   -0.00002028   -0.00001636
     atom   15 type  1   force =    -0.00000780    0.00002273    0.00000210
     atom   16 type  1   force =     0.00003592   -0.00001129   -0.00001600
     atom   17 type  1   force =    -0.00002351    0.00003928   -0.00007215
     atom   18 type  1   force =    -0.00000104    0.00010504   -0.00012450
     atom   19 type  1   force =    -0.00003390   -0.00008029   -0.00014717
     atom   20 type  1   force =     0.00003693    0.00008179    0.00017182

     Total force =     0.000530     Total SCF correction =     0.000405
     SCF correction compared to forces is large: reduce conv_thr to get better values

     BFGS Geometry Optimization
     Energy error            =      2.8E-07 Ry
     Gradient error          =      1.7E-04 Ry/Bohr

     bfgs converged in   1 scf cycles and   0 bfgs steps
     (criteria: energy <  1.0E-05 Ry, force <  3.9E-04 Ry/Bohr)

     End of BFGS Geometry Optimization

     Final energy             =    -300.7134217261 Ry
Begin final coordinates

ATOMIC_POSITIONS (angstrom)
Li               1.7176393300        2.2466047300       12.3345604200
Li              -0.0003896400        4.3193755300       13.7127990200
Li               0.0006926500        1.1586045600       14.4839086300
Li               1.7174867500        3.1950447300       15.8822475800
Li               1.7176703600        0.0638304900       16.7065050200
Li              -0.0006923200        2.1002723700       18.1048434200
Li               1.7179670500        4.3709572800       18.8759560500
Li               1.7175156800        1.0122707300       20.2541911700
Li               0.0017471500        3.4737754100       21.0932540900
Li               3.4334087100       -0.2149008100       11.4954982200
Li               5.1527960900        2.2466042200       12.3345611600
Li               3.4347677000        4.3193761900       13.7127983600
Li               3.4358487800        1.1586047200       14.4839083100
Li               5.1526421700        3.1950443000       15.8822477000
Li               5.1528263600        0.0638315900       16.7065048500
Li               3.4344631500        2.1002715900       18.1048440100
Li               5.1531233000        4.3709569400       18.8759558700
Li               5.1526723300        1.0122715400       20.2541901000
Li               3.4369032000        3.4737756400       21.0932545300
Li               6.8685657000       -0.2149015600       11.4954977800
End final coordinates


     Message from routine punch:
     Nothing written, as per user request (disk_io='none')
 
     init_run     :      6.10s CPU      6.34s WALL (       1 calls)
     electrons    :     67.50s CPU     69.51s WALL (       1 calls)
     forces       :      0.32s CPU      0.34s WALL (       1 calls)

     Called by init_run:
     wfcinit      :      1.85s CPU      1.99s WALL (       1 calls)
     potinit      :      0.25s CPU      0.29s WALL (       1 calls)
     hinit0       :      0.02s CPU      0.05s WALL (       1 calls)

     Called by electrons:
     c_bands      :     54.63s CPU     56.06s WALL (      19 calls)
     sum_band     :      9.71s CPU     10.00s WALL (      19 calls)
     v_of_rho     :      0.80s CPU      0.87s WALL (      20 calls)
     newd         :      0.26s CPU      0.29s WALL (      20 calls)
     PAW_pot      :      0.56s CPU      0.61s WALL (      20 calls)
     mix_rho      :      1.34s CPU      1.37s WALL (      19 calls)

     Called by c_bands:
     init_us_2    :      0.61s CPU      0.63s WALL (     840 calls)
     cegterg      :     42.91s CPU     44.30s WALL (     399 calls)

     Called by *egterg:
     cdiaghg      :      4.94s CPU      5.00s WALL (    2545 calls)
     h_psi        :     32.01s CPU     33.33s WALL (    2566 calls)
     s_psi        :      2.09s CPU      2.12s WALL (    2566 calls)
     g_psi        :      0.03s CPU      0.03s WALL (    2146 calls)

     Called by h_psi:
     h_psi:calbec :      3.24s CPU      3.41s WALL (    2566 calls)
     vloc_psi     :     25.40s CPU     26.51s WALL (    2566 calls)
                                        0.00s GPU  (    2566 calls)
     add_vuspsi   :      3.14s CPU      3.18s WALL (    2566 calls)

     General routines
     calbec       :      4.30s CPU      4.48s WALL (    3049 calls)
     fft          :      0.88s CPU      0.90s WALL (     260 calls)
     ffts         :      1.41s CPU      1.42s WALL (    2061 calls)
     fftw         :     29.14s CPU     30.38s WALL (  107297 calls)
     interpolate  :      0.08s CPU      0.09s WALL (      20 calls)
 
     Parallel routines
 
     PWSCF        :   1m14.64s CPU   1m18.35s WALL

 
   This run was terminated on:   0:37:13  23Jan2025            

=------------------------------------------------------------------------------=
   JOB DONE.
=------------------------------------------------------------------------------=
