
     Program PWSCF v.7.4 starts on  1Jan2025 at 19:36:36 

     This program is part of the open-source Quantum ESPRESSO suite
     for quantum simulation of materials; please cite
         "P. Giannozzi et al., J. Phys.:Condens. Matter 21 395502 (2009);
         "P. Giannozzi et al., J. Phys.:Condens. Matter 29 465901 (2017);
         "P. Giannozzi et al., J. Chem. Phys. 152 154105 (2020);
          URL http://www.quantum-espresso.org", 
     in publications or presentations arising from this work. More details at
     http://www.quantum-espresso.org/quote

     Parallel version (MPI & OpenMP), running on     256 processor cores
     Number of MPI processes:               256
     Threads/MPI process:                     1

     MPI processes distributed on     2 nodes
     230038 MiB available memory on the printing compute node when the environment starts

     Reading input from espresso.pwi
Warning: card &CELL ignored
Warning: card    PRESS_CONV_THR   = 0.1 ignored
Warning: card    CELL_DOFREE      = 'ALL' ignored
Warning: card / ignored
Warning: card &FCP ignored
Warning: card / ignored
Warning: card &RISM ignored
Warning: card / ignored

     Current dimensions of program PWSCF are:
     Max number of different atomic species (ntypx) = 10
     Max number of k-points (npk) =  40000
     Max angular momentum in pseudopotentials (lmaxx) =  4

     IMPORTANT: XC functional enforced from input :
     Exchange-correlation= PBE
                           (   1   4   3   4   0   0   0)
     Any further DFT definition will be discarded
     Please, verify this is what you really want


     Reading input from environ.in:
     * using ionic solvent mode
     * setting boundary derivatives method to SSCS default
     * setting electrolyte-boundary derivatives method to SSCS default

Environ Warning (1001): card EOF ignored

     
     Found identity + (  0.0000  0.5000 -0.0000) symmetry
     This is a supercell, fractional translations are disabled

     R & G space division:  proc/nbgrp/npool/nimage =     256
     Subspace diagonalization in iterative solution of the eigenvalue problem:
     a serial algorithm will be used


     Parallelization info
     --------------------
     sticks:   dense  smooth     PW     G-vecs:    dense   smooth      PW
     Min          41      16      4                24769     6230     846
     Max          42      17      5                24868     6321     923
     Sum       10733    4281   1153              6359029  1608267  224795

     Using Slab Decomposition



     bravais-lattice index     =            6
     lattice parameter (alat)  =      12.9830  a.u.
     unit-cell volume          =   16640.2905 (a.u.)^3
     number of atoms/cell      =           32
     number of atomic types    =            1
     number of electrons       =        96.00
     number of Kohn-Sham states=           72
     kinetic-energy cutoff     =      80.0000  Ry
     charge density cutoff     =     800.0000  Ry
     scf convergence threshold =      1.0E-06
     mixing beta               =       0.2000
     number of iterations used =            8  local-TF  mixing
     energy convergence thresh.=      1.0E-05
     force convergence thresh. =      3.9E-04
     Exchange-correlation= PBE
                           (   1   4   3   4   0   0   0)
     nstep                     =          999


     ================================================================================

                                  Environ Setup Summary

     ================================================================================

     Please cite

          O. Andreussi, I. Dabo and N. Marzari, J. Chem. Phys. 136, 064102 (2012)
          F. Nattino, M. Truscott, N. Marzari, and O. Andreussi, J. Chem. Phys. 150, 041722 (2019)

     in publications or presentations arising from this work.

     ================================================================================

     Parameters
     ==========

     compensation onset threshold      =               0.1000E+00
     static permittivity               =                    89.90
     surface tension in input (dyn/cm) =                    37.30
     surface tension in internal units =               0.4792E-04

     Solvent Boundary
     ================

     solvent mode                      =                    ionic
     derivatives method                =                   lowmem
     electrolyte derivatives method    =                   lowmem
     numerical core for derivatives    =                      fft
     switching function adopted        =                     SCCS
     density limit for vacuum region   =               0.5000E-02
     density limit for bulk solvent    =               0.1000E-03
     soft-sphere radius mode           =                    bondi
     soft-sphere softness              =                     0.50
     alpha                             =                     1.32

     Electrostatic Setup
     ===================

     electrostatic problem to solve    =                    modpb
     numerical solver adopted          =                   newton
     type of auxiliary density adopted =                     none
     numerical core for poisson        =                      fft
     adopting a nested solver scheme
     inner solver                      =                       cg
     inner core                        =                      fft
     type of pbc corrections           =                parabolic
     numerical core for corrections    =                      1da

     ================================================================================


     >>>>> Grand-Canonical SCF is activated <<<<<
     Initial Total Charge  =     0.000000 e
     Target Fermi Energy   =    -3.404000 eV
     Thr. of Fermi Energy  =     0.001000 eV
     Wave-shift of Kerker  =     0.400000 bohr^-1
     Wave-shift of Hartree =     1.500000 bohr^-1
     Mixing Rate of Fermi  =     0.050000

     celldm(1)=  12.983009  celldm(2)=   0.000000  celldm(3)=   7.603873
     celldm(4)=   0.000000  celldm(5)=   0.000000  celldm(6)=   0.000000

     crystal axes: (cart. coord. in units of alat)
               a(1) = (   1.000000   0.000000   0.000000 )  
               a(2) = (   0.000000   1.000000   0.000000 )  
               a(3) = (   0.000000   0.000000   7.603873 )  

     reciprocal axes: (cart. coord. in units 2 pi/alat)
               b(1) = (  1.000000  0.000000  0.000000 )  
               b(2) = (  0.000000  1.000000  0.000000 )  
               b(3) = (  0.000000  0.000000  0.131512 )  


     PseudoPot. # 1 for Li read from file:
     /work/e89/e89/ba3g18/Repos/Pseudopotentials/Pslibrary/Li.pbe-sl-kjpaw_psl.1.0.0.UPF
     MD5 check sum: 3f4d2cafebb47c6c3aa8ed472e6f074d
     Pseudo is Projector augmented-wave, Zval =  3.0
     Generated using 'atomic' code by A. Dal Corso  v.7.4
     Shape of augmentation charge: PSQ
     Using radial grid of 1017 points,  4 beta functions with: 
                l(1) =   0
                l(2) =   0
                l(3) =   1
                l(4) =   1
     Q(r) pseudized with 0 coefficients 


     atomic species   valence    mass     pseudopotential
     Li                3.00     6.94000     Li( 1.00)

      8 Sym. Ops. (no inversion) found


                                    s                        frac. trans.

      isym =  1     identity                                     

 cryst.   s( 1) = (     1          0          0      )
                  (     0          1          0      )
                  (     0          0          1      )

 cart.    s( 1) = (  1.0000000  0.0000000  0.0000000 )
                  (  0.0000000  1.0000000  0.0000000 )
                  (  0.0000000  0.0000000  1.0000000 )


      isym =  2     180 deg rotation - cart. axis [0,0,1]        

 cryst.   s( 2) = (    -1          0          0      )
                  (     0         -1          0      )
                  (     0          0          1      )

 cart.    s( 2) = ( -1.0000000  0.0000000  0.0000000 )
                  (  0.0000000 -1.0000000  0.0000000 )
                  (  0.0000000  0.0000000  1.0000000 )


      isym =  3      90 deg rotation - cart. axis [0,0,-1]       

 cryst.   s( 3) = (     0         -1          0      )
                  (     1          0          0      )
                  (     0          0          1      )

 cart.    s( 3) = (  0.0000000  1.0000000  0.0000000 )
                  ( -1.0000000  0.0000000  0.0000000 )
                  (  0.0000000  0.0000000  1.0000000 )


      isym =  4      90 deg rotation - cart. axis [0,0,1]        

 cryst.   s( 4) = (     0          1          0      )
                  (    -1          0          0      )
                  (     0          0          1      )

 cart.    s( 4) = (  0.0000000 -1.0000000  0.0000000 )
                  (  1.0000000  0.0000000  0.0000000 )
                  (  0.0000000  0.0000000  1.0000000 )


      isym =  5     inv. 180 deg rotation - cart. axis [0,1,0]   

 cryst.   s( 5) = (     1          0          0      )
                  (     0         -1          0      )
                  (     0          0          1      )

 cart.    s( 5) = (  1.0000000  0.0000000  0.0000000 )
                  (  0.0000000 -1.0000000  0.0000000 )
                  (  0.0000000  0.0000000  1.0000000 )


      isym =  6     inv. 180 deg rotation - cart. axis [1,0,0]   

 cryst.   s( 6) = (    -1          0          0      )
                  (     0          1          0      )
                  (     0          0          1      )

 cart.    s( 6) = ( -1.0000000  0.0000000  0.0000000 )
                  (  0.0000000  1.0000000  0.0000000 )
                  (  0.0000000  0.0000000  1.0000000 )


      isym =  7     inv. 180 deg rotation - cart. axis [1,1,0]   

 cryst.   s( 7) = (     0         -1          0      )
                  (    -1          0          0      )
                  (     0          0          1      )

 cart.    s( 7) = (  0.0000000 -1.0000000  0.0000000 )
                  ( -1.0000000  0.0000000  0.0000000 )
                  (  0.0000000  0.0000000  1.0000000 )


      isym =  8     inv. 180 deg rotation - cart. axis [1,-1,0]  

 cryst.   s( 8) = (     0          1          0      )
                  (     1          0          0      )
                  (     0          0          1      )

 cart.    s( 8) = (  0.0000000  1.0000000  0.0000000 )
                  (  1.0000000  0.0000000  0.0000000 )
                  (  0.0000000  0.0000000  1.0000000 )


     point group C_4v (4mm) 
     there are  5 classes
     the character table:

       E     2C4   C2    2s_v  2s_d 
A_1    1.00  1.00  1.00  1.00  1.00
A_2    1.00  1.00  1.00 -1.00 -1.00
B_1    1.00 -1.00  1.00  1.00 -1.00
B_2    1.00 -1.00  1.00 -1.00  1.00
E      2.00  0.00 -2.00  0.00  0.00

     the symmetry operations in each class and the name of the first element:

     E        1
          identity                                               
     2C4      3    4
           90 deg rotation - cart. axis [0,0,-1]                 
     C2       2
          180 deg rotation - cart. axis [0,0,1]                  
     2s_v     5    6
          inv. 180 deg rotation - cart. axis [0,1,0]             
     2s_d     7    8
          inv. 180 deg rotation - cart. axis [1,1,0]             

   Cartesian axes

     site n.     atom                  positions (alat units)
         1        Li     tau(   1) = (  -0.0000000  -0.0000000   3.1811092  )
         2        Li     tau(   2) = (   0.2500007   0.2500007   2.9187751  )
         3        Li     tau(   3) = (  -0.0000000  -0.0000000   3.6748013  )
         4        Li     tau(   4) = (   0.2499991   0.2499991   3.4273966  )
         5        Li     tau(   5) = (  -0.0000000  -0.0000000   4.1764888  )
         6        Li     tau(   6) = (   0.2499999   0.2499999   3.9290749  )
         7        Li     tau(   7) = (  -0.0000000  -0.0000000   4.6851287  )
         8        Li     tau(   8) = (   0.2499998   0.2499998   4.4227863  )
         9        Li     tau(   9) = (  -0.0000000   0.5000000   3.1811089  )
        10        Li     tau(  10) = (   0.2500007   0.7499993   2.9187751  )
        11        Li     tau(  11) = (  -0.0000000   0.5000000   3.6748014  )
        12        Li     tau(  12) = (   0.2499991   0.7500009   3.4273966  )
        13        Li     tau(  13) = (  -0.0000000   0.5000000   4.1764934  )
        14        Li     tau(  14) = (   0.2499999   0.7500001   3.9290749  )
        15        Li     tau(  15) = (  -0.0000000   0.5000000   4.6851258  )
        16        Li     tau(  16) = (   0.2499998   0.7500002   4.4227863  )
        17        Li     tau(  17) = (   0.5000000  -0.0000000   3.1811089  )
        18        Li     tau(  18) = (   0.7499993   0.2500007   2.9187751  )
        19        Li     tau(  19) = (   0.5000000  -0.0000000   3.6748014  )
        20        Li     tau(  20) = (   0.7500009   0.2499991   3.4273966  )
        21        Li     tau(  21) = (   0.5000000  -0.0000000   4.1764934  )
        22        Li     tau(  22) = (   0.7500001   0.2499999   3.9290749  )
        23        Li     tau(  23) = (   0.5000000  -0.0000000   4.6851258  )
        24        Li     tau(  24) = (   0.7500002   0.2499998   4.4227863  )
        25        Li     tau(  25) = (   0.5000000   0.5000000   3.1811098  )
        26        Li     tau(  26) = (   0.7499993   0.7499993   2.9187751  )
        27        Li     tau(  27) = (   0.5000000   0.5000000   3.6748033  )
        28        Li     tau(  28) = (   0.7500009   0.7500009   3.4273966  )
        29        Li     tau(  29) = (   0.5000000   0.5000000   4.1764997  )
        30        Li     tau(  30) = (   0.7500001   0.7500001   3.9290749  )
        31        Li     tau(  31) = (   0.5000000   0.5000000   4.6851226  )
        32        Li     tau(  32) = (   0.7500002   0.7500002   4.4227863  )

   Crystallographic axes

     site n.     atom                  positions (cryst. coord.)
         1        Li     tau(   1) = ( -0.0000000 -0.0000000  0.4183538  )
         2        Li     tau(   2) = (  0.2500007  0.2500007  0.3838538  )
         3        Li     tau(   3) = ( -0.0000000 -0.0000000  0.4832802  )
         4        Li     tau(   4) = (  0.2499991  0.2499991  0.4507436  )
         5        Li     tau(   5) = ( -0.0000000 -0.0000000  0.5492581  )
         6        Li     tau(   6) = (  0.2499999  0.2499999  0.5167203  )
         7        Li     tau(   7) = ( -0.0000000 -0.0000000  0.6161503  )
         8        Li     tau(   8) = (  0.2499998  0.2499998  0.5816492  )
         9        Li     tau(   9) = ( -0.0000000  0.5000000  0.4183538  )
        10        Li     tau(  10) = (  0.2500007  0.7499993  0.3838538  )
        11        Li     tau(  11) = ( -0.0000000  0.5000000  0.4832802  )
        12        Li     tau(  12) = (  0.2499991  0.7500009  0.4507436  )
        13        Li     tau(  13) = ( -0.0000000  0.5000000  0.5492587  )
        14        Li     tau(  14) = (  0.2499999  0.7500001  0.5167203  )
        15        Li     tau(  15) = ( -0.0000000  0.5000000  0.6161500  )
        16        Li     tau(  16) = (  0.2499998  0.7500002  0.5816492  )
        17        Li     tau(  17) = (  0.5000000 -0.0000000  0.4183538  )
        18        Li     tau(  18) = (  0.7499993  0.2500007  0.3838538  )
        19        Li     tau(  19) = (  0.5000000 -0.0000000  0.4832802  )
        20        Li     tau(  20) = (  0.7500009  0.2499991  0.4507436  )
        21        Li     tau(  21) = (  0.5000000 -0.0000000  0.5492587  )
        22        Li     tau(  22) = (  0.7500001  0.2499999  0.5167203  )
        23        Li     tau(  23) = (  0.5000000 -0.0000000  0.6161500  )
        24        Li     tau(  24) = (  0.7500002  0.2499998  0.5816492  )
        25        Li     tau(  25) = (  0.5000000  0.5000000  0.4183539  )
        26        Li     tau(  26) = (  0.7499993  0.7499993  0.3838538  )
        27        Li     tau(  27) = (  0.5000000  0.5000000  0.4832805  )
        28        Li     tau(  28) = (  0.7500009  0.7500009  0.4507436  )
        29        Li     tau(  29) = (  0.5000000  0.5000000  0.5492596  )
        30        Li     tau(  30) = (  0.7500001  0.7500001  0.5167203  )
        31        Li     tau(  31) = (  0.5000000  0.5000000  0.6161495  )
        32        Li     tau(  32) = (  0.7500002  0.7500002  0.5816492  )

     number of k points=    21  Marzari-Vanderbilt smearing, width (Ry)=  0.0100
                       cart. coord. in units 2pi/alat
        k(    1) = (   0.0000000   0.0000000   0.0000000), wk =   0.0200000
        k(    2) = (   0.0000000   0.1000000   0.0000000), wk =   0.0800000
        k(    3) = (   0.0000000   0.2000000   0.0000000), wk =   0.0800000
        k(    4) = (   0.0000000   0.3000000   0.0000000), wk =   0.0800000
        k(    5) = (   0.0000000   0.4000000   0.0000000), wk =   0.0800000
        k(    6) = (   0.0000000  -0.5000000   0.0000000), wk =   0.0400000
        k(    7) = (   0.1000000   0.1000000   0.0000000), wk =   0.0800000
        k(    8) = (   0.1000000   0.2000000   0.0000000), wk =   0.1600000
        k(    9) = (   0.1000000   0.3000000   0.0000000), wk =   0.1600000
        k(   10) = (   0.1000000   0.4000000   0.0000000), wk =   0.1600000
        k(   11) = (   0.1000000  -0.5000000   0.0000000), wk =   0.0800000
        k(   12) = (   0.2000000   0.2000000   0.0000000), wk =   0.0800000
        k(   13) = (   0.2000000   0.3000000   0.0000000), wk =   0.1600000
        k(   14) = (   0.2000000   0.4000000   0.0000000), wk =   0.1600000
        k(   15) = (   0.2000000  -0.5000000   0.0000000), wk =   0.0800000
        k(   16) = (   0.3000000   0.3000000   0.0000000), wk =   0.0800000
        k(   17) = (   0.3000000   0.4000000   0.0000000), wk =   0.1600000
        k(   18) = (   0.3000000  -0.5000000   0.0000000), wk =   0.0800000
        k(   19) = (   0.4000000   0.4000000   0.0000000), wk =   0.0800000
        k(   20) = (   0.4000000  -0.5000000   0.0000000), wk =   0.0800000
        k(   21) = (  -0.5000000  -0.5000000   0.0000000), wk =   0.0200000

                       cryst. coord.
        k(    1) = (   0.0000000   0.0000000   0.0000000), wk =   0.0200000
        k(    2) = (   0.0000000   0.1000000   0.0000000), wk =   0.0800000
        k(    3) = (   0.0000000   0.2000000   0.0000000), wk =   0.0800000
        k(    4) = (   0.0000000   0.3000000   0.0000000), wk =   0.0800000
        k(    5) = (   0.0000000   0.4000000   0.0000000), wk =   0.0800000
        k(    6) = (   0.0000000  -0.5000000   0.0000000), wk =   0.0400000
        k(    7) = (   0.1000000   0.1000000   0.0000000), wk =   0.0800000
        k(    8) = (   0.1000000   0.2000000   0.0000000), wk =   0.1600000
        k(    9) = (   0.1000000   0.3000000   0.0000000), wk =   0.1600000
        k(   10) = (   0.1000000   0.4000000   0.0000000), wk =   0.1600000
        k(   11) = (   0.1000000  -0.5000000   0.0000000), wk =   0.0800000
        k(   12) = (   0.2000000   0.2000000   0.0000000), wk =   0.0800000
        k(   13) = (   0.2000000   0.3000000   0.0000000), wk =   0.1600000
        k(   14) = (   0.2000000   0.4000000   0.0000000), wk =   0.1600000
        k(   15) = (   0.2000000  -0.5000000   0.0000000), wk =   0.0800000
        k(   16) = (   0.3000000   0.3000000   0.0000000), wk =   0.0800000
        k(   17) = (   0.3000000   0.4000000   0.0000000), wk =   0.1600000
        k(   18) = (   0.3000000  -0.5000000   0.0000000), wk =   0.0800000
        k(   19) = (   0.4000000   0.4000000   0.0000000), wk =   0.0800000
        k(   20) = (   0.4000000  -0.5000000   0.0000000), wk =   0.0800000
        k(   21) = (  -0.5000000  -0.5000000   0.0000000), wk =   0.0200000

     Dense  grid:  6359029 G-vectors     FFT dimensions: ( 120, 120, 900)

     Smooth grid:  1608267 G-vectors     FFT dimensions: (  75,  75, 576)

     Dynamical RAM for                 wfc:       0.86 MB

     Dynamical RAM for     wfc (w. buffer):      18.97 MB

     Dynamical RAM for           str. fact:       0.38 MB

     Dynamical RAM for           local pot:       0.00 MB

     Dynamical RAM for          nlocal pot:       3.07 MB

     Dynamical RAM for                qrad:       0.65 MB

     Dynamical RAM for          rho,v,vnew:       2.46 MB

     Dynamical RAM for               rhoin:       0.82 MB

     Dynamical RAM for            rho*nmix:       6.07 MB

     Dynamical RAM for           G-vectors:       1.47 MB

     Dynamical RAM for          h,s,v(r/c):       3.80 MB

     Dynamical RAM for          <psi|beta>:       0.28 MB

     Dynamical RAM for                 psi:       3.45 MB

     Dynamical RAM for                hpsi:       3.45 MB

     Dynamical RAM for                spsi:       3.45 MB

     Dynamical RAM for      wfcinit/wfcrot:       1.84 MB

     Dynamical RAM for           addusdens:      28.45 MB

     Dynamical RAM for          addusforce:      52.18 MB

     Estimated static dynamical RAM per process >      30.77 MB

     Estimated max dynamical RAM per process >      97.03 MB

     Estimated total dynamical RAM >      22.26 GB

     Initial potential from superposition of free atoms

     starting charge      95.8525, renormalised to      96.0000

     negative rho (up, down):  2.976E-03 0.000E+00
     Starting wfcs are random
     Checking if some PAW data can be deallocated... 

     total cpu time spent up to now is       23.2 secs

     Self-consistent Calculation

     iteration #  1     ecut=    80.00 Ry     beta= 0.20
     Davidson diagonalization with overlap

---- Real-time Memory Report at c_bands before calling an iterative solver
           379 MiB given to the printing process from OS
             0 MiB allocation reported by mallinfo(arena+hblkhd)
        219131 MiB available memory on the node where the printing process lives
------------------
     c_bands:  1 eigenvalues not converged
     c_bands:  2 eigenvalues not converged
     c_bands:  1 eigenvalues not converged
     c_bands:  2 eigenvalues not converged
     ethr =  1.00E-12,  avg # of iterations =111.4

     negative rho (up, down):  2.236E-03 0.000E+00

     add environment contribution to local potential

     total cpu time spent up to now is      214.9 secs

     total energy              =    -481.10811442 Ry
     estimated scf accuracy    <       0.09609361 Ry

     total charge of GC-SCF    =       0.02564079 e
     the Fermi energy          =      -4.35781225 eV
                        (error :       0.95381225 eV)
     electrostatic embedding   =       0.00000000 Ry
     cavitation energy         =       0.01925905 Ry
     electrolyte free energy   =       0.00716218 Ry
     correction to one-el term =      -0.00000000 Ry

     iteration #  2     ecut=    80.00 Ry     beta= 0.20
     Davidson diagonalization with overlap

---- Real-time Memory Report at c_bands before calling an iterative solver
           379 MiB given to the printing process from OS
             0 MiB allocation reported by mallinfo(arena+hblkhd)
        216600 MiB available memory on the node where the printing process lives
------------------
     ethr =  1.00E-05,  avg # of iterations = 18.1

     negative rho (up, down):  1.760E-03 0.000E+00

     add environment contribution to local potential

     total cpu time spent up to now is      244.3 secs

     total energy              =    -481.23245238 Ry
     estimated scf accuracy    <       0.03587315 Ry

     total charge of GC-SCF    =       0.03960721 e
     the Fermi energy          =      -3.36918570 eV
                        (error :       0.03481430 eV)
     electrostatic embedding   =      -0.02385779 Ry
     cavitation energy         =       0.01925905 Ry
     electrolyte free energy   =      -0.00402018 Ry
     correction to one-el term =      -0.33245234 Ry

     iteration #  3     ecut=    80.00 Ry     beta= 0.20
     Davidson diagonalization with overlap

---- Real-time Memory Report at c_bands before calling an iterative solver
           379 MiB given to the printing process from OS
             0 MiB allocation reported by mallinfo(arena+hblkhd)
        216602 MiB available memory on the node where the printing process lives
------------------
     ethr =  1.00E-05,  avg # of iterations =  7.0

     negative rho (up, down):  1.305E-03 0.000E+00

     add environment contribution to local potential

     total cpu time spent up to now is      261.2 secs

     total energy              =    -481.17923506 Ry
     estimated scf accuracy    <       0.01858272 Ry

     total charge of GC-SCF    =       0.10791312 e
     the Fermi energy          =      -3.32855611 eV
                        (error :       0.07544389 eV)
     electrostatic embedding   =      -0.02131253 Ry
     cavitation energy         =       0.01925905 Ry
     electrolyte free energy   =      -0.00395868 Ry
     correction to one-el term =      -0.49462772 Ry

     iteration #  4     ecut=    80.00 Ry     beta= 0.20
     Davidson diagonalization with overlap

---- Real-time Memory Report at c_bands before calling an iterative solver
           379 MiB given to the printing process from OS
             0 MiB allocation reported by mallinfo(arena+hblkhd)
        216587 MiB available memory on the node where the printing process lives
------------------
     ethr =  1.00E-05,  avg # of iterations = 16.4

     negative rho (up, down):  1.108E-03 0.000E+00

     add environment contribution to local potential

     total cpu time spent up to now is      291.9 secs

     total energy              =    -481.21806984 Ry
     estimated scf accuracy    <       0.00395515 Ry

     total charge of GC-SCF    =       0.18911642 e
     the Fermi energy          =      -2.89271970 eV
                        (error :       0.51128030 eV)
     electrostatic embedding   =      -0.01530661 Ry
     cavitation energy         =       0.01925905 Ry
     electrolyte free energy   =      -0.00202172 Ry
     correction to one-el term =      -2.19911023 Ry

     iteration #  5     ecut=    80.00 Ry     beta= 0.20
     Davidson diagonalization with overlap

---- Real-time Memory Report at c_bands before calling an iterative solver
           379 MiB given to the printing process from OS
             0 MiB allocation reported by mallinfo(arena+hblkhd)
        216513 MiB available memory on the node where the printing process lives
------------------
     ethr =  4.13E-06,  avg # of iterations =  8.2

     negative rho (up, down):  9.147E-04 0.000E+00

     add environment contribution to local potential

     total cpu time spent up to now is      312.7 secs

     total energy              =    -481.21437147 Ry
     estimated scf accuracy    <       0.00321102 Ry

     total charge of GC-SCF    =       0.30099647 e
     the Fermi energy          =      -3.06584901 eV
                        (error :       0.33815099 eV)
     electrostatic embedding   =      -0.01398685 Ry
     cavitation energy         =       0.01925905 Ry
     electrolyte free energy   =      -0.00265836 Ry
     correction to one-el term =      -3.80411967 Ry

     iteration #  6     ecut=    80.00 Ry     beta= 0.20
     Davidson diagonalization with overlap

---- Real-time Memory Report at c_bands before calling an iterative solver
           379 MiB given to the printing process from OS
             0 MiB allocation reported by mallinfo(arena+hblkhd)
        216499 MiB available memory on the node where the printing process lives
------------------
     ethr =  3.36E-06,  avg # of iterations = 10.2

     negative rho (up, down):  8.270E-04 0.000E+00

     add environment contribution to local potential

     total cpu time spent up to now is      335.1 secs

     total energy              =    -481.21869357 Ry
     estimated scf accuracy    <       0.00151746 Ry

     total charge of GC-SCF    =       0.48915905 e
     the Fermi energy          =      -2.81896602 eV
                        (error :       0.58503398 eV)
     electrostatic embedding   =      -0.01877966 Ry
     cavitation energy         =       0.01925905 Ry
     electrolyte free energy   =      -0.00142637 Ry
     correction to one-el term =      -6.52320662 Ry

     iteration #  7     ecut=    80.00 Ry     beta= 0.20
     Davidson diagonalization with overlap

---- Real-time Memory Report at c_bands before calling an iterative solver
           379 MiB given to the printing process from OS
             0 MiB allocation reported by mallinfo(arena+hblkhd)
        216477 MiB available memory on the node where the printing process lives
------------------
     ethr =  1.59E-06,  avg # of iterations =  8.5

     negative rho (up, down):  7.377E-04 0.000E+00

     add environment contribution to local potential

     total cpu time spent up to now is      356.0 secs

     total energy              =    -481.23977418 Ry
     estimated scf accuracy    <       0.00073738 Ry

     total charge of GC-SCF    =       0.53524082 e
     the Fermi energy          =      -2.87492266 eV
                        (error :       0.52907734 eV)
     electrostatic embedding   =      -0.03635304 Ry
     cavitation energy         =       0.01925905 Ry
     electrolyte free energy   =      -0.00188444 Ry
     correction to one-el term =     -11.87215508 Ry

     iteration #  8     ecut=    80.00 Ry     beta= 0.20
     Davidson diagonalization with overlap

---- Real-time Memory Report at c_bands before calling an iterative solver
           379 MiB given to the printing process from OS
             0 MiB allocation reported by mallinfo(arena+hblkhd)
        216459 MiB available memory on the node where the printing process lives
------------------
     ethr =  7.72E-07,  avg # of iterations =  8.4

     negative rho (up, down):  1.092E-03 0.000E+00

     add environment contribution to local potential

     total cpu time spent up to now is      375.2 secs

     total energy              =    -481.21642898 Ry
     estimated scf accuracy    <       0.00075070 Ry

     total charge of GC-SCF    =       0.79846417 e
     the Fermi energy          =      -2.94218193 eV
                        (error :       0.46181807 eV)
     electrostatic embedding   =      -0.04240250 Ry
     cavitation energy         =       0.01925905 Ry
     electrolyte free energy   =      -0.00229699 Ry
     correction to one-el term =     -13.47294591 Ry

     iteration #  9     ecut=    80.00 Ry     beta= 0.20
     Davidson diagonalization with overlap

---- Real-time Memory Report at c_bands before calling an iterative solver
           379 MiB given to the printing process from OS
             0 MiB allocation reported by mallinfo(arena+hblkhd)
        216450 MiB available memory on the node where the printing process lives
------------------
     ethr =  7.72E-07,  avg # of iterations = 11.2

     negative rho (up, down):  9.921E-04 0.000E+00

     add environment contribution to local potential

     total cpu time spent up to now is      400.0 secs

     total energy              =    -481.24148063 Ry
     estimated scf accuracy    <       0.00032266 Ry

     total charge of GC-SCF    =       0.86492352 e
     the Fermi energy          =      -3.17660755 eV
                        (error :       0.22739245 eV)
     electrostatic embedding   =      -0.09570597 Ry
     cavitation energy         =       0.01925905 Ry
     electrolyte free energy   =      -0.00416464 Ry
     correction to one-el term =     -22.20585839 Ry

     iteration # 10     ecut=    80.00 Ry     beta= 0.20
     Davidson diagonalization with overlap

---- Real-time Memory Report at c_bands before calling an iterative solver
           379 MiB given to the printing process from OS
             0 MiB allocation reported by mallinfo(arena+hblkhd)
        216421 MiB available memory on the node where the printing process lives
------------------
     ethr =  3.39E-07,  avg # of iterations =  6.0

     negative rho (up, down):  5.340E-04 0.000E+00

     add environment contribution to local potential

     total cpu time spent up to now is      417.2 secs

     total energy              =    -481.24184056 Ry
     estimated scf accuracy    <       0.00022520 Ry

     total charge of GC-SCF    =       0.95038213 e
     the Fermi energy          =      -3.18735772 eV
                        (error :       0.21664228 eV)
     electrostatic embedding   =      -0.11476051 Ry
     cavitation energy         =       0.01925905 Ry
     electrolyte free energy   =      -0.00446430 Ry
     correction to one-el term =     -24.43548423 Ry

     iteration # 11     ecut=    80.00 Ry     beta= 0.20
     Davidson diagonalization with overlap

---- Real-time Memory Report at c_bands before calling an iterative solver
           379 MiB given to the printing process from OS
             0 MiB allocation reported by mallinfo(arena+hblkhd)
        216395 MiB available memory on the node where the printing process lives
------------------
     ethr =  2.37E-07,  avg # of iterations = 10.6

     negative rho (up, down):  4.644E-04 0.000E+00

     add environment contribution to local potential

     total cpu time spent up to now is      439.2 secs

     total energy              =    -481.24336463 Ry
     estimated scf accuracy    <       0.00008380 Ry

     total charge of GC-SCF    =       1.06278687 e
     the Fermi energy          =      -3.20384803 eV
                        (error :       0.20015197 eV)
     electrostatic embedding   =      -0.14379367 Ry
     cavitation energy         =       0.01925905 Ry
     electrolyte free energy   =      -0.00493589 Ry
     correction to one-el term =     -27.48725735 Ry

     iteration # 12     ecut=    80.00 Ry     beta= 0.20
     Davidson diagonalization with overlap

---- Real-time Memory Report at c_bands before calling an iterative solver
           379 MiB given to the printing process from OS
             0 MiB allocation reported by mallinfo(arena+hblkhd)
        216394 MiB available memory on the node where the printing process lives
------------------
     ethr =  8.83E-08,  avg # of iterations = 19.2

     negative rho (up, down):  4.461E-04 0.000E+00

     add environment contribution to local potential

     total cpu time spent up to now is      470.2 secs

     total energy              =    -481.24664137 Ry
     estimated scf accuracy    <       0.00003585 Ry

     total charge of GC-SCF    =       1.15322569 e
     the Fermi energy          =      -3.26532306 eV
                        (error :       0.13867694 eV)
     electrostatic embedding   =      -0.18453676 Ry
     cavitation energy         =       0.01925905 Ry
     electrolyte free energy   =      -0.00573905 Ry
     correction to one-el term =     -31.25640092 Ry

     iteration # 13     ecut=    80.00 Ry     beta= 0.20
     Davidson diagonalization with overlap

---- Real-time Memory Report at c_bands before calling an iterative solver
           379 MiB given to the printing process from OS
             0 MiB allocation reported by mallinfo(arena+hblkhd)
        216392 MiB available memory on the node where the printing process lives
------------------
     ethr =  3.78E-08,  avg # of iterations = 18.3

     negative rho (up, down):  4.931E-04 0.000E+00

     add environment contribution to local potential

     total cpu time spent up to now is      500.1 secs

     total energy              =    -481.24973414 Ry
     estimated scf accuracy    <       0.00002374 Ry

     total charge of GC-SCF    =       1.31281071 e
     the Fermi energy          =      -3.31751842 eV
                        (error :       0.08648158 eV)
     electrostatic embedding   =      -0.21929491 Ry
     cavitation energy         =       0.01925905 Ry
     electrolyte free energy   =      -0.00638753 Ry
     correction to one-el term =     -34.07755385 Ry

     iteration # 14     ecut=    80.00 Ry     beta= 0.20
     Davidson diagonalization with overlap

---- Real-time Memory Report at c_bands before calling an iterative solver
           379 MiB given to the printing process from OS
             0 MiB allocation reported by mallinfo(arena+hblkhd)
        216387 MiB available memory on the node where the printing process lives
------------------
     ethr =  2.51E-08,  avg # of iterations = 32.7

     negative rho (up, down):  4.891E-04 0.000E+00

     add environment contribution to local potential

     total cpu time spent up to now is      542.9 secs

     total energy              =    -481.24958924 Ry
     estimated scf accuracy    <       0.00000261 Ry

     total charge of GC-SCF    =       1.35179560 e
     the Fermi energy          =      -3.38490789 eV
                        (error :       0.01909211 eV)
     electrostatic embedding   =      -0.28799220 Ry
     cavitation energy         =       0.01925905 Ry
     electrolyte free energy   =      -0.00747592 Ry
     correction to one-el term =     -38.92419871 Ry

     iteration # 15     ecut=    80.00 Ry     beta= 0.20
     Davidson diagonalization with overlap

---- Real-time Memory Report at c_bands before calling an iterative solver
           379 MiB given to the printing process from OS
             0 MiB allocation reported by mallinfo(arena+hblkhd)
        216383 MiB available memory on the node where the printing process lives
------------------
     ethr =  2.76E-09,  avg # of iterations = 18.4

     negative rho (up, down):  4.725E-04 0.000E+00

     add environment contribution to local potential

     total cpu time spent up to now is      575.0 secs

     total energy              =    -481.24954205 Ry
     estimated scf accuracy    <       0.00000177 Ry

     total charge of GC-SCF    =       1.36727300 e
     the Fermi energy          =      -3.40308184 eV
                        (error :       0.00091816 eV)
     electrostatic embedding   =      -0.30673898 Ry
     cavitation energy         =       0.01925905 Ry
     electrolyte free energy   =      -0.00776825 Ry
     correction to one-el term =     -40.14362545 Ry

     iteration # 16     ecut=    80.00 Ry     beta= 0.20
     Davidson diagonalization with overlap

---- Real-time Memory Report at c_bands before calling an iterative solver
           379 MiB given to the printing process from OS
             0 MiB allocation reported by mallinfo(arena+hblkhd)
        216358 MiB available memory on the node where the printing process lives
------------------
     ethr =  1.87E-09,  avg # of iterations = 17.1

     negative rho (up, down):  4.693E-04 0.000E+00

     add environment contribution to local potential

     total cpu time spent up to now is      604.2 secs

     total energy              =    -481.24949698 Ry
     estimated scf accuracy    <       0.00000125 Ry

     total charge of GC-SCF    =       1.34383446 e
     the Fermi energy          =      -3.41433980 eV
                        (error :       0.01033980 eV)
     electrostatic embedding   =      -0.31488342 Ry
     cavitation energy         =       0.01925905 Ry
     electrolyte free energy   =      -0.00791281 Ry
     correction to one-el term =     -40.68226943 Ry

     iteration # 17     ecut=    80.00 Ry     beta= 0.20
     Davidson diagonalization with overlap

---- Real-time Memory Report at c_bands before calling an iterative solver
           379 MiB given to the printing process from OS
             0 MiB allocation reported by mallinfo(arena+hblkhd)
        216345 MiB available memory on the node where the printing process lives
------------------
     ethr =  1.32E-09,  avg # of iterations = 18.9

     negative rho (up, down):  4.515E-04 0.000E+00

     add environment contribution to local potential

     total cpu time spent up to now is      634.2 secs

     total energy              =    -481.24950609 Ry
     estimated scf accuracy    <       0.00000043 Ry

     total charge of GC-SCF    =       1.33964668 e
     the Fermi energy          =      -3.40561494 eV
                        (error :       0.00161494 eV)
     electrostatic embedding   =      -0.30359777 Ry
     cavitation energy         =       0.01925905 Ry
     electrolyte free energy   =      -0.00774236 Ry
     correction to one-el term =     -39.96503380 Ry

     iteration # 18     ecut=    80.00 Ry     beta= 0.20
     Davidson diagonalization with overlap

---- Real-time Memory Report at c_bands before calling an iterative solver
           379 MiB given to the printing process from OS
             0 MiB allocation reported by mallinfo(arena+hblkhd)
        216360 MiB available memory on the node where the printing process lives
------------------
     ethr =  4.54E-10,  avg # of iterations = 12.0

     negative rho (up, down):  4.236E-04 0.000E+00

     add environment contribution to local potential

     total cpu time spent up to now is      659.4 secs

     total energy              =    -481.24951225 Ry
     estimated scf accuracy    <       0.00000035 Ry

     total charge of GC-SCF    =       1.33904801 e
     the Fermi energy          =      -3.40282942 eV
                        (error :       0.00117058 eV)
     electrostatic embedding   =      -0.30153038 Ry
     cavitation energy         =       0.01925905 Ry
     electrolyte free energy   =      -0.00770529 Ry
     correction to one-el term =     -39.82655255 Ry

     iteration # 19     ecut=    80.00 Ry     beta= 0.20
     Davidson diagonalization with overlap

---- Real-time Memory Report at c_bands before calling an iterative solver
           379 MiB given to the printing process from OS
             0 MiB allocation reported by mallinfo(arena+hblkhd)
        216366 MiB available memory on the node where the printing process lives
------------------
     ethr =  3.69E-10,  avg # of iterations = 15.0

     negative rho (up, down):  3.994E-04 0.000E+00

     add environment contribution to local potential

     total cpu time spent up to now is      682.5 secs

     total energy              =    -481.24951216 Ry
     estimated scf accuracy    <       0.00000025 Ry

     total charge of GC-SCF    =       1.33888799 e
     the Fermi energy          =      -3.40299028 eV
                        (error :       0.00100972 eV)
     electrostatic embedding   =      -0.30132585 Ry
     cavitation energy         =       0.01925905 Ry
     electrolyte free energy   =      -0.00770326 Ry
     correction to one-el term =     -39.81538028 Ry

     iteration # 20     ecut=    80.00 Ry     beta= 0.20
     Davidson diagonalization with overlap

---- Real-time Memory Report at c_bands before calling an iterative solver
           379 MiB given to the printing process from OS
             0 MiB allocation reported by mallinfo(arena+hblkhd)
        216371 MiB available memory on the node where the printing process lives
------------------
     ethr =  2.66E-10,  avg # of iterations = 15.5

     negative rho (up, down):  3.754E-04 0.000E+00

     total cpu time spent up to now is      705.4 secs

     End of self-consistent calculation

          k = 0.0000 0.0000 0.0000 (201165 PWs)   bands (ev):

   -50.8290 -50.8289 -50.8275 -50.8275 -50.8275 -50.8274 -50.8262 -50.8261
   -49.9204 -49.9182 -49.9082 -49.9080 -49.9079 -49.9079 -49.9079 -49.9064
   -49.9064 -49.9057 -49.9056 -49.9054 -49.9054 -49.9042 -49.9039 -49.9024
   -49.8988 -49.8988 -49.8987 -49.8987 -49.8973 -49.8972 -49.8957 -49.8885
    -6.8544  -6.4969  -5.8929  -5.0519  -4.4463  -4.4463  -4.4463  -4.4463
    -4.1235  -4.1235  -4.1235  -4.1235  -3.9880  -3.6125  -3.6125  -3.6125
    -3.6125  -3.0746  -3.0746  -3.0746  -3.0746  -3.0039  -3.0039  -2.8376
    -2.5451  -2.5451  -1.8406  -1.7545  -1.7545  -0.8273  -0.7340  -0.7340
    -0.4566  -0.4566  -0.4566  -0.4566  -0.1879  -0.1735  -0.1735  -0.1186

     occupation numbers 
     1.0000   1.0000   1.0000   1.0000   1.0000   1.0000   1.0000   1.0000
     1.0000   1.0000   1.0000   1.0000   1.0000   1.0000   1.0000   1.0000
     1.0000   1.0000   1.0000   1.0000   1.0000   1.0000   1.0000   1.0000
     1.0000   1.0000   1.0000   1.0000   1.0000   1.0000   1.0000   1.0000
     1.0000   1.0000   1.0000   1.0000   1.0000   1.0000   1.0000   1.0000
     1.0000   1.0000   1.0000   1.0000   1.0000   1.0801   1.0801   1.0802
     1.0802   0.0000   0.0000   0.0000   0.0000   0.0000   0.0000   0.0000
     0.0000   0.0000   0.0000   0.0000   0.0000   0.0000   0.0000   0.0000
     0.0000   0.0000   0.0000   0.0000   0.0000   0.0000   0.0000   0.0000

          k = 0.0000 0.1000 0.0000 (201189 PWs)   bands (ev):

   -50.8289 -50.8289 -50.8276 -50.8275 -50.8275 -50.8274 -50.8262 -50.8261
   -49.9202 -49.9180 -49.9087 -49.9086 -49.9081 -49.9079 -49.9078 -49.9065
   -49.9064 -49.9057 -49.9054 -49.9053 -49.9050 -49.9042 -49.9039 -49.9024
   -49.8996 -49.8988 -49.8987 -49.8975 -49.8974 -49.8972 -49.8958 -49.8887
    -6.8307  -6.4733  -5.8692  -5.0287  -4.9079  -4.5717  -4.4237  -4.4237
    -4.0995  -4.0995  -4.0296  -3.9655  -3.9313  -3.6153  -3.5858  -3.5857
    -3.4145  -3.1083  -3.0695  -3.0695  -3.0449  -3.0449  -2.9316  -2.8153
    -2.6216  -2.6216  -1.8586  -1.8586  -1.8174  -0.9180  -0.9180  -0.8039
    -0.5466  -0.4439  -0.4439  -0.3372  -0.1572  -0.0580  -0.0579  -0.0511

     occupation numbers 
     1.0000   1.0000   1.0000   1.0000   1.0000   1.0000   1.0000   1.0000
     1.0000   1.0000   1.0000   1.0000   1.0000   1.0000   1.0000   1.0000
     1.0000   1.0000   1.0000   1.0000   1.0000   1.0000   1.0000   1.0000
     1.0000   1.0000   1.0000   1.0000   1.0000   1.0000   1.0000   1.0000
     1.0000   1.0000   1.0000   1.0000   1.0000   1.0000   1.0000   1.0000
     1.0000   1.0000   1.0000   1.0000   1.0000   1.0791   1.0819   1.0819
     0.4572   0.0001   0.0000   0.0000   0.0000   0.0000   0.0000   0.0000
     0.0000   0.0000   0.0000   0.0000   0.0000   0.0000   0.0000   0.0000
     0.0000   0.0000   0.0000   0.0000   0.0000   0.0000   0.0000   0.0000

          k = 0.0000 0.2000 0.0000 (201099 PWs)   bands (ev):

   -50.8288 -50.8288 -50.8277 -50.8276 -50.8274 -50.8273 -50.8263 -50.8262
   -49.9196 -49.9176 -49.9102 -49.9099 -49.9079 -49.9078 -49.9077 -49.9066
   -49.9065 -49.9055 -49.9053 -49.9051 -49.9043 -49.9043 -49.9041 -49.9024
   -49.8997 -49.8987 -49.8986 -49.8975 -49.8973 -49.8961 -49.8960 -49.8891
    -6.7596  -6.4021  -5.7982  -5.3204  -4.9750  -4.9591  -4.4022  -4.3565
    -4.3565  -4.0280  -4.0280  -3.8984  -3.6822  -3.5060  -3.5059  -3.3579
    -3.2389  -3.2389  -3.1206  -2.9560  -2.9560  -2.9030  -2.8151  -2.8151
    -2.7503  -2.7480  -2.1061  -2.1061  -1.7510  -1.2821  -1.2821  -0.7389
    -0.4658  -0.4331  -0.4071  -0.4071  -0.0673   0.0218   0.0218   0.0411

     occupation numbers 
     1.0000   1.0000   1.0000   1.0000   1.0000   1.0000   1.0000   1.0000
     1.0000   1.0000   1.0000   1.0000   1.0000   1.0000   1.0000   1.0000
     1.0000   1.0000   1.0000   1.0000   1.0000   1.0000   1.0000   1.0000
     1.0000   1.0000   1.0000   1.0000   1.0000   1.0000   1.0000   1.0000
     1.0000   1.0000   1.0000   1.0000   1.0000   1.0000   1.0000   1.0000
     1.0000   1.0000   1.0000   1.0001   1.0371   0.9239   0.9239   0.2046
     0.0135   0.0135   0.0002   0.0000   0.0000   0.0000   0.0000   0.0000
     0.0000   0.0000   0.0000   0.0000   0.0000   0.0000   0.0000   0.0000
     0.0000   0.0000   0.0000   0.0000   0.0000   0.0000   0.0000   0.0000

          k = 0.0000 0.3000 0.0000 (201139 PWs)   bands (ev):

   -50.8287 -50.8286 -50.8278 -50.8277 -50.8272 -50.8272 -50.8264 -50.8264
   -49.9186 -49.9168 -49.9121 -49.9115 -49.9076 -49.9076 -49.9075 -49.9067
   -49.9067 -49.9054 -49.9053 -49.9051 -49.9045 -49.9042 -49.9037 -49.9025
   -49.8993 -49.8985 -49.8984 -49.8976 -49.8975 -49.8965 -49.8945 -49.8897
    -6.6408  -6.2835  -5.6829  -5.6799  -5.3320  -4.8439  -4.7444  -4.2460
    -4.2460  -3.9691  -3.9101  -3.9101  -3.7887  -3.4597  -3.4597  -3.3742
    -3.3742  -3.0856  -3.0609  -3.0609  -2.8084  -2.8084  -2.7492  -2.6478
    -2.5123  -2.4543  -2.4032  -2.4032  -1.6686  -1.6686  -1.6542  -0.6635
    -0.5127  -0.3622  -0.3492  -0.3491  -0.0312  -0.0312   0.0590   0.1592

     occupation numbers 
     1.0000   1.0000   1.0000   1.0000   1.0000   1.0000   1.0000   1.0000
     1.0000   1.0000   1.0000   1.0000   1.0000   1.0000   1.0000   1.0000
     1.0000   1.0000   1.0000   1.0000   1.0000   1.0000   1.0000   1.0000
     1.0000   1.0000   1.0000   1.0000   1.0000   1.0000   1.0000   1.0000
     1.0000   1.0000   1.0000   1.0000   1.0000   1.0000   1.0000   1.0000
     1.0000   1.0000   1.0000   1.0000   1.0031   0.7047   0.7047   0.2662
     0.2661   0.0000   0.0000   0.0000   0.0000   0.0000   0.0000   0.0000
     0.0000   0.0000   0.0000   0.0000   0.0000   0.0000   0.0000   0.0000
     0.0000   0.0000   0.0000   0.0000   0.0000   0.0000   0.0000   0.0000

          k = 0.0000 0.4000 0.0000 (201125 PWs)   bands (ev):

   -50.8285 -50.8284 -50.8280 -50.8280 -50.8271 -50.8270 -50.8266 -50.8266
   -49.9173 -49.9157 -49.9139 -49.9130 -49.9074 -49.9074 -49.9070 -49.9070
   -49.9069 -49.9058 -49.9052 -49.9049 -49.9047 -49.9044 -49.9032 -49.9027
   -49.8985 -49.8983 -49.8982 -49.8978 -49.8977 -49.8970 -49.8931 -49.8906
    -6.4742  -6.1173  -5.9957  -5.6416  -5.5147  -5.0457  -4.6842  -4.2414
    -4.0946  -4.0946  -3.7484  -3.7483  -3.6907  -3.6907  -3.6404  -3.3133
    -3.3133  -3.2657  -3.1926  -3.1926  -2.6977  -2.6976  -2.6030  -2.6029
    -2.5208  -2.3454  -2.0909  -2.0276  -2.0276  -1.9914  -1.5698  -0.7998
    -0.4363  -0.4080  -0.2752  -0.2752  -0.1966  -0.1077  -0.1076  -0.0713

     occupation numbers 
     1.0000   1.0000   1.0000   1.0000   1.0000   1.0000   1.0000   1.0000
     1.0000   1.0000   1.0000   1.0000   1.0000   1.0000   1.0000   1.0000
     1.0000   1.0000   1.0000   1.0000   1.0000   1.0000   1.0000   1.0000
     1.0000   1.0000   1.0000   1.0000   1.0000   1.0000   1.0000   1.0000
     1.0000   1.0000   1.0000   1.0000   1.0000   1.0000   1.0000   1.0000
     1.0000   1.0000   1.0093   1.0093   1.0321   1.0321   1.0651   0.0874
     0.0874   0.0282   0.0031   0.0031   0.0000   0.0000   0.0000   0.0000
     0.0000   0.0000   0.0000   0.0000   0.0000   0.0000   0.0000   0.0000
     0.0000   0.0000   0.0000   0.0000   0.0000   0.0000   0.0000   0.0000

          k = 0.0000-0.5000 0.0000 (201080 PWs)   bands (ev):

   -50.8282 -50.8282 -50.8282 -50.8282 -50.8268 -50.8268 -50.8268 -50.8268
   -49.9157 -49.9157 -49.9144 -49.9144 -49.9072 -49.9072 -49.9071 -49.9071
   -49.9064 -49.9064 -49.9050 -49.9049 -49.9047 -49.9047 -49.9029 -49.9029
   -49.8981 -49.8981 -49.8980 -49.8979 -49.8978 -49.8977 -49.8918 -49.8917
    -6.2593  -6.2593  -5.9034  -5.9034  -5.3030  -5.3030  -4.4821  -4.4821
    -3.9069  -3.9069  -3.9069  -3.9069  -3.5470  -3.5469  -3.5469  -3.5469
    -3.4612  -3.4612  -2.9649  -2.9649  -2.9649  -2.9649  -2.3985  -2.3985
    -2.3415  -2.3415  -2.3415  -2.3415  -1.6316  -1.6316  -1.4065  -1.4065
    -0.3950  -0.3950  -0.2649  -0.2649  -0.1921  -0.1920  -0.1920  -0.1920

     occupation numbers 
     1.0000   1.0000   1.0000   1.0000   1.0000   1.0000   1.0000   1.0000
     1.0000   1.0000   1.0000   1.0000   1.0000   1.0000   1.0000   1.0000
     1.0000   1.0000   1.0000   1.0000   1.0000   1.0000   1.0000   1.0000
     1.0000   1.0000   1.0000   1.0000   1.0000   1.0000   1.0000   1.0000
     1.0000   1.0000   1.0000   1.0000   1.0000   1.0000   1.0000   1.0000
     1.0000   1.0000   1.0000   1.0000   1.0419   1.0419   1.0419   1.0419
     0.7124   0.7124   0.0000   0.0000   0.0000   0.0000   0.0000   0.0000
     0.0000   0.0000   0.0000   0.0000   0.0000   0.0000   0.0000   0.0000
     0.0000   0.0000   0.0000   0.0000   0.0000   0.0000   0.0000   0.0000

          k = 0.1000 0.1000 0.0000 (201192 PWs)   bands (ev):

   -50.8289 -50.8288 -50.8275 -50.8275 -50.8275 -50.8274 -50.8262 -50.8261
   -49.9200 -49.9179 -49.9086 -49.9086 -49.9085 -49.9085 -49.9081 -49.9065
   -49.9065 -49.9053 -49.9053 -49.9050 -49.9050 -49.9042 -49.9040 -49.9024
   -49.8995 -49.8995 -49.8975 -49.8975 -49.8975 -49.8972 -49.8959 -49.8888
    -6.8070  -6.4496  -5.8455  -5.0053  -4.8850  -4.8850  -4.5478  -4.5478
    -4.0037  -4.0037  -3.9428  -3.9093  -3.9093  -3.5913  -3.5913  -3.3858
    -3.3858  -3.2972  -3.0810  -3.0810  -2.9416  -2.9008  -2.9008  -2.8710
    -2.7930  -2.4828  -2.1539  -1.7940  -1.6924  -1.2772  -0.7801  -0.6720
    -0.5359  -0.5359  -0.4265  -0.3215  -0.3215  -0.1386  -0.1266  -0.0679

     occupation numbers 
     1.0000   1.0000   1.0000   1.0000   1.0000   1.0000   1.0000   1.0000
     1.0000   1.0000   1.0000   1.0000   1.0000   1.0000   1.0000   1.0000
     1.0000   1.0000   1.0000   1.0000   1.0000   1.0000   1.0000   1.0000
     1.0000   1.0000   1.0000   1.0000   1.0000   1.0000   1.0000   1.0000
     1.0000   1.0000   1.0000   1.0000   1.0000   1.0000   1.0000   1.0000
     1.0000   1.0000   1.0000   1.0000   1.0000   1.0830   1.0830   0.3160
     0.3160   0.0611   0.0000   0.0000   0.0000   0.0000   0.0000   0.0000
     0.0000   0.0000   0.0000   0.0000   0.0000   0.0000   0.0000   0.0000
     0.0000   0.0000   0.0000   0.0000   0.0000   0.0000   0.0000   0.0000

          k = 0.1000 0.2000 0.0000 (201095 PWs)   bands (ev):

   -50.8288 -50.8287 -50.8276 -50.8276 -50.8274 -50.8274 -50.8263 -50.8262
   -49.9194 -49.9174 -49.9102 -49.9099 -49.9085 -49.9084 -49.9078 -49.9067
   -49.9066 -49.9052 -49.9050 -49.9049 -49.9043 -49.9043 -49.9040 -49.9024
   -49.8997 -49.8994 -49.8978 -49.8974 -49.8971 -49.8961 -49.8961 -49.8892
    -6.7359  -6.3784  -5.7744  -5.2972  -4.9510  -4.9356  -4.8165  -4.4762
    -4.3769  -3.9262  -3.8754  -3.8440  -3.6549  -3.5710  -3.5200  -3.3367
    -3.2999  -3.1659  -3.0950  -2.9994  -2.9473  -2.8741  -2.8083  -2.7273
    -2.7188  -2.5130  -2.4763  -1.7604  -1.7266  -1.6430  -0.9958  -0.7135
    -0.5055  -0.4535  -0.4203  -0.4046  -0.2757  -0.0849  -0.0364   0.0236

     occupation numbers 
     1.0000   1.0000   1.0000   1.0000   1.0000   1.0000   1.0000   1.0000
     1.0000   1.0000   1.0000   1.0000   1.0000   1.0000   1.0000   1.0000
     1.0000   1.0000   1.0000   1.0000   1.0000   1.0000   1.0000   1.0000
     1.0000   1.0000   1.0000   1.0000   1.0000   1.0000   1.0000   1.0000
     1.0000   1.0000   1.0000   1.0000   1.0000   1.0000   1.0000   1.0000
     1.0000   1.0000   1.0001   1.0005   1.0553   1.0738   0.9735   0.1399
     0.0650   0.0012   0.0001   0.0000   0.0000   0.0000   0.0000   0.0000
     0.0000   0.0000   0.0000   0.0000   0.0000   0.0000   0.0000   0.0000
     0.0000   0.0000   0.0000   0.0000   0.0000   0.0000   0.0000   0.0000

          k = 0.1000 0.3000 0.0000 (201150 PWs)   bands (ev):

   -50.8286 -50.8286 -50.8278 -50.8277 -50.8273 -50.8272 -50.8265 -50.8264
   -49.9184 -49.9166 -49.9120 -49.9114 -49.9082 -49.9082 -49.9074 -49.9069
   -49.9069 -49.9052 -49.9051 -49.9048 -49.9044 -49.9041 -49.9037 -49.9025
   -49.8993 -49.8992 -49.8980 -49.8974 -49.8971 -49.8965 -49.8946 -49.8898
    -6.6171  -6.2598  -5.6594  -5.6560  -5.3081  -4.8201  -4.7195  -4.7031
    -4.3578  -3.9429  -3.8512  -3.7979  -3.7651  -3.7377  -3.4637  -3.4033
    -3.1575  -3.0638  -3.0568  -2.8651  -2.8235  -2.7290  -2.6544  -2.6404
    -2.6238  -2.4873  -2.4234  -2.0715  -1.9188  -1.6281  -1.4356  -0.6347
    -0.5026  -0.4596  -0.3454  -0.3296  -0.2035   0.0177   0.0905   0.1867

     occupation numbers 
     1.0000   1.0000   1.0000   1.0000   1.0000   1.0000   1.0000   1.0000
     1.0000   1.0000   1.0000   1.0000   1.0000   1.0000   1.0000   1.0000
     1.0000   1.0000   1.0000   1.0000   1.0000   1.0000   1.0000   1.0000
     1.0000   1.0000   1.0000   1.0000   1.0000   1.0000   1.0000   1.0000
     1.0000   1.0000   1.0000   1.0000   1.0000   1.0000   1.0000   1.0000
     1.0000   1.0000   1.0004   1.0023   1.0060   1.0120   0.7259   0.3997
     0.0009   0.0000   0.0000   0.0000   0.0000   0.0000   0.0000   0.0000
     0.0000   0.0000   0.0000   0.0000   0.0000   0.0000   0.0000   0.0000
     0.0000   0.0000   0.0000   0.0000   0.0000   0.0000   0.0000   0.0000

          k = 0.1000 0.4000 0.0000 (201132 PWs)   bands (ev):

   -50.8284 -50.8284 -50.8280 -50.8279 -50.8271 -50.8270 -50.8267 -50.8266
   -49.9171 -49.9156 -49.9138 -49.9129 -49.9079 -49.9079 -49.9073 -49.9072
   -49.9069 -49.9058 -49.9049 -49.9046 -49.9046 -49.9043 -49.9032 -49.9027
   -49.8990 -49.8986 -49.8983 -49.8973 -49.8971 -49.8971 -49.8931 -49.8907
    -6.4505  -6.0935  -5.9721  -5.6177  -5.4906  -5.0212  -4.6600  -4.5465
    -4.2161  -4.1940  -4.1148  -3.7415  -3.6203  -3.6161  -3.5946  -3.2455
    -3.2387  -3.2371  -3.1279  -2.9598  -2.8434  -2.6809  -2.4951  -2.4393
    -2.4097  -2.3149  -2.1909  -2.0717  -1.9638  -1.8280  -1.5406  -0.7736
    -0.4235  -0.4058  -0.3946  -0.3223  -0.1860  -0.1128  -0.0533   0.0439

     occupation numbers 
     1.0000   1.0000   1.0000   1.0000   1.0000   1.0000   1.0000   1.0000
     1.0000   1.0000   1.0000   1.0000   1.0000   1.0000   1.0000   1.0000
     1.0000   1.0000   1.0000   1.0000   1.0000   1.0000   1.0000   1.0000
     1.0000   1.0000   1.0000   1.0000   1.0000   1.0000   1.0000   1.0000
     1.0000   1.0000   1.0000   1.0000   1.0000   1.0000   1.0000   1.0000
     1.0000   1.0000   1.0000   1.0110   1.0768   1.0788   1.0833   0.0163
     0.0134   0.0128   0.0003   0.0000   0.0000   0.0000   0.0000   0.0000
     0.0000   0.0000   0.0000   0.0000   0.0000   0.0000   0.0000   0.0000
     0.0000   0.0000   0.0000   0.0000   0.0000   0.0000   0.0000   0.0000

          k = 0.1000-0.5000 0.0000 (201002 PWs)   bands (ev):

   -50.8282 -50.8282 -50.8281 -50.8281 -50.8269 -50.8269 -50.8268 -50.8268
   -49.9156 -49.9156 -49.9143 -49.9143 -49.9076 -49.9076 -49.9075 -49.9075
   -49.9064 -49.9063 -49.9047 -49.9047 -49.9044 -49.9044 -49.9029 -49.9029
   -49.8987 -49.8986 -49.8978 -49.8978 -49.8972 -49.8972 -49.8918 -49.8918
    -6.2356  -6.2356  -5.8795  -5.8795  -5.2787  -5.2787  -4.4575  -4.4575
    -4.3489  -4.3489  -3.9873  -3.9873  -3.4357  -3.4357  -3.4229  -3.4229
    -3.3957  -3.3957  -3.0542  -3.0542  -2.7091  -2.7091  -2.4524  -2.4524
    -2.3705  -2.3705  -2.1634  -2.1634  -1.6006  -1.6006  -1.3873  -1.3873
    -0.3866  -0.3866  -0.3550  -0.3550  -0.2444  -0.2444  -0.0190  -0.0190

     occupation numbers 
     1.0000   1.0000   1.0000   1.0000   1.0000   1.0000   1.0000   1.0000
     1.0000   1.0000   1.0000   1.0000   1.0000   1.0000   1.0000   1.0000
     1.0000   1.0000   1.0000   1.0000   1.0000   1.0000   1.0000   1.0000
     1.0000   1.0000   1.0000   1.0000   1.0000   1.0000   1.0000   1.0000
     1.0000   1.0000   1.0000   1.0000   1.0000   1.0000   1.0000   1.0000
     1.0000   1.0000   1.0000   1.0000   0.5725   0.5724   0.5023   0.5022
     0.3621   0.3621   0.0000   0.0000   0.0000   0.0000   0.0000   0.0000
     0.0000   0.0000   0.0000   0.0000   0.0000   0.0000   0.0000   0.0000
     0.0000   0.0000   0.0000   0.0000   0.0000   0.0000   0.0000   0.0000

          k = 0.2000 0.2000 0.0000 (201180 PWs)   bands (ev):

   -50.8287 -50.8286 -50.8275 -50.8275 -50.8275 -50.8275 -50.8264 -50.8263
   -49.9188 -49.9169 -49.9100 -49.9099 -49.9097 -49.9097 -49.9076 -49.9070
   -49.9070 -49.9049 -49.9049 -49.9043 -49.9042 -49.9042 -49.9040 -49.9025
   -49.8996 -49.8996 -49.8981 -49.8968 -49.8964 -49.8961 -49.8961 -49.8896
    -6.6648  -6.3072  -5.7030  -5.2277  -5.2277  -4.8794  -4.8794  -4.8654
    -4.3011  -4.3011  -3.9050  -3.8070  -3.5734  -3.5734  -3.5141  -3.2741
    -3.2741  -3.0191  -3.0191  -2.8593  -2.7874  -2.7874  -2.7547  -2.6599
    -2.6316  -2.6316  -2.2962  -2.0365  -1.6562  -1.5061  -1.1097  -0.6415
    -0.4864  -0.4188  -0.4188  -0.3912  -0.3851  -0.3851  -0.1169  -0.0680

     occupation numbers 
     1.0000   1.0000   1.0000   1.0000   1.0000   1.0000   1.0000   1.0000
     1.0000   1.0000   1.0000   1.0000   1.0000   1.0000   1.0000   1.0000
     1.0000   1.0000   1.0000   1.0000   1.0000   1.0000   1.0000   1.0000
     1.0000   1.0000   1.0000   1.0000   1.0000   1.0000   1.0000   1.0000
     1.0000   1.0000   1.0000   1.0000   1.0000   1.0000   1.0000   1.0000
     1.0000   1.0000   1.0000   1.0017   1.0756   1.0756   0.9538   0.0350
     0.0350   0.0000   0.0000   0.0000   0.0000   0.0000   0.0000   0.0000
     0.0000   0.0000   0.0000   0.0000   0.0000   0.0000   0.0000   0.0000
     0.0000   0.0000   0.0000   0.0000   0.0000   0.0000   0.0000   0.0000

          k = 0.2000 0.3000 0.0000 (201109 PWs)   bands (ev):

   -50.8285 -50.8285 -50.8277 -50.8276 -50.8274 -50.8273 -50.8266 -50.8265
   -49.9179 -49.9162 -49.9117 -49.9111 -49.9096 -49.9093 -49.9075 -49.9074
   -49.9072 -49.9051 -49.9048 -49.9043 -49.9042 -49.9040 -49.9036 -49.9026
   -49.8995 -49.8993 -49.8984 -49.8967 -49.8966 -49.8961 -49.8947 -49.8902
    -6.5460  -6.1885  -5.5893  -5.5843  -5.2365  -5.1124  -4.7605  -4.7491
    -4.6450  -4.2194  -4.1755  -3.8646  -3.8397  -3.6951  -3.4383  -3.2036
    -3.1739  -2.9706  -2.8968  -2.7043  -2.6701  -2.6425  -2.5531  -2.4876
    -2.4138  -2.3948  -2.3307  -2.2623  -1.5517  -1.5360  -1.4917  -0.5503
    -0.4772  -0.4530  -0.3686  -0.3507  -0.3371  -0.2980  -0.0617   0.0695

     occupation numbers 
     1.0000   1.0000   1.0000   1.0000   1.0000   1.0000   1.0000   1.0000
     1.0000   1.0000   1.0000   1.0000   1.0000   1.0000   1.0000   1.0000
     1.0000   1.0000   1.0000   1.0000   1.0000   1.0000   1.0000   1.0000
     1.0000   1.0000   1.0000   1.0000   1.0000   1.0000   1.0000   1.0000
     1.0000   1.0000   1.0000   1.0000   1.0000   1.0000   1.0000   1.0000
     1.0000   1.0000   1.0000   1.0002   1.0006   1.0296   0.5871   0.0045
     0.0016   0.0000   0.0000   0.0000   0.0000   0.0000   0.0000   0.0000
     0.0000   0.0000   0.0000   0.0000   0.0000   0.0000   0.0000   0.0000
     0.0000   0.0000   0.0000   0.0000   0.0000   0.0000   0.0000   0.0000

          k = 0.2000 0.4000 0.0000 (201067 PWs)   bands (ev):

   -50.8283 -50.8283 -50.8279 -50.8278 -50.8272 -50.8271 -50.8268 -50.8267
   -49.9166 -49.9152 -49.9134 -49.9126 -49.9091 -49.9089 -49.9080 -49.9079
   -49.9067 -49.9056 -49.9046 -49.9044 -49.9041 -49.9040 -49.9032 -49.9027
   -49.8993 -49.8988 -49.8986 -49.8973 -49.8964 -49.8962 -49.8933 -49.8910
    -6.3795  -6.0221  -5.9015  -5.5461  -5.4184  -4.9520  -4.9476  -4.5953
    -4.5879  -4.5025  -4.1404  -4.1320  -4.0010  -3.5435  -3.5121  -3.2514
    -3.1581  -3.0434  -2.7840  -2.7361  -2.7114  -2.4392  -2.4193  -2.3744
    -2.2897  -2.2238  -2.0172  -1.8823  -1.8594  -1.7724  -1.4541  -0.7007
    -0.3920  -0.3607  -0.3578  -0.3150  -0.2960  -0.2790  -0.1691  -0.0162

     occupation numbers 
     1.0000   1.0000   1.0000   1.0000   1.0000   1.0000   1.0000   1.0000
     1.0000   1.0000   1.0000   1.0000   1.0000   1.0000   1.0000   1.0000
     1.0000   1.0000   1.0000   1.0000   1.0000   1.0000   1.0000   1.0000
     1.0000   1.0000   1.0000   1.0000   1.0000   1.0000   1.0000   1.0000
     1.0000   1.0000   1.0000   1.0000   1.0000   1.0000   1.0000   1.0000
     1.0000   1.0000   1.0000   1.0000   1.0000   1.0352   0.9468   0.0192
     0.0009   0.0000   0.0000   0.0000   0.0000   0.0000   0.0000   0.0000
     0.0000   0.0000   0.0000   0.0000   0.0000   0.0000   0.0000   0.0000
     0.0000   0.0000   0.0000   0.0000   0.0000   0.0000   0.0000   0.0000

          k = 0.2000-0.5000 0.0000 (201048 PWs)   bands (ev):

   -50.8281 -50.8281 -50.8280 -50.8280 -50.8270 -50.8270 -50.8269 -50.8269
   -49.9151 -49.9151 -49.9139 -49.9139 -49.9086 -49.9086 -49.9084 -49.9084
   -49.9062 -49.9062 -49.9045 -49.9045 -49.9040 -49.9040 -49.9029 -49.9029
   -49.8990 -49.8990 -49.8979 -49.8979 -49.8963 -49.8963 -49.8921 -49.8920
    -6.1648  -6.1648  -5.8080  -5.8080  -5.2059  -5.2059  -4.7479  -4.7479
    -4.3851  -4.3851  -4.3838  -4.3838  -3.7790  -3.7790  -3.3597  -3.3597
    -3.0162  -3.0162  -2.8958  -2.8957  -2.5519  -2.5519  -2.2873  -2.2873
    -2.1775  -2.1775  -2.0450  -2.0450  -1.5076  -1.5076  -1.3353  -1.3353
    -0.3745  -0.3744  -0.2932  -0.2932  -0.2767  -0.2767  -0.1882  -0.1882

     occupation numbers 
     1.0000   1.0000   1.0000   1.0000   1.0000   1.0000   1.0000   1.0000
     1.0000   1.0000   1.0000   1.0000   1.0000   1.0000   1.0000   1.0000
     1.0000   1.0000   1.0000   1.0000   1.0000   1.0000   1.0000   1.0000
     1.0000   1.0000   1.0000   1.0000   1.0000   1.0000   1.0000   1.0000
     1.0000   1.0000   1.0000   1.0000   1.0000   1.0000   1.0000   1.0000
     1.0000   1.0000   1.0000   1.0000   1.0040   1.0040   0.2111   0.2110
     0.0000   0.0000   0.0000   0.0000   0.0000   0.0000   0.0000   0.0000
     0.0000   0.0000   0.0000   0.0000   0.0000   0.0000   0.0000   0.0000
     0.0000   0.0000   0.0000   0.0000   0.0000   0.0000   0.0000   0.0000

          k = 0.3000 0.3000 0.0000 (201060 PWs)   bands (ev):

   -50.8284 -50.8283 -50.8275 -50.8275 -50.8275 -50.8275 -50.8267 -50.8266
   -49.9170 -49.9155 -49.9112 -49.9112 -49.9107 -49.9107 -49.9082 -49.9080
   -49.9069 -49.9049 -49.9049 -49.9042 -49.9038 -49.9036 -49.9036 -49.9026
   -49.8992 -49.8992 -49.8987 -49.8971 -49.8961 -49.8948 -49.8948 -49.8907
    -6.4274  -6.0696  -5.4726  -5.4726  -5.4649  -5.1173  -5.1173  -4.6314
    -4.5538  -4.5212  -4.5212  -4.1806  -3.7349  -3.7349  -3.5803  -3.5534
    -2.8279  -2.8279  -2.7398  -2.5790  -2.5790  -2.4438  -2.4404  -2.2966
    -2.2966  -2.1765  -2.1765  -1.9856  -1.7689  -1.4350  -1.1962  -0.8468
    -0.4529  -0.4529  -0.4246  -0.2673  -0.2314  -0.2314  -0.1776  -0.0154

     occupation numbers 
     1.0000   1.0000   1.0000   1.0000   1.0000   1.0000   1.0000   1.0000
     1.0000   1.0000   1.0000   1.0000   1.0000   1.0000   1.0000   1.0000
     1.0000   1.0000   1.0000   1.0000   1.0000   1.0000   1.0000   1.0000
     1.0000   1.0000   1.0000   1.0000   1.0000   1.0000   1.0000   1.0000
     1.0000   1.0000   1.0000   1.0000   1.0000   1.0000   1.0000   1.0000
     1.0000   1.0000   1.0000   1.0000   1.0129   1.0129   1.0798   1.0530
     0.0000   0.0000   0.0000   0.0000   0.0000   0.0000   0.0000   0.0000
     0.0000   0.0000   0.0000   0.0000   0.0000   0.0000   0.0000   0.0000
     0.0000   0.0000   0.0000   0.0000   0.0000   0.0000   0.0000   0.0000

          k = 0.3000 0.4000 0.0000 (200978 PWs)   bands (ev):

   -50.8282 -50.8281 -50.8277 -50.8277 -50.8273 -50.8273 -50.8269 -50.8268
   -49.9158 -49.9145 -49.9128 -49.9121 -49.9105 -49.9101 -49.9090 -49.9088
   -49.9064 -49.9053 -49.9047 -49.9043 -49.9037 -49.9036 -49.9032 -49.9027
   -49.8992 -49.8990 -49.8987 -49.8976 -49.8957 -49.8950 -49.8936 -49.8915
    -6.2610  -5.9030  -5.7839  -5.4269  -5.3097  -5.2982  -4.9512  -4.8489
    -4.8252  -4.4813  -4.4683  -4.3488  -4.0150  -3.8630  -3.5550  -3.4244
    -3.0533  -3.0252  -2.6303  -2.4698  -2.3397  -2.2973  -2.1472  -2.0894
    -2.0727  -1.9615  -1.9391  -1.9021  -1.7524  -1.3661  -1.3151  -0.7463
    -0.6244  -0.4617  -0.3680  -0.3303  -0.2626  -0.1923  -0.1715  -0.0526

     occupation numbers 
     1.0000   1.0000   1.0000   1.0000   1.0000   1.0000   1.0000   1.0000
     1.0000   1.0000   1.0000   1.0000   1.0000   1.0000   1.0000   1.0000
     1.0000   1.0000   1.0000   1.0000   1.0000   1.0000   1.0000   1.0000
     1.0000   1.0000   1.0000   1.0000   1.0000   1.0000   1.0000   1.0000
     1.0000   1.0000   1.0000   1.0000   1.0000   1.0000   1.0000   1.0000
     1.0000   1.0000   1.0000   1.0000   1.0000   1.0002   1.0554   0.5106
     0.0000   0.0000   0.0000   0.0000   0.0000   0.0000   0.0000   0.0000
     0.0000   0.0000   0.0000   0.0000   0.0000   0.0000   0.0000   0.0000
     0.0000   0.0000   0.0000   0.0000   0.0000   0.0000   0.0000   0.0000

          k = 0.3000-0.5000 0.0000 (201006 PWs)   bands (ev):

   -50.8280 -50.8280 -50.8279 -50.8279 -50.8271 -50.8271 -50.8271 -50.8271
   -49.9144 -49.9144 -49.9133 -49.9133 -49.9098 -49.9098 -49.9095 -49.9095
   -49.9059 -49.9059 -49.9045 -49.9045 -49.9036 -49.9036 -49.9029 -49.9029
   -49.8991 -49.8991 -49.8981 -49.8981 -49.8954 -49.8953 -49.8925 -49.8924
    -6.0466  -6.0466  -5.6888  -5.6888  -5.1015  -5.1015  -5.0847  -5.0847
    -4.7388  -4.7388  -4.2616  -4.2616  -4.1288  -4.1288  -3.3267  -3.3267
    -3.2347  -3.2347  -2.3815  -2.3815  -2.3718  -2.3718  -2.1515  -2.1515
    -1.9935  -1.9935  -1.6877  -1.6877  -1.3533  -1.3533  -1.2739  -1.2739
    -0.5498  -0.5498  -0.4086  -0.4086  -0.1728  -0.1728  -0.1165  -0.1165

     occupation numbers 
     1.0000   1.0000   1.0000   1.0000   1.0000   1.0000   1.0000   1.0000
     1.0000   1.0000   1.0000   1.0000   1.0000   1.0000   1.0000   1.0000
     1.0000   1.0000   1.0000   1.0000   1.0000   1.0000   1.0000   1.0000
     1.0000   1.0000   1.0000   1.0000   1.0000   1.0000   1.0000   1.0000
     1.0000   1.0000   1.0000   1.0000   1.0000   1.0000   1.0000   1.0000
     1.0000   1.0000   1.0000   1.0000   1.0000   1.0000   0.1153   0.1153
     0.0119   0.0119   0.0000   0.0000   0.0000   0.0000   0.0000   0.0000
     0.0000   0.0000   0.0000   0.0000   0.0000   0.0000   0.0000   0.0000
     0.0000   0.0000   0.0000   0.0000   0.0000   0.0000   0.0000   0.0000

          k = 0.4000 0.4000 0.0000 (200868 PWs)   bands (ev):

   -50.8280 -50.8279 -50.8275 -50.8275 -50.8275 -50.8275 -50.8271 -50.8270
   -49.9147 -49.9136 -49.9120 -49.9120 -49.9114 -49.9114 -49.9100 -49.9097
   -49.9060 -49.9050 -49.9050 -49.9044 -49.9035 -49.9033 -49.9032 -49.9028
   -49.8990 -49.8988 -49.8988 -49.8979 -49.8950 -49.8940 -49.8939 -49.8922
    -6.0950  -5.7364  -5.6195  -5.6195  -5.2603  -5.2603  -5.1513  -5.1305
    -4.7867  -4.6546  -4.6546  -4.3024  -4.1720  -3.8409  -3.8409  -3.3558
    -3.2623  -2.8426  -2.8426  -2.3541  -2.1388  -2.0096  -1.8704  -1.8704
    -1.8587  -1.8587  -1.5915  -1.5915  -1.5520  -1.3230  -1.1464  -0.7802
    -0.7635  -0.5103  -0.4041  -0.4041  -0.3552  -0.3552  -0.3243  -0.1704

     occupation numbers 
     1.0000   1.0000   1.0000   1.0000   1.0000   1.0000   1.0000   1.0000
     1.0000   1.0000   1.0000   1.0000   1.0000   1.0000   1.0000   1.0000
     1.0000   1.0000   1.0000   1.0000   1.0000   1.0000   1.0000   1.0000
     1.0000   1.0000   1.0000   1.0000   1.0000   1.0000   1.0000   1.0000
     1.0000   1.0000   1.0000   1.0000   1.0000   1.0000   1.0000   1.0000
     1.0000   1.0000   1.0000   1.0000   1.0000   1.0005   1.0005   0.1978
     0.0258   0.0000   0.0000   0.0000   0.0000   0.0000   0.0000   0.0000
     0.0000   0.0000   0.0000   0.0000   0.0000   0.0000   0.0000   0.0000
     0.0000   0.0000   0.0000   0.0000   0.0000   0.0000   0.0000   0.0000

          k = 0.4000-0.5000 0.0000 (200830 PWs)   bands (ev):

   -50.8278 -50.8278 -50.8277 -50.8277 -50.8273 -50.8273 -50.8273 -50.8272
   -49.9134 -49.9134 -49.9126 -49.9126 -49.9111 -49.9111 -49.9106 -49.9106
   -49.9055 -49.9055 -49.9047 -49.9047 -49.9033 -49.9033 -49.9030 -49.9030
   -49.8990 -49.8989 -49.8984 -49.8984 -49.8945 -49.8944 -49.8930 -49.8930
    -5.8812  -5.8812  -5.5221  -5.5221  -5.4085  -5.4085  -5.0467  -5.0467
    -4.9156  -4.9156  -4.4365  -4.4364  -4.0921  -4.0921  -3.6202  -3.6202
    -3.0639  -3.0639  -2.6153  -2.6153  -1.9698  -1.9698  -1.8595  -1.8595
    -1.6011  -1.6011  -1.4639  -1.4639  -1.2705  -1.2705  -1.1403  -1.1403
    -0.5835  -0.5835  -0.5160  -0.5160  -0.5034  -0.5034  -0.0755  -0.0755

     occupation numbers 
     1.0000   1.0000   1.0000   1.0000   1.0000   1.0000   1.0000   1.0000
     1.0000   1.0000   1.0000   1.0000   1.0000   1.0000   1.0000   1.0000
     1.0000   1.0000   1.0000   1.0000   1.0000   1.0000   1.0000   1.0000
     1.0000   1.0000   1.0000   1.0000   1.0000   1.0000   1.0000   1.0000
     1.0000   1.0000   1.0000   1.0000   1.0000   1.0000   1.0000   1.0000
     1.0000   1.0000   1.0000   1.0000   1.0000   1.0000   1.0769   1.0769
     0.0000   0.0000   0.0000   0.0000   0.0000   0.0000   0.0000   0.0000
     0.0000   0.0000   0.0000   0.0000   0.0000   0.0000   0.0000   0.0000
     0.0000   0.0000   0.0000   0.0000   0.0000   0.0000   0.0000   0.0000

          k =-0.5000-0.5000 0.0000 (200724 PWs)   bands (ev):

   -50.8275 -50.8275 -50.8275 -50.8275 -50.8275 -50.8275 -50.8275 -50.8275
   -49.9123 -49.9123 -49.9123 -49.9123 -49.9116 -49.9116 -49.9116 -49.9116
   -49.9051 -49.9051 -49.9051 -49.9051 -49.9031 -49.9031 -49.9031 -49.9031
   -49.8987 -49.8987 -49.8987 -49.8987 -49.8937 -49.8937 -49.8937 -49.8936
    -5.6684  -5.6684  -5.6684  -5.6684  -5.3079  -5.3079  -5.3079  -5.3079
    -4.6992  -4.6992  -4.6992  -4.6992  -3.8773  -3.8773  -3.8773  -3.8773
    -2.8532  -2.8532  -2.8532  -2.8532  -1.7621  -1.7621  -1.7621  -1.7621
    -1.4540  -1.4540  -1.4540  -1.4540  -0.9971  -0.9971  -0.9971  -0.9971
    -0.8215  -0.8215  -0.8215  -0.8215  -0.2100  -0.2100  -0.2100  -0.2100

     occupation numbers 
     1.0000   1.0000   1.0000   1.0000   1.0000   1.0000   1.0000   1.0000
     1.0000   1.0000   1.0000   1.0000   1.0000   1.0000   1.0000   1.0000
     1.0000   1.0000   1.0000   1.0000   1.0000   1.0000   1.0000   1.0000
     1.0000   1.0000   1.0000   1.0000   1.0000   1.0000   1.0000   1.0000
     1.0000   1.0000   1.0000   1.0000   1.0000   1.0000   1.0000   1.0000
     1.0000   1.0000   1.0000   1.0000   1.0001   1.0001   1.0001   1.0001
     0.0000   0.0000   0.0000   0.0000   0.0000   0.0000   0.0000   0.0000
     0.0000   0.0000   0.0000   0.0000   0.0000   0.0000   0.0000   0.0000
     0.0000   0.0000   0.0000   0.0000   0.0000   0.0000   0.0000   0.0000

     the Fermi energy is    -3.4035 ev

!    total energy              =    -481.24951061 Ry
     total all-electron energy =      -481.249771 Ry
     estimated scf accuracy    <       0.00000011 Ry

!    total charge of GC-SCF    =       1.33925748 e
     smearing contrib. (-TS)   =       0.00028164 Ry
     internal energy E=F+TS    =    -481.24979225 Ry

     The total energy is F=E-TS. E is the sum of the following terms:
     one-electron contribution =   -6389.02197482 Ry
     hartree contribution      =    3139.96504888 Ry
     xc contribution           =    -114.23756390 Ry
     ewald contribution        =    2919.65960992 Ry
     one-center paw contrib.   =       2.82351166 Ry
      -> PAW hartree energy AE =       7.52469015 Ry
      -> PAW hartree energy PS =      -7.30211845 Ry
      -> PAW xc energy AE      =      -3.50361865 Ry
      -> PAW xc energy PS      =       3.36923439 Ry
      -> total E_H with PAW    =    3140.18762058 Ry
      -> total E_XC with PAW   =    -114.37194816 Ry
     pot.stat. contrib. (-muN) =      -0.33506801 Ry
     electrostatic embedding   =      -0.30126705 Ry
     cavitation energy         =       0.01925905 Ry
     electrolyte free energy   =      -0.00770433 Ry
     correction to one-el term =     -39.81364366 Ry

     WARNING: you are using the parabolic pbc correction;
              the potential shift above must be added to 
              band and Fermi energies.

     convergence has been achieved in  20 iterations
     The dielectric solvent contribution to forces
     atom    1 type  1   force =     0.00000000    0.00000000   -0.04241474
     atom    2 type  1   force =    -0.00000005   -0.00000005   -0.04015468
     atom    3 type  1   force =    -0.00000000   -0.00000000   -0.00854465
     atom    4 type  1   force =     0.00000003    0.00000003   -0.02536195
     atom    5 type  1   force =     0.00000000    0.00000000    0.02536072
     atom    6 type  1   force =     0.00000004    0.00000004    0.00854335
     atom    7 type  1   force =     0.00000000    0.00000000    0.04015350
     atom    8 type  1   force =    -0.00000005   -0.00000005    0.04241338
     atom    9 type  1   force =     0.00000000   -0.00000000   -0.04241466
     atom   10 type  1   force =    -0.00000005    0.00000005   -0.04015468
     atom   11 type  1   force =    -0.00000000    0.00000000   -0.00854463
     atom   12 type  1   force =     0.00000003   -0.00000003   -0.02536195
     atom   13 type  1   force =     0.00000000   -0.00000000    0.02536094
     atom   14 type  1   force =     0.00000004   -0.00000004    0.00854335
     atom   15 type  1   force =     0.00000000   -0.00000000    0.04015393
     atom   16 type  1   force =    -0.00000005    0.00000005    0.04241338
     atom   17 type  1   force =    -0.00000000    0.00000000   -0.04241466
     atom   18 type  1   force =     0.00000005   -0.00000005   -0.04015468
     atom   19 type  1   force =     0.00000000   -0.00000000   -0.00854463
     atom   20 type  1   force =    -0.00000003    0.00000003   -0.02536195
     atom   21 type  1   force =    -0.00000000    0.00000000    0.02536094
     atom   22 type  1   force =    -0.00000004    0.00000004    0.00854335
     atom   23 type  1   force =    -0.00000000    0.00000000    0.04015393
     atom   24 type  1   force =     0.00000005   -0.00000005    0.04241338
     atom   25 type  1   force =    -0.00000000   -0.00000000   -0.04241454
     atom   26 type  1   force =     0.00000005    0.00000005   -0.04015468
     atom   27 type  1   force =     0.00000000    0.00000000   -0.00854450
     atom   28 type  1   force =    -0.00000003   -0.00000003   -0.02536195
     atom   29 type  1   force =    -0.00000000   -0.00000000    0.02536126
     atom   30 type  1   force =    -0.00000004   -0.00000004    0.00854335
     atom   31 type  1   force =    -0.00000000   -0.00000000    0.04015440
     atom   32 type  1   force =     0.00000005    0.00000005    0.04241338


     Forces acting on atoms (cartesian axes, Ry/au):

     atom    1 type  1   force =     0.00000000    0.00000000    0.00284875
     atom    2 type  1   force =    -0.00000021   -0.00000021   -0.00285343
     atom    3 type  1   force =     0.00000000    0.00000000    0.00043833
     atom    4 type  1   force =     0.00000011    0.00000011   -0.00133335
     atom    5 type  1   force =     0.00000000    0.00000000    0.00133905
     atom    6 type  1   force =     0.00000096    0.00000096   -0.00044702
     atom    7 type  1   force =     0.00000000    0.00000000    0.00284898
     atom    8 type  1   force =    -0.00000186   -0.00000186   -0.00283955
     atom    9 type  1   force =     0.00000000    0.00000000    0.00284953
     atom   10 type  1   force =    -0.00000021    0.00000021   -0.00285343
     atom   11 type  1   force =     0.00000000    0.00000000    0.00043988
     atom   12 type  1   force =     0.00000011   -0.00000011   -0.00133335
     atom   13 type  1   force =     0.00000000    0.00000000    0.00133825
     atom   14 type  1   force =     0.00000096   -0.00000096   -0.00044702
     atom   15 type  1   force =     0.00000000    0.00000000    0.00284718
     atom   16 type  1   force =    -0.00000186    0.00000186   -0.00283955
     atom   17 type  1   force =     0.00000000    0.00000000    0.00284953
     atom   18 type  1   force =     0.00000021   -0.00000021   -0.00285343
     atom   19 type  1   force =     0.00000000    0.00000000    0.00043988
     atom   20 type  1   force =    -0.00000011    0.00000011   -0.00133335
     atom   21 type  1   force =     0.00000000    0.00000000    0.00133825
     atom   22 type  1   force =    -0.00000096    0.00000096   -0.00044702
     atom   23 type  1   force =     0.00000000    0.00000000    0.00284718
     atom   24 type  1   force =     0.00000186   -0.00000186   -0.00283955
     atom   25 type  1   force =     0.00000000    0.00000000    0.00284713
     atom   26 type  1   force =     0.00000021    0.00000021   -0.00285343
     atom   27 type  1   force =     0.00000000    0.00000000    0.00043862
     atom   28 type  1   force =    -0.00000011   -0.00000011   -0.00133335
     atom   29 type  1   force =     0.00000000    0.00000000    0.00133672
     atom   30 type  1   force =    -0.00000096   -0.00000096   -0.00044702
     atom   31 type  1   force =     0.00000000    0.00000000    0.00284615
     atom   32 type  1   force =     0.00000186    0.00000186   -0.00283955
     The non-local contrib.  to forces
     atom    1 type  1   force =     0.00000000    0.00000000    0.00037405
     atom    2 type  1   force =    -0.00000038   -0.00000038   -0.08629335
[...]
     atom   19 type  1   force =     0.00000000    0.00000000    0.00345425
     atom   20 type  1   force =     0.00000219   -0.00000219   -0.00280378
     atom   21 type  1   force =     0.00000000    0.00000000    0.00280128
     atom   22 type  1   force =    -0.00000192    0.00000192   -0.00345309
     atom   23 type  1   force =     0.00000000    0.00000000    0.08480255
     atom   24 type  1   force =    -0.00000067    0.00000067    0.00137102
     atom   25 type  1   force =     0.00000000    0.00000000   -0.00137837
     atom   26 type  1   force =    -0.00000087   -0.00000087   -0.08479840
     atom   27 type  1   force =     0.00000000    0.00000000    0.00345866
     atom   28 type  1   force =     0.00000219    0.00000219   -0.00280378
     atom   29 type  1   force =     0.00000000    0.00000000    0.00279972
     atom   30 type  1   force =    -0.00000192   -0.00000192   -0.00345309
     atom   31 type  1   force =     0.00000000    0.00000000    0.08480173
     atom   32 type  1   force =    -0.00000067   -0.00000067    0.00137102
     The ionic contribution  to forces
     atom    1 type  1   force =    -0.00000001   -0.00000001   -9.77724672
     atom    2 type  1   force =     0.00000562    0.00000562  -13.41895588
     atom    3 type  1   force =    -0.00000001   -0.00000001   -1.96934941
     atom    4 type  1   force =    -0.00004031   -0.00004031   -5.90669899
     atom    5 type  1   force =    -0.00000000   -0.00000000    5.90661019
     atom    6 type  1   force =     0.00003672    0.00003672    1.96932032
     atom    7 type  1   force =    -0.00000001   -0.00000001   13.41903210
     atom    8 type  1   force =     0.00002038    0.00002038    9.77724187
     atom    9 type  1   force =    -0.00000001    0.00000001   -9.77719293
     atom   10 type  1   force =     0.00000562   -0.00000562  -13.41895585
     atom   11 type  1   force =    -0.00000001    0.00000001   -1.96934715
     atom   12 type  1   force =    -0.00004031    0.00004032   -5.90669901
     atom   13 type  1   force =    -0.00000000   -0.00000000    5.90665838
     atom   14 type  1   force =     0.00003672   -0.00003672    1.96932031
     atom   15 type  1   force =    -0.00000001    0.00000001   13.41900816
     atom   16 type  1   force =     0.00002038   -0.00002037    9.77724190
     atom   17 type  1   force =     0.00000001   -0.00000001   -9.77719293
     atom   18 type  1   force =    -0.00000562    0.00000562  -13.41895585
     atom   19 type  1   force =     0.00000001   -0.00000001   -1.96934715
     atom   20 type  1   force =     0.00004032   -0.00004031   -5.90669901
     atom   21 type  1   force =    -0.00000000   -0.00000000    5.90665838
     atom   22 type  1   force =    -0.00003672    0.00003672    1.96932031
     atom   23 type  1   force =     0.00000001   -0.00000001   13.41900816
     atom   24 type  1   force =    -0.00002037    0.00002038    9.77724190
     atom   25 type  1   force =     0.00000001    0.00000001   -9.77722539
     atom   26 type  1   force =    -0.00000562   -0.00000562  -13.41895584
     atom   27 type  1   force =     0.00000001    0.00000001   -1.96941624
     atom   28 type  1   force =     0.00004032    0.00004032   -5.90669901
     atom   29 type  1   force =    -0.00000000   -0.00000000    5.90672538
     atom   30 type  1   force =    -0.00003672   -0.00003672    1.96932030
     atom   31 type  1   force =     0.00000001    0.00000001   13.41898778
     atom   32 type  1   force =    -0.00002037   -0.00002037    9.77724191
     The local contribution  to forces
     atom    1 type  1   force =     0.00000407    0.00000407    9.82362041
     atom    2 type  1   force =    -0.00000201   -0.00000201   13.54616275
     atom    3 type  1   force =     0.00000407    0.00000407    1.97514830
     atom    4 type  1   force =     0.00004595    0.00004595    5.93681640
     atom    5 type  1   force =     0.00000407    0.00000407   -5.93670854
     atom    6 type  1   force =    -0.00003326   -0.00003326   -1.97510233
     atom    7 type  1   force =     0.00000350    0.00000350  -13.54622475
     atom    8 type  1   force =    -0.00001644   -0.00001644   -9.82360017
     atom    9 type  1   force =     0.00000407    0.00000499    9.82356599
     atom   10 type  1   force =    -0.00000201    0.00001144   13.54616155
     atom   11 type  1   force =     0.00000407    0.00000441    1.97514421
     atom   12 type  1   force =     0.00004595   -0.00003656    5.93681700
     atom   13 type  1   force =     0.00000407    0.00000382   -5.93675713
     atom   14 type  1   force =    -0.00003326    0.00004208   -1.97510233
     atom   15 type  1   force =     0.00000350    0.00000442  -13.54620062
     atom   16 type  1   force =    -0.00001644    0.00002525   -9.82360077
     atom   17 type  1   force =     0.00000499    0.00000407    9.82356599
     atom   18 type  1   force =     0.00001144   -0.00000201   13.54616155
     atom   19 type  1   force =     0.00000441    0.00000407    1.97514421
     atom   20 type  1   force =    -0.00003656    0.00004595    5.93681700
     atom   21 type  1   force =     0.00000382    0.00000407   -5.93675713
     atom   22 type  1   force =     0.00004208   -0.00003326   -1.97510233
     atom   23 type  1   force =     0.00000442    0.00000350  -13.54620062
     atom   24 type  1   force =     0.00002525   -0.00001644   -9.82360077
     atom   25 type  1   force =     0.00000499    0.00000499    9.82360106
     atom   26 type  1   force =     0.00001144    0.00001144   13.54616096
     atom   27 type  1   force =     0.00000441    0.00000441    1.97521359
     atom   28 type  1   force =    -0.00003656   -0.00003656    5.93681700
     atom   29 type  1   force =     0.00000382    0.00000382   -5.93682403
     atom   30 type  1   force =     0.00004208    0.00004208   -1.97510233
     atom   31 type  1   force =     0.00000442    0.00000442  -13.54618033
     atom   32 type  1   force =     0.00002525    0.00002525   -9.82360077
     The core correction contribution to forces
     atom    1 type  1   force =     0.00000000    0.00000000    0.00000000
     atom    2 type  1   force =     0.00000000    0.00000000    0.00000000
     atom    3 type  1   force =     0.00000000    0.00000000    0.00000000
     atom    4 type  1   force =     0.00000000    0.00000000    0.00000000
     atom    5 type  1   force =     0.00000000    0.00000000    0.00000000
     atom    6 type  1   force =     0.00000000    0.00000000    0.00000000
     atom    7 type  1   force =     0.00000000    0.00000000    0.00000000
     atom    8 type  1   force =     0.00000000    0.00000000    0.00000000
     atom    9 type  1   force =     0.00000000    0.00000000    0.00000000
     atom   10 type  1   force =     0.00000000    0.00000000    0.00000000
     atom   11 type  1   force =     0.00000000    0.00000000    0.00000000
     atom   12 type  1   force =     0.00000000    0.00000000    0.00000000
     atom   13 type  1   force =     0.00000000    0.00000000    0.00000000
     atom   14 type  1   force =     0.00000000    0.00000000    0.00000000
     atom   15 type  1   force =     0.00000000    0.00000000    0.00000000
     atom   16 type  1   force =     0.00000000    0.00000000    0.00000000
     atom   17 type  1   force =     0.00000000    0.00000000    0.00000000
     atom   18 type  1   force =     0.00000000    0.00000000    0.00000000
     atom   19 type  1   force =     0.00000000    0.00000000    0.00000000
     atom   20 type  1   force =     0.00000000    0.00000000    0.00000000
     atom   21 type  1   force =     0.00000000    0.00000000    0.00000000
     atom   22 type  1   force =     0.00000000    0.00000000    0.00000000
     atom   23 type  1   force =     0.00000000    0.00000000    0.00000000
     atom   24 type  1   force =     0.00000000    0.00000000    0.00000000
     atom   25 type  1   force =     0.00000000    0.00000000    0.00000000
     atom   26 type  1   force =     0.00000000    0.00000000    0.00000000
     atom   27 type  1   force =     0.00000000    0.00000000    0.00000000
     atom   28 type  1   force =     0.00000000    0.00000000    0.00000000
     atom   29 type  1   force =     0.00000000    0.00000000    0.00000000
     atom   30 type  1   force =     0.00000000    0.00000000    0.00000000
     atom   31 type  1   force =     0.00000000    0.00000000    0.00000000
     atom   32 type  1   force =     0.00000000    0.00000000    0.00000000
     The Hubbard contrib.    to forces
     atom    1 type  1   force =     0.00000000    0.00000000    0.00000000
     atom    2 type  1   force =     0.00000000    0.00000000    0.00000000
     atom    3 type  1   force =     0.00000000    0.00000000    0.00000000
     atom    4 type  1   force =     0.00000000    0.00000000    0.00000000
     atom    5 type  1   force =     0.00000000    0.00000000    0.00000000
     atom    6 type  1   force =     0.00000000    0.00000000    0.00000000
     atom    7 type  1   force =     0.00000000    0.00000000    0.00000000
     atom    8 type  1   force =     0.00000000    0.00000000    0.00000000
     atom    9 type  1   force =     0.00000000    0.00000000    0.00000000
     atom   10 type  1   force =     0.00000000    0.00000000    0.00000000
     atom   11 type  1   force =     0.00000000    0.00000000    0.00000000
     atom   12 type  1   force =     0.00000000    0.00000000    0.00000000
     atom   13 type  1   force =     0.00000000    0.00000000    0.00000000
     atom   14 type  1   force =     0.00000000    0.00000000    0.00000000
     atom   15 type  1   force =     0.00000000    0.00000000    0.00000000
     atom   16 type  1   force =     0.00000000    0.00000000    0.00000000
     atom   17 type  1   force =     0.00000000    0.00000000    0.00000000
     atom   18 type  1   force =     0.00000000    0.00000000    0.00000000
     atom   19 type  1   force =     0.00000000    0.00000000    0.00000000
     atom   20 type  1   force =     0.00000000    0.00000000    0.00000000
     atom   21 type  1   force =     0.00000000    0.00000000    0.00000000
     atom   22 type  1   force =     0.00000000    0.00000000    0.00000000
     atom   23 type  1   force =     0.00000000    0.00000000    0.00000000
     atom   24 type  1   force =     0.00000000    0.00000000    0.00000000
     atom   25 type  1   force =     0.00000000    0.00000000    0.00000000
     atom   26 type  1   force =     0.00000000    0.00000000    0.00000000
     atom   27 type  1   force =     0.00000000    0.00000000    0.00000000
     atom   28 type  1   force =     0.00000000    0.00000000    0.00000000
     atom   29 type  1   force =     0.00000000    0.00000000    0.00000000
     atom   30 type  1   force =     0.00000000    0.00000000    0.00000000
     atom   31 type  1   force =     0.00000000    0.00000000    0.00000000
     atom   32 type  1   force =     0.00000000    0.00000000    0.00000000
     The SCF correction term to forces
     atom    1 type  1   force =     0.00000000    0.00000000   -0.00002069
     atom    2 type  1   force =    -0.00000002   -0.00000002    0.00000191
     atom    3 type  1   force =     0.00000000    0.00000000   -0.00000020
     atom    4 type  1   force =    -0.00000000   -0.00000000    0.00000028
     atom    5 type  1   force =    -0.00000000    0.00000000   -0.00000053
     atom    6 type  1   force =     0.00000000    0.00000000    0.00000001
     atom    7 type  1   force =    -0.00000000   -0.00000000   -0.00000221
     atom    8 type  1   force =     0.00000000    0.00000000    0.00002040
     atom    9 type  1   force =     0.00000000    0.00000000   -0.00002071
     atom   10 type  1   force =    -0.00000002    0.00000002    0.00000191
     atom   11 type  1   force =    -0.00000000    0.00000000   -0.00000021
     atom   12 type  1   force =    -0.00000000    0.00000000    0.00000028
     atom   13 type  1   force =    -0.00000000    0.00000000   -0.00000054
     atom   14 type  1   force =     0.00000000   -0.00000000    0.00000001
     atom   15 type  1   force =    -0.00000000    0.00000000   -0.00000224
     atom   16 type  1   force =     0.00000000   -0.00000000    0.00002040
     atom   17 type  1   force =     0.00000000   -0.00000000   -0.00002071
     atom   18 type  1   force =     0.00000002   -0.00000002    0.00000191
     atom   19 type  1   force =    -0.00000000    0.00000000   -0.00000021
     atom   20 type  1   force =     0.00000000   -0.00000000    0.00000028
     atom   21 type  1   force =     0.00000000   -0.00000000   -0.00000054
     atom   22 type  1   force =    -0.00000000    0.00000000    0.00000001
     atom   23 type  1   force =     0.00000000    0.00000000   -0.00000224
     atom   24 type  1   force =    -0.00000000    0.00000000    0.00002040
     atom   25 type  1   force =     0.00000000   -0.00000000   -0.00002061
     atom   26 type  1   force =     0.00000002    0.00000002    0.00000191
     atom   27 type  1   force =    -0.00000000    0.00000000   -0.00000019
     atom   28 type  1   force =     0.00000000    0.00000000    0.00000028
     atom   29 type  1   force =    -0.00000000    0.00000000   -0.00000057
     atom   30 type  1   force =    -0.00000000   -0.00000000    0.00000001
     atom   31 type  1   force =     0.00000000    0.00000000   -0.00000228
     atom   32 type  1   force =    -0.00000000   -0.00000000    0.00002040

     Total force =     0.000589     Total SCF correction =     0.000058
     Energy error            =      2.5E-06 Ry
     Gradient error          =      1.6E-04 Ry/Bohr

     bfgs converged in  33 scf cycles and  32 bfgs steps
     (criteria: energy <  1.0E-05 Ry, force <  3.9E-04 Ry/Bohr)

     End of BFGS Geometry Optimization

     Final energy             =    -481.2519957266 Ry

     File ./Li/Lithium.bfgs deleted, as requested
Begin final coordinates

ATOMIC_POSITIONS (angstrom)
Li              -0.0000000700       -0.0000000700       21.7848258534
Li               1.7175781366        1.7175781366       19.8717077417
Li              -0.0000000700       -0.0000000700       25.2224926560
Li               1.7175866645        1.7175866645       23.4829625789
Li              -0.0000000700       -0.0000000700       28.7581833779
Li               1.7175743378        1.7175743378       27.0186884119
Li              -0.0000000600       -0.0000000600       32.3692521849
Li               1.7175595234        1.7175595234       30.4562889805
Li              -0.0000000700        3.4351561600       21.7848777264
Li               1.7175781366        5.1527341934       19.8717077617
Li              -0.0000000700        3.4351561700       25.2224644551
Li               1.7175866645        5.1527256655       23.4829625689
Li              -0.0000000700        3.4351561800       28.7582094940
Li               1.7175743378        5.1527380022       27.0186884119
Li              -0.0000000600        3.4351561700       32.3692455235
Li               1.7175595234        5.1527528166       30.4562889905
Li               3.4351561600       -0.0000000700       21.7848777264
Li               5.1527341934        1.7175781366       19.8717077617
Li               3.4351561700       -0.0000000700       25.2224644551
Li               5.1527256655        1.7175866645       23.4829625689
Li               3.4351561800       -0.0000000700       28.7582094940
Li               5.1527380022        1.7175743378       27.0186884119
Li               3.4351561700       -0.0000000600       32.3692455235
Li               5.1527528166        1.7175595234       30.4562889905
Li               3.4351561600        3.4351561600       21.7848773943
Li               5.1527341934        5.1527341934       19.8717077717
Li               3.4351561700        3.4351561700       25.2223937226
Li               5.1527256655        5.1527256655       23.4829625689
Li               3.4351561800        3.4351561800       28.7582511092
Li               5.1527380022        5.1527380022       27.0186884119
Li               3.4351561700        3.4351561700       32.3692404273
Li               5.1527528166        5.1527528166       30.4562889905
End final coordinates



     Writing all to output data dir ./Li/Lithium.save/ :
     XML data file
     init_run     :     13.90s CPU     23.00s WALL (       1 calls)
     electrons    :  13834.54s CPU  16938.50s WALL (      33 calls)
     update_pot   :      2.41s CPU      2.86s WALL (      32 calls)
     forces       :    300.10s CPU    324.83s WALL (      33 calls)

     Called by init_run:
     wfcinit      :      2.52s CPU      3.38s WALL (       1 calls)
     wfcinit:wfcr :      2.38s CPU      3.23s WALL (      21 calls)
     potinit      :      0.70s CPU      0.75s WALL (       1 calls)
     hinit0       :      2.51s CPU      2.76s WALL (       1 calls)

     Called by electrons:
     c_bands      :  11566.96s CPU  14102.85s WALL (     635 calls)
     sum_band     :    720.66s CPU    984.78s WALL (     635 calls)
     v_of_rho     :     32.63s CPU     38.99s WALL (     637 calls)
     v_h          :      3.04s CPU      3.72s WALL (     637 calls)
     v_xc         :     29.58s CPU     35.25s WALL (     637 calls)
     newd         :     28.46s CPU     29.89s WALL (     637 calls)
     PAW_pot      :      6.34s CPU      7.67s WALL (     669 calls)
     mix_rho      :     92.22s CPU    118.94s WALL (     635 calls)

     Called by c_bands:
     init_us_2    :     89.69s CPU     93.61s WALL (   28056 calls)
     cegterg      :  11447.64s CPU  13969.15s WALL (   16845 calls)

     Called by sum_band:
     sum_band:wei :      0.77s CPU      0.92s WALL (     635 calls)
     sum_band:loo :    684.14s CPU    945.51s WALL (     635 calls)
     sum_band:buf :      9.26s CPU     10.02s WALL (   13335 calls)
     sum_band:ini :     42.23s CPU     42.42s WALL (   13335 calls)
     sum_band:cal :    103.50s CPU    122.93s WALL (   14007 calls)
     sum_band:bec :      2.18s CPU      2.41s WALL (   14007 calls)
     addusdens    :     29.50s CPU     29.66s WALL (     635 calls)
                                        0.00s GPU  (     635 calls)
     addusd:skk   :      7.12s CPU      7.14s WALL (     635 calls)
                                        0.00s GPU  (     635 calls)

     Called by *egterg:
     cdiaghg      :   3762.13s CPU   3906.03s WALL (  224788 calls)
     cegterg:over :    682.82s CPU    750.79s WALL (  209499 calls)
     cegterg:upda :    520.72s CPU    537.72s WALL (  209499 calls)
     cegterg:last :    123.84s CPU    125.16s WALL (   19688 calls)
     h_psi        :   5657.13s CPU   7903.82s WALL (  226365 calls)
     s_psi        :    416.71s CPU    427.03s WALL (  226365 calls)
     g_psi        :      6.35s CPU      6.60s WALL (  209499 calls)

     Called by h_psi:
     h_psi:calbec :    657.36s CPU    796.66s WALL (  226365 calls)
     vloc_psi     :   4484.55s CPU   6563.86s WALL (  226365 calls)
                                        0.00s GPU  (  226365 calls)
     add_vuspsi   :    490.83s CPU    516.23s WALL (  226365 calls)

     General routines
     calbec       :    777.72s CPU    938.65s WALL (  243144 calls)
     fft          :     26.57s CPU     34.48s WALL (    8344 calls)
     ffts         :     69.42s CPU     90.18s WALL (   71505 calls)
     fftw         :   4840.32s CPU   7094.79s WALL ( 9023542 calls)
     interpolate  :      3.43s CPU      4.11s WALL (     637 calls)

     Parallel routines

     PAW routines
     PAW_pot      :      6.34s CPU      7.67s WALL (     669 calls)
     PAW_symme    :      0.16s CPU      0.18s WALL (    1304 calls)

     Environ routines

     PWSCF        :      3h58m CPU      4h50m WALL


   This run was terminated on:   0:27:22   2Jan2025            

=------------------------------------------------------------------------------=
   JOB DONE.
=------------------------------------------------------------------------------=
