
     Program PWSCF v.7.4 starts on  3Jan2025 at 12: 9:52 

     This program is part of the open-source Quantum ESPRESSO suite
     for quantum simulation of materials; please cite
         "P. Giannozzi et al., J. Phys.:Condens. Matter 21 395502 (2009);
         "P. Giannozzi et al., J. Phys.:Condens. Matter 29 465901 (2017);
         "P. Giannozzi et al., J. Chem. Phys. 152 154105 (2020);
          URL http://www.quantum-espresso.org", 
     in publications or presentations arising from this work. More details at
     http://www.quantum-espresso.org/quote

     Parallel version (MPI & OpenMP), running on     256 processor cores
     Number of MPI processes:               256
     Threads/MPI process:                     1

     MPI processes distributed on     2 nodes
     231025 MiB available memory on the printing compute node when the environment starts

     Reading input from espresso.pwi
Warning: card &CELL ignored
Warning: card    PRESS_CONV_THR   = 0.1 ignored
Warning: card    CELL_DOFREE      = 'ALL' ignored
Warning: card / ignored
Warning: card &FCP ignored
Warning: card / ignored
Warning: card &RISM ignored
Warning: card / ignored

     Current dimensions of program PWSCF are:
     Max number of different atomic species (ntypx) = 10
     Max number of k-points (npk) =  40000
     Max angular momentum in pseudopotentials (lmaxx) =  4

     IMPORTANT: XC functional enforced from input :
     Exchange-correlation= PBE
                           (   1   4   3   4   0   0   0)
     Any further DFT definition will be discarded
     Please, verify this is what you really want


     Reading input from environ.in:
     * using ionic solvent mode
     * setting boundary derivatives method to SSCS default
     * setting electrolyte-boundary derivatives method to SSCS default

Environ Warning (1001): card EOF ignored

     
     Found identity + (  0.0000 -0.5000  0.0000) symmetry
     This is a supercell, fractional translations are disabled

     R & G space division:  proc/nbgrp/npool/nimage =     256
     Subspace diagonalization in iterative solution of the eigenvalue problem:
     a serial algorithm will be used


     Parallelization info
     --------------------
     sticks:   dense  smooth     PW     G-vecs:    dense   smooth      PW
     Min          29      11      3                15801     3945     551
     Max          30      12      4                15890     4040     600
     Sum        7593    3025    841              4056641  1025567  148303

     Using Slab Decomposition



     bravais-lattice index     =           14
     lattice parameter (alat)  =      11.2436  a.u.
     unit-cell volume          =   10615.2838 (a.u.)^3
     number of atoms/cell      =           16
     number of atomic types    =            1
     number of electrons       =        48.00
     number of Kohn-Sham states=           36
     kinetic-energy cutoff     =      80.0000  Ry
     charge density cutoff     =     800.0000  Ry
     scf convergence threshold =      1.0E-06
     mixing beta               =       0.2000
     number of iterations used =            8  local-TF  mixing
     energy convergence thresh.=      1.0E-05
     force convergence thresh. =      3.9E-04
     Exchange-correlation= PBE
                           (   1   4   3   4   0   0   0)
     nstep                     =          999


     ================================================================================

                                  Environ Setup Summary

     ================================================================================

     Please cite

          O. Andreussi, I. Dabo and N. Marzari, J. Chem. Phys. 136, 064102 (2012)
          F. Nattino, M. Truscott, N. Marzari, and O. Andreussi, J. Chem. Phys. 150, 041722 (2019)

     in publications or presentations arising from this work.

     ================================================================================

     Parameters
     ==========

     compensation onset threshold      =               0.1000E+00
     static permittivity               =                    89.90
     surface tension in input (dyn/cm) =                    37.30
     surface tension in internal units =               0.4792E-04

     Solvent Boundary
     ================

     solvent mode                      =                    ionic
     derivatives method                =                   lowmem
     electrolyte derivatives method    =                   lowmem
     numerical core for derivatives    =                      fft
     switching function adopted        =                     SCCS
     density limit for vacuum region   =               0.5000E-02
     density limit for bulk solvent    =               0.1000E-03
     soft-sphere radius mode           =                    bondi
     soft-sphere softness              =                     0.50
     alpha                             =                     1.32

     Electrostatic Setup
     ===================

     electrostatic problem to solve    =                    modpb
     numerical solver adopted          =                   newton
     type of auxiliary density adopted =                     none
     numerical core for poisson        =                      fft
     adopting a nested solver scheme
     inner solver                      =                       cg
     inner core                        =                      fft
     type of pbc corrections           =                parabolic
     numerical core for corrections    =                      1da

     ================================================================================


     >>>>> Grand-Canonical SCF is activated <<<<<
     Initial Total Charge  =     0.000000 e
     Target Fermi Energy   =    -1.904000 eV
     Thr. of Fermi Energy  =     0.001000 eV
     Wave-shift of Kerker  =     0.400000 bohr^-1
     Wave-shift of Hartree =     1.500000 bohr^-1
     Mixing Rate of Fermi  =     0.050000

     celldm(1)=  11.243615  celldm(2)=   1.000000  celldm(3)=   7.921182
     celldm(4)=   0.000000  celldm(5)=   0.000000  celldm(6)=  -0.333333

     crystal axes: (cart. coord. in units of alat)
               a(1) = (   1.000000   0.000000   0.000000 )  
               a(2) = (  -0.333333   0.942809   0.000000 )  
               a(3) = (   0.000000   0.000000   7.921182 )  

     reciprocal axes: (cart. coord. in units 2 pi/alat)
               b(1) = (  1.000000  0.353553 -0.000000 )  
               b(2) = (  0.000000  1.060660  0.000000 )  
               b(3) = (  0.000000 -0.000000  0.126244 )  


     PseudoPot. # 1 for Li read from file:
     /work/e89/e89/ba3g18/Repos/Pseudopotentials/Pslibrary/Li.pbe-sl-kjpaw_psl.1.0.0.UPF
     MD5 check sum: 3f4d2cafebb47c6c3aa8ed472e6f074d
     Pseudo is Projector augmented-wave, Zval =  3.0
     Generated using 'atomic' code by A. Dal Corso  v.7.4
     Shape of augmentation charge: PSQ
     Using radial grid of 1017 points,  4 beta functions with: 
                l(1) =   0
                l(2) =   0
                l(3) =   1
                l(4) =   1
     Q(r) pseudized with 0 coefficients 


     atomic species   valence    mass     pseudopotential
     Li                3.00     6.94000     Li( 1.00)

      2 Sym. Ops. (no inversion) found


                                    s                        frac. trans.

      isym =  1     identity                                     

 cryst.   s( 1) = (     1          0          0      )
                  (     0          1          0      )
                  (     0          0          1      )

 cart.    s( 1) = (  1.0000000 -0.0000000  0.0000000 )
                  (  0.0000000  1.0000000  0.0000000 )
                  (  0.0000000  0.0000000  1.0000000 )


      isym =  2     180 deg rotation - cart. axis [0,0,1]        

 cryst.   s( 2) = (    -1          0          0      )
                  (     0         -1          0      )
                  (     0          0          1      )

 cart.    s( 2) = ( -1.0000000  0.0000000  0.0000000 )
                  (  0.0000000 -1.0000000  0.0000000 )
                  (  0.0000000  0.0000000  1.0000000 )


     point group C_2  (2)   
     there are  2 classes
     the character table:

       E     C2   
A      1.00  1.00
B      1.00 -1.00

     the symmetry operations in each class and the name of the first element:

     E        1
          identity                                               
     C2       2
          180 deg rotation - cart. axis [0,0,1]                  

   Cartesian axes

     site n.     atom                  positions (alat units)
         1        Li     tau(   1) = (   0.1666648   0.2357040   3.3513560  )
         2        Li     tau(   2) = (   0.3333333   0.4714046   3.7557152  )
         3        Li     tau(   3) = (   0.1666665   0.2357009   4.1654608  )
         4        Li     tau(   4) = (   0.3333333   0.4714046   4.5698230  )
         5        Li     tau(   5) = (   0.0000021   0.7071092   3.3513663  )
         6        Li     tau(   6) = (   0.1666667   0.9428090   3.7557282  )
         7        Li     tau(   7) = (   0.0000005   0.7071032   4.1654732  )
         8        Li     tau(   8) = (   0.1666667   0.9428090   4.5698277  )
         9        Li     tau(   9) = (   0.6666645   0.2356999   3.3513663  )
        10        Li     tau(  10) = (   0.8333333   0.4714046   3.7557235  )
        11        Li     tau(  11) = (   0.6666661   0.2357059   4.1654732  )
        12        Li     tau(  12) = (   0.8333333   0.4714046   4.5698355  )
        13        Li     tau(  13) = (   0.5000019   0.7071051   3.3513560  )
        14        Li     tau(  14) = (   0.6666667   0.9428090   3.7557135  )
        15        Li     tau(  15) = (   0.5000002   0.7071081   4.1654608  )
        16        Li     tau(  16) = (   0.6666667   0.9428090   4.5698184  )

   Crystallographic axes

     site n.     atom                  positions (cryst. coord.)
         1        Li     tau(   1) = (  0.2499987  0.2500019  0.4230879  )
         2        Li     tau(   2) = (  0.4999999  0.5000001  0.4741357  )
         3        Li     tau(   3) = (  0.2499993  0.2499986  0.5258635  )
         4        Li     tau(   4) = (  0.4999999  0.5000001  0.5769118  )
         5        Li     tau(   5) = (  0.2500027  0.7500025  0.4230892  )
         6        Li     tau(   6) = (  0.4999997  1.0000001  0.4741373  )
         7        Li     tau(   7) = (  0.2499990  0.7499962  0.5258651  )
         8        Li     tau(   8) = (  0.4999997  1.0000000  0.5769123  )
         9        Li     tau(   9) = (  0.7499970  0.2499975  0.4230892  )
        10        Li     tau(  10) = (  0.9999999  0.5000001  0.4741367  )
        11        Li     tau(  11) = (  0.7500007  0.2500039  0.5258651  )
        12        Li     tau(  12) = (  0.9999999  0.5000001  0.5769133  )
        13        Li     tau(  13) = (  0.7500010  0.7499982  0.4230879  )
        14        Li     tau(  14) = (  0.9999997  1.0000000  0.4741355  )
        15        Li     tau(  15) = (  0.7500004  0.7500014  0.5258635  )
        16        Li     tau(  16) = (  0.9999997  1.0000000  0.5769112  )

     number of k points=    61  Marzari-Vanderbilt smearing, width (Ry)=  0.0100
                       cart. coord. in units 2pi/alat
        k(    1) = (   0.0000000   0.0000000   0.0000000), wk =   0.0165289
        k(    2) = (   0.0000000   0.0964237   0.0000000), wk =   0.0330579
        k(    3) = (   0.0000000   0.1928473   0.0000000), wk =   0.0330579
        k(    4) = (   0.0000000   0.2892710   0.0000000), wk =   0.0330579
        k(    5) = (   0.0000000   0.3856946   0.0000000), wk =   0.0330579
        k(    6) = (   0.0000000   0.4821183   0.0000000), wk =   0.0330579
        k(    7) = (   0.0909091   0.0321412   0.0000000), wk =   0.0330579
        k(    8) = (   0.0909091   0.1285648   0.0000000), wk =   0.0330579
        k(    9) = (   0.0909091   0.2249885   0.0000000), wk =   0.0330579
        k(   10) = (   0.0909091   0.3214122   0.0000000), wk =   0.0330579
        k(   11) = (   0.0909091   0.4178358   0.0000000), wk =   0.0330579
        k(   12) = (   0.0909091   0.5142595   0.0000000), wk =   0.0330579
        k(   13) = (   0.0909091  -0.4499771   0.0000000), wk =   0.0330579
        k(   14) = (   0.0909091  -0.3535534   0.0000000), wk =   0.0330579
        k(   15) = (   0.0909091  -0.2571298   0.0000000), wk =   0.0330579
        k(   16) = (   0.0909091  -0.1607061   0.0000000), wk =   0.0330579
        k(   17) = (   0.0909091  -0.0642825   0.0000000), wk =   0.0330579
        k(   18) = (   0.1818182   0.0642824   0.0000000), wk =   0.0330579
        k(   19) = (   0.1818182   0.1607060   0.0000000), wk =   0.0330579
        k(   20) = (   0.1818182   0.2571297   0.0000000), wk =   0.0330579
        k(   21) = (   0.1818182   0.3535533   0.0000000), wk =   0.0330579
        k(   22) = (   0.1818182   0.4499770   0.0000000), wk =   0.0330579
        k(   23) = (   0.1818182   0.5464007   0.0000000), wk =   0.0330579
        k(   24) = (   0.1818182  -0.4178359   0.0000000), wk =   0.0330579
        k(   25) = (   0.1818182  -0.3214123   0.0000000), wk =   0.0330579
        k(   26) = (   0.1818182  -0.2249886   0.0000000), wk =   0.0330579
        k(   27) = (   0.1818182  -0.1285649   0.0000000), wk =   0.0330579
        k(   28) = (   0.1818182  -0.0321413   0.0000000), wk =   0.0330579
        k(   29) = (   0.2727273   0.0964236   0.0000000), wk =   0.0330579
        k(   30) = (   0.2727273   0.1928472   0.0000000), wk =   0.0330579
        k(   31) = (   0.2727273   0.2892709   0.0000000), wk =   0.0330579
        k(   32) = (   0.2727273   0.3856945   0.0000000), wk =   0.0330579
        k(   33) = (   0.2727273   0.4821182   0.0000000), wk =   0.0330579
        k(   34) = (   0.2727273   0.5785418   0.0000000), wk =   0.0330579
        k(   35) = (   0.2727273  -0.3856947   0.0000000), wk =   0.0330579
        k(   36) = (   0.2727273  -0.2892711   0.0000000), wk =   0.0330579
        k(   37) = (   0.2727273  -0.1928474   0.0000000), wk =   0.0330579
        k(   38) = (   0.2727273  -0.0964238   0.0000000), wk =   0.0330579
        k(   39) = (   0.2727273  -0.0000001   0.0000000), wk =   0.0330579
        k(   40) = (   0.3636364   0.1285647   0.0000000), wk =   0.0330579
        k(   41) = (   0.3636364   0.2249884   0.0000000), wk =   0.0330579
        k(   42) = (   0.3636364   0.3214121   0.0000000), wk =   0.0330579
        k(   43) = (   0.3636364   0.4178357   0.0000000), wk =   0.0330579
        k(   44) = (   0.3636364   0.5142594   0.0000000), wk =   0.0330579
        k(   45) = (   0.3636364   0.6106830   0.0000000), wk =   0.0330579
        k(   46) = (   0.3636364  -0.3535535   0.0000000), wk =   0.0330579
        k(   47) = (   0.3636364  -0.2571299   0.0000000), wk =   0.0330579
        k(   48) = (   0.3636364  -0.1607062   0.0000000), wk =   0.0330579
        k(   49) = (   0.3636364  -0.0642826   0.0000000), wk =   0.0330579
        k(   50) = (   0.3636364   0.0321411   0.0000000), wk =   0.0330579
        k(   51) = (   0.4545455   0.1607059   0.0000000), wk =   0.0330579
        k(   52) = (   0.4545455   0.2571296   0.0000000), wk =   0.0330579
        k(   53) = (   0.4545455   0.3535532   0.0000000), wk =   0.0330579
        k(   54) = (   0.4545455   0.4499769   0.0000000), wk =   0.0330579
        k(   55) = (   0.4545455   0.5464006   0.0000000), wk =   0.0330579
        k(   56) = (   0.4545455   0.6428242   0.0000000), wk =   0.0330579
        k(   57) = (   0.4545455  -0.3214123   0.0000000), wk =   0.0330579
        k(   58) = (   0.4545455  -0.2249887   0.0000000), wk =   0.0330579
        k(   59) = (   0.4545455  -0.1285650   0.0000000), wk =   0.0330579
        k(   60) = (   0.4545455  -0.0321414   0.0000000), wk =   0.0330579
        k(   61) = (   0.4545455   0.0642823   0.0000000), wk =   0.0330579

                       cryst. coord.
        k(    1) = (   0.0000000   0.0000000   0.0000000), wk =   0.0165289
        k(    2) = (   0.0000000   0.0909091   0.0000000), wk =   0.0330579
        k(    3) = (   0.0000000   0.1818182   0.0000000), wk =   0.0330579
        k(    4) = (   0.0000000   0.2727273   0.0000000), wk =   0.0330579
        k(    5) = (   0.0000000   0.3636364   0.0000000), wk =   0.0330579
        k(    6) = (   0.0000000   0.4545455   0.0000000), wk =   0.0330579
        k(    7) = (   0.0909091  -0.0000000   0.0000000), wk =   0.0330579
        k(    8) = (   0.0909091   0.0909091   0.0000000), wk =   0.0330579
        k(    9) = (   0.0909091   0.1818182   0.0000000), wk =   0.0330579
        k(   10) = (   0.0909091   0.2727273   0.0000000), wk =   0.0330579
        k(   11) = (   0.0909091   0.3636364   0.0000000), wk =   0.0330579
        k(   12) = (   0.0909091   0.4545455   0.0000000), wk =   0.0330579
        k(   13) = (   0.0909091  -0.4545455   0.0000000), wk =   0.0330579
        k(   14) = (   0.0909091  -0.3636364   0.0000000), wk =   0.0330579
        k(   15) = (   0.0909091  -0.2727273   0.0000000), wk =   0.0330579
        k(   16) = (   0.0909091  -0.1818182   0.0000000), wk =   0.0330579
        k(   17) = (   0.0909091  -0.0909091   0.0000000), wk =   0.0330579
        k(   18) = (   0.1818182  -0.0000000   0.0000000), wk =   0.0330579
        k(   19) = (   0.1818182   0.0909091   0.0000000), wk =   0.0330579
        k(   20) = (   0.1818182   0.1818182   0.0000000), wk =   0.0330579
        k(   21) = (   0.1818182   0.2727273   0.0000000), wk =   0.0330579
        k(   22) = (   0.1818182   0.3636364   0.0000000), wk =   0.0330579
        k(   23) = (   0.1818182   0.4545455   0.0000000), wk =   0.0330579
        k(   24) = (   0.1818182  -0.4545455   0.0000000), wk =   0.0330579
        k(   25) = (   0.1818182  -0.3636364   0.0000000), wk =   0.0330579
        k(   26) = (   0.1818182  -0.2727273   0.0000000), wk =   0.0330579
        k(   27) = (   0.1818182  -0.1818182   0.0000000), wk =   0.0330579
        k(   28) = (   0.1818182  -0.0909091   0.0000000), wk =   0.0330579
        k(   29) = (   0.2727273  -0.0000000   0.0000000), wk =   0.0330579
        k(   30) = (   0.2727273   0.0909091   0.0000000), wk =   0.0330579
        k(   31) = (   0.2727273   0.1818182   0.0000000), wk =   0.0330579
        k(   32) = (   0.2727273   0.2727273   0.0000000), wk =   0.0330579
        k(   33) = (   0.2727273   0.3636364   0.0000000), wk =   0.0330579
        k(   34) = (   0.2727273   0.4545455   0.0000000), wk =   0.0330579
        k(   35) = (   0.2727273  -0.4545455   0.0000000), wk =   0.0330579
        k(   36) = (   0.2727273  -0.3636364   0.0000000), wk =   0.0330579
        k(   37) = (   0.2727273  -0.2727273   0.0000000), wk =   0.0330579
        k(   38) = (   0.2727273  -0.1818182   0.0000000), wk =   0.0330579
        k(   39) = (   0.2727273  -0.0909091   0.0000000), wk =   0.0330579
        k(   40) = (   0.3636364  -0.0000000   0.0000000), wk =   0.0330579
        k(   41) = (   0.3636364   0.0909091   0.0000000), wk =   0.0330579
        k(   42) = (   0.3636364   0.1818182   0.0000000), wk =   0.0330579
        k(   43) = (   0.3636364   0.2727273   0.0000000), wk =   0.0330579
        k(   44) = (   0.3636364   0.3636364   0.0000000), wk =   0.0330579
        k(   45) = (   0.3636364   0.4545455   0.0000000), wk =   0.0330579
        k(   46) = (   0.3636364  -0.4545455   0.0000000), wk =   0.0330579
        k(   47) = (   0.3636364  -0.3636364   0.0000000), wk =   0.0330579
        k(   48) = (   0.3636364  -0.2727273   0.0000000), wk =   0.0330579
        k(   49) = (   0.3636364  -0.1818182   0.0000000), wk =   0.0330579
        k(   50) = (   0.3636364  -0.0909091   0.0000000), wk =   0.0330579
        k(   51) = (   0.4545455  -0.0000000   0.0000000), wk =   0.0330579
        k(   52) = (   0.4545455   0.0909091   0.0000000), wk =   0.0330579
        k(   53) = (   0.4545455   0.1818182   0.0000000), wk =   0.0330579
        k(   54) = (   0.4545455   0.2727273   0.0000000), wk =   0.0330579
        k(   55) = (   0.4545455   0.3636364   0.0000000), wk =   0.0330579
        k(   56) = (   0.4545455   0.4545455   0.0000000), wk =   0.0330579
        k(   57) = (   0.4545455  -0.4545455   0.0000000), wk =   0.0330579
        k(   58) = (   0.4545455  -0.3636364   0.0000000), wk =   0.0330579
        k(   59) = (   0.4545455  -0.2727273   0.0000000), wk =   0.0330579
        k(   60) = (   0.4545455  -0.1818182   0.0000000), wk =   0.0330579
        k(   61) = (   0.4545455  -0.0909091   0.0000000), wk =   0.0330579

     Dense  grid:  4056641 G-vectors     FFT dimensions: ( 108, 108, 810)

     Smooth grid:  1025567 G-vectors     FFT dimensions: (  72,  72, 512)

     Dynamical RAM for                 wfc:       0.28 MB

     Dynamical RAM for     wfc (w. buffer):      17.06 MB

     Dynamical RAM for           str. fact:       0.24 MB

     Dynamical RAM for           local pot:       0.00 MB

     Dynamical RAM for          nlocal pot:       0.98 MB

     Dynamical RAM for                qrad:       0.65 MB

     Dynamical RAM for          rho,v,vnew:       1.79 MB

     Dynamical RAM for               rhoin:       0.60 MB

     Dynamical RAM for            rho*nmix:       3.86 MB

     Dynamical RAM for           G-vectors:       0.94 MB

     Dynamical RAM for          h,s,v(r/c):       0.95 MB

     Dynamical RAM for          <psi|beta>:       0.07 MB

     Dynamical RAM for                 psi:       1.10 MB

     Dynamical RAM for                hpsi:       1.10 MB

     Dynamical RAM for                spsi:       1.10 MB

     Dynamical RAM for      wfcinit/wfcrot:       0.58 MB

     Dynamical RAM for           addusdens:      14.24 MB

     Dynamical RAM for          addusforce:      21.62 MB

     Estimated static dynamical RAM per process >      24.52 MB

     Estimated max dynamical RAM per process >      61.90 MB

     Estimated total dynamical RAM >      12.50 GB

     Initial potential from superposition of free atoms

     starting charge      47.9263, renormalised to      48.0000

     negative rho (up, down):  2.072E-03 0.000E+00
     Starting wfcs are random
     Checking if some PAW data can be deallocated... 

     total cpu time spent up to now is       18.0 secs

     Self-consistent Calculation

     iteration #  1     ecut=    80.00 Ry     beta= 0.20
     Davidson diagonalization with overlap

---- Real-time Memory Report at c_bands before calling an iterative solver
           245 MiB given to the printing process from OS
             0 MiB allocation reported by mallinfo(arena+hblkhd)
        220846 MiB available memory on the node where the printing process lives
------------------
     c_bands:  2 eigenvalues not converged
     c_bands:  1 eigenvalues not converged
     c_bands:  1 eigenvalues not converged
     c_bands:  1 eigenvalues not converged
     c_bands:  1 eigenvalues not converged
     c_bands:  1 eigenvalues not converged
     c_bands:  1 eigenvalues not converged
     ethr =  1.00E-12,  avg # of iterations =101.3

     negative rho (up, down):  1.560E-03 0.000E+00

     add environment contribution to local potential

     total cpu time spent up to now is      146.5 secs

     total energy              =    -240.66325578 Ry
     estimated scf accuracy    <       0.07402582 Ry

     total charge of GC-SCF    =       0.00466746 e
     the Fermi energy          =      -4.56430917 eV
                        (error :       2.66030917 eV)
     electrostatic embedding   =       0.00000000 Ry
     cavitation energy         =       0.01235683 Ry
     electrolyte free energy   =       0.00456895 Ry
     correction to one-el term =      -0.00000000 Ry

     iteration #  2     ecut=    80.00 Ry     beta= 0.20
     Davidson diagonalization with overlap

---- Real-time Memory Report at c_bands before calling an iterative solver
           245 MiB given to the printing process from OS
             0 MiB allocation reported by mallinfo(arena+hblkhd)
        220958 MiB available memory on the node where the printing process lives
------------------
     ethr =  1.00E-05,  avg # of iterations = 10.8

     negative rho (up, down):  1.177E-03 0.000E+00

     add environment contribution to local potential

     total cpu time spent up to now is      162.9 secs

     total energy              =    -240.60933162 Ry
     estimated scf accuracy    <       0.01915302 Ry

     total charge of GC-SCF    =      -0.01518112 e
     the Fermi energy          =      -3.68295040 eV
                        (error :       1.77895040 eV)
     electrostatic embedding   =      -0.01793204 Ry
     cavitation energy         =       0.01235683 Ry
     electrolyte free energy   =      -0.00226892 Ry
     correction to one-el term =      -0.29161192 Ry

     iteration #  3     ecut=    80.00 Ry     beta= 0.20
     Davidson diagonalization with overlap

---- Real-time Memory Report at c_bands before calling an iterative solver
           245 MiB given to the printing process from OS
             0 MiB allocation reported by mallinfo(arena+hblkhd)
        220969 MiB available memory on the node where the printing process lives
------------------
     ethr =  1.00E-05,  avg # of iterations = 15.6

     negative rho (up, down):  9.252E-04 0.000E+00

     add environment contribution to local potential

     total cpu time spent up to now is      182.4 secs

     total energy              =    -240.56259848 Ry
     estimated scf accuracy    <       0.01069571 Ry

     total charge of GC-SCF    =      -0.07757240 e
     the Fermi energy          =      -3.14193905 eV
                        (error :       1.23793905 eV)
     electrostatic embedding   =      -0.01592424 Ry
     cavitation energy         =       0.01235683 Ry
     electrolyte free energy   =      -0.00182441 Ry
     correction to one-el term =       0.07507071 Ry

     iteration #  4     ecut=    80.00 Ry     beta= 0.20
     Davidson diagonalization with overlap

---- Real-time Memory Report at c_bands before calling an iterative solver
           245 MiB given to the printing process from OS
             0 MiB allocation reported by mallinfo(arena+hblkhd)
        220970 MiB available memory on the node where the printing process lives
------------------
     ethr =  1.00E-05,  avg # of iterations =  7.6

     negative rho (up, down):  7.698E-04 0.000E+00

     add environment contribution to local potential

     total cpu time spent up to now is      196.1 secs

     total energy              =    -240.57445017 Ry
     estimated scf accuracy    <       0.00233303 Ry

     total charge of GC-SCF    =      -0.10801150 e
     the Fermi energy          =      -2.93562062 eV
                        (error :       1.03162062 eV)
     electrostatic embedding   =      -0.01608092 Ry
     cavitation energy         =       0.01235683 Ry
     electrolyte free energy   =      -0.00130118 Ry
     correction to one-el term =       2.19849021 Ry

     iteration #  5     ecut=    80.00 Ry     beta= 0.20
     Davidson diagonalization with overlap

---- Real-time Memory Report at c_bands before calling an iterative solver
           245 MiB given to the printing process from OS
             0 MiB allocation reported by mallinfo(arena+hblkhd)
        220981 MiB available memory on the node where the printing process lives
------------------
     ethr =  4.85E-06,  avg # of iterations = 12.5

     negative rho (up, down):  7.169E-04 0.000E+00

     add environment contribution to local potential

     total cpu time spent up to now is      212.5 secs

     total energy              =    -240.54411781 Ry
     estimated scf accuracy    <       0.00121238 Ry

     total charge of GC-SCF    =      -0.27080154 e
     the Fermi energy          =      -2.76138318 eV
                        (error :       0.85738318 eV)
     electrostatic embedding   =      -0.01750314 Ry
     cavitation energy         =       0.01235683 Ry
     electrolyte free energy   =      -0.00084231 Ry
     correction to one-el term =       3.13522274 Ry

     iteration #  6     ecut=    80.00 Ry     beta= 0.20
     Davidson diagonalization with overlap

---- Real-time Memory Report at c_bands before calling an iterative solver
           245 MiB given to the printing process from OS
             0 MiB allocation reported by mallinfo(arena+hblkhd)
        220976 MiB available memory on the node where the printing process lives
------------------
     ethr =  2.51E-06,  avg # of iterations = 12.5

     negative rho (up, down):  6.491E-04 0.000E+00

     add environment contribution to local potential

     total cpu time spent up to now is      230.5 secs

     total energy              =    -240.56437075 Ry
     estimated scf accuracy    <       0.00038857 Ry

     total charge of GC-SCF    =      -0.38413147 e
     the Fermi energy          =      -2.56154358 eV
                        (error :       0.65754358 eV)
     electrostatic embedding   =      -0.04085502 Ry
     cavitation energy         =       0.01235683 Ry
     electrolyte free energy   =      -0.00022216 Ry
     correction to one-el term =       8.31804603 Ry

     iteration #  7     ecut=    80.00 Ry     beta= 0.20
     Davidson diagonalization with overlap

---- Real-time Memory Report at c_bands before calling an iterative solver
           245 MiB given to the printing process from OS
             0 MiB allocation reported by mallinfo(arena+hblkhd)
        220970 MiB available memory on the node where the printing process lives
------------------
     ethr =  8.03E-07,  avg # of iterations =  5.2

     negative rho (up, down):  5.766E-04 0.000E+00

     add environment contribution to local potential

     total cpu time spent up to now is      243.1 secs

     total energy              =    -240.56604600 Ry
     estimated scf accuracy    <       0.00027548 Ry

     total charge of GC-SCF    =      -0.62665925 e
     the Fermi energy          =      -2.50239380 eV
                        (error :       0.59839380 eV)
     electrostatic embedding   =      -0.06823884 Ry
     cavitation energy         =       0.01235683 Ry
     electrolyte free energy   =      -0.00015696 Ry
     correction to one-el term =      11.87979299 Ry

     iteration #  8     ecut=    80.00 Ry     beta= 0.20
     Davidson diagonalization with overlap

---- Real-time Memory Report at c_bands before calling an iterative solver
           245 MiB given to the printing process from OS
             0 MiB allocation reported by mallinfo(arena+hblkhd)
        220958 MiB available memory on the node where the printing process lives
------------------
     ethr =  5.67E-07,  avg # of iterations = 11.2

     negative rho (up, down):  5.150E-04 0.000E+00

     add environment contribution to local potential

     total cpu time spent up to now is      260.1 secs

     total energy              =    -240.59381702 Ry
     estimated scf accuracy    <       0.00043699 Ry

     total charge of GC-SCF    =      -0.65222112 e
     the Fermi energy          =      -2.47539434 eV
                        (error :       0.57139434 eV)
     electrostatic embedding   =      -0.15465775 Ry
     cavitation energy         =       0.01235683 Ry
     electrolyte free energy   =      -0.00052853 Ry
     correction to one-el term =      18.89102866 Ry

     iteration #  9     ecut=    80.00 Ry     beta= 0.20
     Davidson diagonalization with overlap

---- Real-time Memory Report at c_bands before calling an iterative solver
           245 MiB given to the printing process from OS
             0 MiB allocation reported by mallinfo(arena+hblkhd)
        220947 MiB available memory on the node where the printing process lives
------------------
     ethr =  5.67E-07,  avg # of iterations =  4.5

     negative rho (up, down):  4.297E-04 0.000E+00

     add environment contribution to local potential

     total cpu time spent up to now is      269.6 secs

     total energy              =    -240.57999138 Ry
     estimated scf accuracy    <       0.00036633 Ry

     total charge of GC-SCF    =      -0.83450561 e
     the Fermi energy          =      -2.48180071 eV
                        (error :       0.57780071 eV)
     electrostatic embedding   =      -0.16606152 Ry
     cavitation energy         =       0.01235683 Ry
     electrolyte free energy   =      -0.00059425 Ry
     correction to one-el term =      19.60566138 Ry

     iteration # 10     ecut=    80.00 Ry     beta= 0.20
     Davidson diagonalization with overlap

---- Real-time Memory Report at c_bands before calling an iterative solver
           246 MiB given to the printing process from OS
             0 MiB allocation reported by mallinfo(arena+hblkhd)
        220938 MiB available memory on the node where the printing process lives
------------------
     ethr =  5.67E-07,  avg # of iterations =  9.4

     negative rho (up, down):  3.820E-04 0.000E+00

     add environment contribution to local potential

     total cpu time spent up to now is      285.5 secs

     total energy              =    -240.59490873 Ry
     estimated scf accuracy    <       0.00044511 Ry

     total charge of GC-SCF    =      -0.93442082 e
     the Fermi energy          =      -2.54793649 eV
                        (error :       0.64393649 eV)
     electrostatic embedding   =      -0.25892405 Ry
     cavitation energy         =       0.01235683 Ry
     electrolyte free energy   =      -0.00128789 Ry
     correction to one-el term =      24.59198186 Ry

     iteration # 11     ecut=    80.00 Ry     beta= 0.20
     Davidson diagonalization with overlap

---- Real-time Memory Report at c_bands before calling an iterative solver
           246 MiB given to the printing process from OS
             0 MiB allocation reported by mallinfo(arena+hblkhd)
        220923 MiB available memory on the node where the printing process lives
------------------
     ethr =  5.67E-07,  avg # of iterations =  5.8

     negative rho (up, down):  3.826E-04 0.000E+00

     add environment contribution to local potential

     total cpu time spent up to now is      298.4 secs

     total energy              =    -240.64393791 Ry
     estimated scf accuracy    <       0.00050788 Ry

     total charge of GC-SCF    =      -0.78089899 e
     the Fermi energy          =      -2.49440916 eV
                        (error :       0.59040916 eV)
     electrostatic embedding   =      -0.31689148 Ry
     cavitation energy         =       0.01235683 Ry
     electrolyte free energy   =      -0.00159346 Ry
     correction to one-el term =      27.61880419 Ry

     iteration # 12     ecut=    80.00 Ry     beta= 0.20
     Davidson diagonalization with overlap

---- Real-time Memory Report at c_bands before calling an iterative solver
           246 MiB given to the printing process from OS
             0 MiB allocation reported by mallinfo(arena+hblkhd)
        220924 MiB available memory on the node where the printing process lives
------------------
     ethr =  5.67E-07,  avg # of iterations =  7.0

     negative rho (up, down):  2.768E-04 0.000E+00

     add environment contribution to local potential

     total cpu time spent up to now is      312.2 secs

     total energy              =    -240.63428524 Ry
     estimated scf accuracy    <       0.00044653 Ry

     total charge of GC-SCF    =      -1.49582594 e
     the Fermi energy          =      -2.51861124 eV
                        (error :       0.61461124 eV)
     electrostatic embedding   =      -0.23007896 Ry
     cavitation energy         =       0.01235683 Ry
     electrolyte free energy   =      -0.00101487 Ry
     correction to one-el term =      23.25904030 Ry

     iteration # 13     ecut=    80.00 Ry     beta= 0.20
     Davidson diagonalization with overlap

---- Real-time Memory Report at c_bands before calling an iterative solver
           246 MiB given to the printing process from OS
             0 MiB allocation reported by mallinfo(arena+hblkhd)
        220929 MiB available memory on the node where the printing process lives
------------------
     ethr =  5.67E-07,  avg # of iterations = 12.8

     negative rho (up, down):  2.644E-04 0.000E+00

     add environment contribution to local potential

     total cpu time spent up to now is      331.0 secs

     total energy              =    -240.66306841 Ry
     estimated scf accuracy    <       0.00008099 Ry

     total charge of GC-SCF    =      -1.26662622 e
     the Fermi energy          =      -2.29056651 eV
                        (error :       0.38656651 eV)
     electrostatic embedding   =      -0.74662612 Ry
     cavitation energy         =       0.01235683 Ry
     electrolyte free energy   =      -0.00585083 Ry
     correction to one-el term =      43.91436980 Ry

     iteration # 14     ecut=    80.00 Ry     beta= 0.20
     Davidson diagonalization with overlap

---- Real-time Memory Report at c_bands before calling an iterative solver
           246 MiB given to the printing process from OS
             0 MiB allocation reported by mallinfo(arena+hblkhd)
        220886 MiB available memory on the node where the printing process lives
------------------
     ethr =  1.64E-07,  avg # of iterations = 10.0

     negative rho (up, down):  2.549E-04 0.000E+00

     add environment contribution to local potential

     total cpu time spent up to now is      348.9 secs

     total energy              =    -240.61781493 Ry
     estimated scf accuracy    <       0.00163174 Ry

     total charge of GC-SCF    =      -1.35353565 e
     the Fermi energy          =      -2.21556017 eV
                        (error :       0.31156017 eV)
     electrostatic embedding   =      -0.54028948 Ry
     cavitation energy         =       0.01235683 Ry
     electrolyte free energy   =      -0.00360387 Ry
     correction to one-el term =      37.10182405 Ry

     iteration # 15     ecut=    80.00 Ry     beta= 0.20
     Davidson diagonalization with overlap

---- Real-time Memory Report at c_bands before calling an iterative solver
           246 MiB given to the printing process from OS
             0 MiB allocation reported by mallinfo(arena+hblkhd)
        220892 MiB available memory on the node where the printing process lives
------------------
     ethr =  1.64E-07,  avg # of iterations =  9.5

     negative rho (up, down):  2.296E-04 0.000E+00

     add environment contribution to local potential

     total cpu time spent up to now is      365.7 secs

     total energy              =    -240.73988348 Ry
     estimated scf accuracy    <       0.00171174 Ry

     total charge of GC-SCF    =      -2.13865546 e
     the Fermi energy          =      -2.14555686 eV
                        (error :       0.24155686 eV)
     electrostatic embedding   =      -0.61798935 Ry
     cavitation energy         =       0.01235683 Ry
     electrolyte free energy   =      -0.00450272 Ry
     correction to one-el term =      40.16364235 Ry

     iteration # 16     ecut=    80.00 Ry     beta= 0.20
     Davidson diagonalization with overlap

---- Real-time Memory Report at c_bands before calling an iterative solver
           246 MiB given to the printing process from OS
             0 MiB allocation reported by mallinfo(arena+hblkhd)
        220900 MiB available memory on the node where the printing process lives
------------------
     ethr =  1.64E-07,  avg # of iterations = 14.4

     negative rho (up, down):  2.202E-04 0.000E+00

     add environment contribution to local potential

     total cpu time spent up to now is      387.8 secs

     total energy              =    -240.66642216 Ry
     estimated scf accuracy    <       0.00139469 Ry

     total charge of GC-SCF    =      -1.85949547 e
     the Fermi energy          =      -1.91499143 eV
                        (error :       0.01099143 eV)
     electrostatic embedding   =      -1.44799220 Ry
     cavitation energy         =       0.01235683 Ry
     electrolyte free energy   =      -0.01780994 Ry
     correction to one-el term =      62.05025190 Ry

     iteration # 17     ecut=    80.00 Ry     beta= 0.20
     Davidson diagonalization with overlap

---- Real-time Memory Report at c_bands before calling an iterative solver
           246 MiB given to the printing process from OS
             0 MiB allocation reported by mallinfo(arena+hblkhd)
        220920 MiB available memory on the node where the printing process lives
------------------
     ethr =  1.64E-07,  avg # of iterations =  8.1

     negative rho (up, down):  2.287E-04 0.000E+00

     add environment contribution to local potential

     total cpu time spent up to now is      403.6 secs

     total energy              =    -240.79125914 Ry
     estimated scf accuracy    <       0.00163636 Ry

     total charge of GC-SCF    =      -1.17563474 e
     the Fermi energy          =      -2.00603372 eV
                        (error :       0.10203372 eV)
     electrostatic embedding   =      -1.11216883 Ry
     cavitation energy         =       0.01235683 Ry
     electrolyte free energy   =      -0.01162915 Ry
     correction to one-el term =      54.14288596 Ry

     iteration # 18     ecut=    80.00 Ry     beta= 0.20
     Davidson diagonalization with overlap

---- Real-time Memory Report at c_bands before calling an iterative solver
           246 MiB given to the printing process from OS
             0 MiB allocation reported by mallinfo(arena+hblkhd)
        220925 MiB available memory on the node where the printing process lives
------------------
     ethr =  1.64E-07,  avg # of iterations = 12.1

     negative rho (up, down):  2.213E-04 0.000E+00

     add environment contribution to local potential

     total cpu time spent up to now is      423.9 secs

     total energy              =    -240.61257622 Ry
     estimated scf accuracy    <       0.00112767 Ry

     total charge of GC-SCF    =      -1.23614886 e
     the Fermi energy          =      -2.27654731 eV
                        (error :       0.37254731 eV)
     electrostatic embedding   =      -0.46853086 Ry
     cavitation energy         =       0.01235683 Ry
     electrolyte free energy   =      -0.00284678 Ry
     correction to one-el term =      34.26436475 Ry

     iteration # 19     ecut=    80.00 Ry     beta= 0.20
     Davidson diagonalization with overlap

---- Real-time Memory Report at c_bands before calling an iterative solver
           246 MiB given to the printing process from OS
             0 MiB allocation reported by mallinfo(arena+hblkhd)
        220914 MiB available memory on the node where the printing process lives
------------------
     ethr =  1.64E-07,  avg # of iterations =  6.1

     negative rho (up, down):  2.104E-04 0.000E+00

     add environment contribution to local potential

     total cpu time spent up to now is      436.6 secs

     total energy              =    -240.64453576 Ry
     estimated scf accuracy    <       0.00103924 Ry

     total charge of GC-SCF    =      -1.77422685 e
     the Fermi energy          =      -2.27341078 eV
                        (error :       0.36941078 eV)
     electrostatic embedding   =      -0.51275571 Ry
     cavitation energy         =       0.01235683 Ry
     electrolyte free energy   =      -0.00328493 Ry
     correction to one-el term =      35.82681197 Ry

     iteration # 20     ecut=    80.00 Ry     beta= 0.20
     Davidson diagonalization with overlap

---- Real-time Memory Report at c_bands before calling an iterative solver
           246 MiB given to the printing process from OS
             0 MiB allocation reported by mallinfo(arena+hblkhd)
        220906 MiB available memory on the node where the printing process lives
------------------
     ethr =  1.64E-07,  avg # of iterations = 11.3

     negative rho (up, down):  1.966E-04 0.000E+00

     add environment contribution to local potential

     total cpu time spent up to now is      455.2 secs

     total energy              =    -240.81454475 Ry
     estimated scf accuracy    <       0.00074248 Ry

     total charge of GC-SCF    =      -2.70984677 e
     the Fermi energy          =      -2.13158420 eV
                        (error :       0.22758420 eV)
     electrostatic embedding   =      -1.00534276 Ry
     cavitation energy         =       0.01235683 Ry
     electrolyte free energy   =      -0.00979672 Ry
     correction to one-el term =      50.84279043 Ry

     iteration # 21     ecut=    80.00 Ry     beta= 0.20
     Davidson diagonalization with overlap

---- Real-time Memory Report at c_bands before calling an iterative solver
           246 MiB given to the printing process from OS
             0 MiB allocation reported by mallinfo(arena+hblkhd)
        220892 MiB available memory on the node where the printing process lives
------------------
     ethr =  1.64E-07,  avg # of iterations = 11.1

     negative rho (up, down):  1.886E-04 0.000E+00

     add environment contribution to local potential

     total cpu time spent up to now is      475.6 secs

     total energy              =    -240.66228805 Ry
     estimated scf accuracy    <       0.00014905 Ry

     total charge of GC-SCF    =      -2.38371873 e
     the Fermi energy          =      -1.79403475 eV
                        (error :       0.10996525 eV)
     electrostatic embedding   =      -2.24110447 Ry
     cavitation energy         =       0.01235683 Ry
     electrolyte free energy   =      -0.03629898 Ry
     correction to one-el term =      77.24319075 Ry

     iteration # 22     ecut=    80.00 Ry     beta= 0.20
     Davidson diagonalization with overlap

---- Real-time Memory Report at c_bands before calling an iterative solver
           246 MiB given to the printing process from OS
             0 MiB allocation reported by mallinfo(arena+hblkhd)
        220899 MiB available memory on the node where the printing process lives
------------------
     ethr =  1.64E-07,  avg # of iterations =  9.9

     negative rho (up, down):  1.851E-04 0.000E+00

     add environment contribution to local potential

     total cpu time spent up to now is      493.0 secs

     total energy              =    -240.64980274 Ry
     estimated scf accuracy    <       0.00001808 Ry

     total charge of GC-SCF    =      -2.59544147 e
     the Fermi energy          =      -1.99251247 eV
                        (error :       0.08851247 eV)
     electrostatic embedding   =      -1.74559842 Ry
     cavitation energy         =       0.01235683 Ry
     electrolyte free energy   =      -0.02419588 Ry
     correction to one-el term =      67.48349420 Ry

     iteration # 23     ecut=    80.00 Ry     beta= 0.20
     Davidson diagonalization with overlap

---- Real-time Memory Report at c_bands before calling an iterative solver
           246 MiB given to the printing process from OS
             0 MiB allocation reported by mallinfo(arena+hblkhd)
        220896 MiB available memory on the node where the printing process lives
------------------
     ethr =  3.57E-08,  avg # of iterations =  9.8

     negative rho (up, down):  1.874E-04 0.000E+00

     add environment contribution to local potential

     total cpu time spent up to now is      510.5 secs

     total energy              =    -240.64415358 Ry
     estimated scf accuracy    <       0.00000774 Ry

     total charge of GC-SCF    =      -2.52264787 e
     the Fermi energy          =      -1.90338520 eV
                        (error :       0.00061480 eV)
     electrostatic embedding   =      -2.04980161 Ry
     cavitation energy         =       0.01235683 Ry
     electrolyte free energy   =      -0.03151941 Ry
     correction to one-el term =      73.37804500 Ry

     iteration # 24     ecut=    80.00 Ry     beta= 0.20
     Davidson diagonalization with overlap

---- Real-time Memory Report at c_bands before calling an iterative solver
           246 MiB given to the printing process from OS
             0 MiB allocation reported by mallinfo(arena+hblkhd)
        220897 MiB available memory on the node where the printing process lives
------------------
     ethr =  1.53E-08,  avg # of iterations = 11.4

     negative rho (up, down):  1.837E-04 0.000E+00

     add environment contribution to local potential

     total cpu time spent up to now is      529.0 secs

     total energy              =    -240.64240462 Ry
     estimated scf accuracy    <       0.00000557 Ry

     total charge of GC-SCF    =      -2.57262176 e
     the Fermi energy          =      -1.96730906 eV
                        (error :       0.06330906 eV)
     electrostatic embedding   =      -1.92877690 Ry
     cavitation energy         =       0.01235683 Ry
     electrolyte free energy   =      -0.02869212 Ry
     correction to one-el term =      70.78118786 Ry

     iteration # 25     ecut=    80.00 Ry     beta= 0.20
     Davidson diagonalization with overlap

---- Real-time Memory Report at c_bands before calling an iterative solver
           246 MiB given to the printing process from OS
             0 MiB allocation reported by mallinfo(arena+hblkhd)
        220898 MiB available memory on the node where the printing process lives
------------------
     ethr =  1.10E-08,  avg # of iterations =  9.0

     negative rho (up, down):  1.815E-04 0.000E+00

     add environment contribution to local potential

     total cpu time spent up to now is      546.2 secs

     total energy              =    -240.64260724 Ry
     estimated scf accuracy    <       0.00000085 Ry

     total charge of GC-SCF    =      -2.59280433 e
     the Fermi energy          =      -1.93584318 eV
                        (error :       0.03184318 eV)
     electrostatic embedding   =      -2.00128515 Ry
     cavitation energy         =       0.01235683 Ry
     electrolyte free energy   =      -0.03053410 Ry
     correction to one-el term =      72.21094701 Ry

     iteration # 26     ecut=    80.00 Ry     beta= 0.20
     Davidson diagonalization with overlap

---- Real-time Memory Report at c_bands before calling an iterative solver
           246 MiB given to the printing process from OS
             0 MiB allocation reported by mallinfo(arena+hblkhd)
        220892 MiB available memory on the node where the printing process lives
------------------
     ethr =  1.68E-09,  avg # of iterations =  7.6

     negative rho (up, down):  1.801E-04 0.000E+00

     add environment contribution to local potential

     total cpu time spent up to now is      562.1 secs

     total energy              =    -240.64265291 Ry
     estimated scf accuracy    <       0.00000115 Ry

     total charge of GC-SCF    =      -2.59229739 e
     the Fermi energy          =      -1.92948712 eV
                        (error :       0.02548712 eV)
     electrostatic embedding   =      -2.03006588 Ry
     cavitation energy         =       0.01235683 Ry
     electrolyte free energy   =      -0.03127476 Ry
     correction to one-el term =      72.72795614 Ry

     iteration # 27     ecut=    80.00 Ry     beta= 0.20
     Davidson diagonalization with overlap

---- Real-time Memory Report at c_bands before calling an iterative solver
           246 MiB given to the printing process from OS
             0 MiB allocation reported by mallinfo(arena+hblkhd)
        220897 MiB available memory on the node where the printing process lives
------------------
     ethr =  1.68E-09,  avg # of iterations =  6.6

     negative rho (up, down):  1.796E-04 0.000E+00

     add environment contribution to local potential

     total cpu time spent up to now is      576.4 secs

     total energy              =    -240.64316814 Ry
     estimated scf accuracy    <       0.00000026 Ry

     total charge of GC-SCF    =      -2.64551535 e
     the Fermi energy          =      -1.92440987 eV
                        (error :       0.02040987 eV)
     electrostatic embedding   =      -2.02988772 Ry
     cavitation energy         =       0.01235683 Ry
     electrolyte free energy   =      -0.03127209 Ry
     correction to one-el term =      72.74877658 Ry

     iteration # 28     ecut=    80.00 Ry     beta= 0.20
     Davidson diagonalization with overlap

---- Real-time Memory Report at c_bands before calling an iterative solver
           246 MiB given to the printing process from OS
             0 MiB allocation reported by mallinfo(arena+hblkhd)
        220894 MiB available memory on the node where the printing process lives
------------------
     ethr =  5.07E-10,  avg # of iterations = 11.7

     negative rho (up, down):  1.787E-04 0.000E+00

     add environment contribution to local potential

     total cpu time spent up to now is      597.6 secs

     total energy              =    -240.64298329 Ry
     estimated scf accuracy    <       0.00000029 Ry

     total charge of GC-SCF    =      -2.60936488 e
     the Fermi energy          =      -1.89846684 eV
                        (error :       0.00553316 eV)
     electrostatic embedding   =      -2.10870908 Ry
     cavitation energy         =       0.01235683 Ry
     electrolyte free energy   =      -0.03332426 Ry
     correction to one-el term =      74.20544076 Ry

     iteration # 29     ecut=    80.00 Ry     beta= 0.20
     Davidson diagonalization with overlap

---- Real-time Memory Report at c_bands before calling an iterative solver
           246 MiB given to the printing process from OS
             0 MiB allocation reported by mallinfo(arena+hblkhd)
        220894 MiB available memory on the node where the printing process lives
------------------
     ethr =  5.07E-10,  avg # of iterations = 11.0

     negative rho (up, down):  1.768E-04 0.000E+00

     add environment contribution to local potential

     total cpu time spent up to now is      617.3 secs

     total energy              =    -240.64278826 Ry
     estimated scf accuracy    <       0.00000038 Ry

     total charge of GC-SCF    =      -2.63564113 e
     the Fermi energy          =      -1.91433403 eV
                        (error :       0.01033403 eV)
     electrostatic embedding   =      -2.05312355 Ry
     cavitation energy         =       0.01235683 Ry
     electrolyte free energy   =      -0.03191569 Ry
     correction to one-el term =      73.15863295 Ry

     iteration # 30     ecut=    80.00 Ry     beta= 0.20
     Davidson diagonalization with overlap

---- Real-time Memory Report at c_bands before calling an iterative solver
           247 MiB given to the printing process from OS
             0 MiB allocation reported by mallinfo(arena+hblkhd)
        220869 MiB available memory on the node where the printing process lives
------------------
     ethr =  5.07E-10,  avg # of iterations =  9.8

     negative rho (up, down):  1.736E-04 0.000E+00

     total cpu time spent up to now is      632.1 secs

     End of self-consistent calculation

          k = 0.0000 0.0000 0.0000 (128001 PWs)   bands (ev):

   -48.6642 -48.6641 -48.6546 -48.6545 -48.6545 -48.6545 -48.6480 -48.6480
   -48.3946 -48.3852 -48.3804 -48.3804 -48.3802 -48.3802 -48.3768 -48.3704
    -5.3086  -4.8001  -4.0264  -3.2699  -2.4732  -1.8462  -1.8462  -1.8462
    -1.8462  -1.6456  -1.6456  -1.6456  -1.6456  -1.4399  -0.8895  -0.7538
    -0.6780  -0.1030   0.0216   0.2416

     occupation numbers 
     1.0000   1.0000   1.0000   1.0000   1.0000   1.0000   1.0000   1.0000
     1.0000   1.0000   1.0000   1.0000   1.0000   1.0000   1.0000   1.0000
     1.0000   1.0000   1.0000   1.0000   1.0000   0.1648   0.1648   0.1648
     0.1648   0.0006   0.0006   0.0006   0.0006   0.0000   0.0000   0.0000
     0.0000   0.0000   0.0000   0.0000

          k = 0.0000 0.0964 0.0000 (128124 PWs)   bands (ev):

   -48.6640 -48.6640 -48.6548 -48.6547 -48.6544 -48.6544 -48.6482 -48.6481
   -48.3943 -48.3850 -48.3812 -48.3806 -48.3798 -48.3797 -48.3770 -48.3706
    -5.2790  -4.7697  -3.9933  -3.2336  -2.4361  -2.4020  -2.0127  -2.0040
    -1.7276  -1.6166  -1.5384  -1.5290  -1.4816  -1.3113  -0.8538  -0.8054
    -0.6391  -0.0635   0.0606   0.2808

     occupation numbers 
     1.0000   1.0000   1.0000   1.0000   1.0000   1.0000   1.0000   1.0000
     1.0000   1.0000   1.0000   1.0000   1.0000   1.0000   1.0000   1.0000
     1.0000   1.0000   1.0000   1.0000   1.0000   1.0001   0.9467   0.9138
     0.0095   0.0002   0.0000   0.0000   0.0000   0.0000   0.0000   0.0000
     0.0000   0.0000   0.0000   0.0000

          k = 0.0000 0.1928 0.0000 (128159 PWs)   bands (ev):

   -48.6634 -48.6634 -48.6553 -48.6553 -48.6540 -48.6540 -48.6486 -48.6485
   -48.3936 -48.3846 -48.3824 -48.3807 -48.3797 -48.3789 -48.3772 -48.3711
    -5.1903  -4.6784  -3.8944  -3.1249  -2.9354  -2.4621  -2.3249  -2.1064
    -1.7515  -1.7218  -1.5908  -1.3952  -1.3455  -0.9968  -0.9388  -0.7473
    -0.5227   0.0549   0.1774   0.1889

     occupation numbers 
     1.0000   1.0000   1.0000   1.0000   1.0000   1.0000   1.0000   1.0000
     1.0000   1.0000   1.0000   1.0000   1.0000   1.0000   1.0000   1.0000
     1.0000   1.0000   1.0000   1.0000   1.0000   1.0000   1.0010   1.0821
     0.0189   0.0079   0.0001   0.0000   0.0000   0.0000   0.0000   0.0000
     0.0000   0.0000   0.0000   0.0000

          k = 0.0000 0.2893 0.0000 (128149 PWs)   bands (ev):

   -48.6625 -48.6625 -48.6562 -48.6562 -48.6534 -48.6534 -48.6492 -48.6491
   -48.3925 -48.3839 -48.3839 -48.3805 -48.3800 -48.3778 -48.3777 -48.3719
    -5.0423  -4.5267  -3.7306  -3.4250  -2.9443  -2.9163  -2.1540  -2.1398
    -2.0860  -1.7372  -1.7334  -1.2226  -1.1617  -1.1119  -1.0139  -0.5716
    -0.3287  -0.1532  -0.0622   0.2523

     occupation numbers 
     1.0000   1.0000   1.0000   1.0000   1.0000   1.0000   1.0000   1.0000
     1.0000   1.0000   1.0000   1.0000   1.0000   1.0000   1.0000   1.0000
     1.0000   1.0000   1.0000   1.0000   1.0000   1.0000   1.0564   1.0660
     1.0818   0.0126   0.0112   0.0000   0.0000   0.0000   0.0000   0.0000
     0.0000   0.0000   0.0000   0.0000

          k = 0.0000 0.3857 0.0000 (128143 PWs)   bands (ev):

   -48.6614 -48.6613 -48.6574 -48.6573 -48.6527 -48.6526 -48.6500 -48.6499
   -48.3910 -48.3856 -48.3831 -48.3806 -48.3801 -48.3783 -48.3766 -48.3729
    -4.8353  -4.3153  -3.8628  -3.5035  -3.3403  -2.6932  -2.4900  -2.1497
    -1.8809  -1.8784  -1.6811  -1.5701  -1.2902  -1.0258  -0.6755  -0.6315
    -0.3309  -0.3222  -0.0574   0.5190

     occupation numbers 
     1.0000   1.0000   1.0000   1.0000   1.0000   1.0000   1.0000   1.0000
     1.0000   1.0000   1.0000   1.0000   1.0000   1.0000   1.0000   1.0000
     1.0000   1.0000   1.0000   1.0000   1.0000   1.0000   1.0000   1.0593
     0.2914   0.2810   0.0021   0.0000   0.0000   0.0000   0.0000   0.0000
     0.0000   0.0000   0.0000   0.0000

          k = 0.0000 0.4821 0.0000 (128153 PWs)   bands (ev):

   -48.6601 -48.6600 -48.6587 -48.6586 -48.6518 -48.6517 -48.6508 -48.6508
   -48.3893 -48.3875 -48.3822 -48.3813 -48.3796 -48.3789 -48.3753 -48.3741
    -4.5693  -4.2448  -4.0454  -3.7191  -3.2164  -2.8748  -2.3745  -2.0978
    -2.0044  -1.9943  -1.5846  -1.5489  -1.4519  -1.1456  -0.8086  -0.5733
    -0.2103  -0.0357   0.2297   0.2834

     occupation numbers 
     1.0000   1.0000   1.0000   1.0000   1.0000   1.0000   1.0000   1.0000
     1.0000   1.0000   1.0000   1.0000   1.0000   1.0000   1.0000   1.0000
     1.0000   1.0000   1.0000   1.0000   1.0000   1.0000   1.0002   1.0833
     0.9154   0.8731   0.0000   0.0000   0.0000   0.0000   0.0000   0.0000
     0.0000   0.0000   0.0000   0.0000

          k = 0.0909 0.0321 0.0000 (128124 PWs)   bands (ev):

   -48.6640 -48.6640 -48.6548 -48.6547 -48.6544 -48.6544 -48.6482 -48.6481
   -48.3943 -48.3850 -48.3812 -48.3806 -48.3798 -48.3797 -48.3770 -48.3706
    -5.2790  -4.7697  -3.9933  -3.2336  -2.4361  -2.4020  -2.0127  -2.0040
    -1.7276  -1.6166  -1.5384  -1.5290  -1.4816  -1.3113  -0.8538  -0.8054
    -0.6391  -0.0635   0.0606   0.2808

     occupation numbers 
     1.0000   1.0000   1.0000   1.0000   1.0000   1.0000   1.0000   1.0000
     1.0000   1.0000   1.0000   1.0000   1.0000   1.0000   1.0000   1.0000
     1.0000   1.0000   1.0000   1.0000   1.0000   1.0001   0.9467   0.9138
     0.0095   0.0002   0.0000   0.0000   0.0000   0.0000   0.0000   0.0000
     0.0000   0.0000   0.0000   0.0000

          k = 0.0909 0.1286 0.0000 (128153 PWs)   bands (ev):

   -48.6638 -48.6637 -48.6547 -48.6547 -48.6546 -48.6546 -48.6483 -48.6482
   -48.3940 -48.3849 -48.3815 -48.3815 -48.3793 -48.3793 -48.3769 -48.3708
    -5.2298  -4.7192  -3.9388  -3.1736  -2.5584  -2.5584  -2.3745  -2.1292
    -2.1292  -1.5299  -1.5299  -1.3359  -1.1325  -1.1325  -0.7950  -0.6501
    -0.5744   0.0023   0.1254   0.3461

     occupation numbers 
     1.0000   1.0000   1.0000   1.0000   1.0000   1.0000   1.0000   1.0000
     1.0000   1.0000   1.0000   1.0000   1.0000   1.0000   1.0000   1.0000
     1.0000   1.0000   1.0000   1.0000   1.0000   1.0000   1.0002   1.0725
     1.0725   0.0000   0.0000   0.0000   0.0000   0.0000   0.0000   0.0000
     0.0000   0.0000   0.0000   0.0000

          k = 0.0909 0.2250 0.0000 (128141 PWs)   bands (ev):

   -48.6631 -48.6631 -48.6553 -48.6553 -48.6544 -48.6543 -48.6486 -48.6485
   -48.3932 -48.3845 -48.3828 -48.3816 -48.3793 -48.3785 -48.3771 -48.3713
    -5.1212  -4.6079  -3.8186  -3.0789  -3.0413  -2.6549  -2.5875  -2.2388
    -2.1918  -1.8007  -1.4979  -1.2787  -0.9661  -0.9206  -0.6657  -0.6061
    -0.4320   0.1470   0.2330   0.2679

     occupation numbers 
     1.0000   1.0000   1.0000   1.0000   1.0000   1.0000   1.0000   1.0000
     1.0000   1.0000   1.0000   1.0000   1.0000   1.0000   1.0000   1.0000
     1.0000   1.0000   1.0000   1.0000   1.0000   1.0000   1.0000   1.0119
     1.0318   0.0653   0.0000   0.0000   0.0000   0.0000   0.0000   0.0000
     0.0000   0.0000   0.0000   0.0000

          k = 0.0909 0.3214 0.0000 (128182 PWs)   bands (ev):

   -48.6622 -48.6621 -48.6563 -48.6562 -48.6538 -48.6537 -48.6492 -48.6491
   -48.3919 -48.3843 -48.3838 -48.3814 -48.3796 -48.3776 -48.3774 -48.3722
    -4.9533  -4.4363  -3.6339  -3.5517  -3.0344  -2.8373  -2.6938  -2.2011
    -2.1889  -2.0290  -1.4300  -1.3043  -1.2538  -0.6901  -0.6697  -0.4683
    -0.2974  -0.2121   0.3704   0.3707

     occupation numbers 
     1.0000   1.0000   1.0000   1.0000   1.0000   1.0000   1.0000   1.0000
     1.0000   1.0000   1.0000   1.0000   1.0000   1.0000   1.0000   1.0000
     1.0000   1.0000   1.0000   1.0000   1.0000   1.0000   1.0000   1.0268
     1.0335   0.9987   0.0000   0.0000   0.0000   0.0000   0.0000   0.0000
     0.0000   0.0000   0.0000   0.0000

          k = 0.0909 0.4178 0.0000 (128184 PWs)   bands (ev):

   -48.6610 -48.6610 -48.6574 -48.6574 -48.6530 -48.6530 -48.6499 -48.6498
   -48.3904 -48.3860 -48.3830 -48.3810 -48.3802 -48.3779 -48.3764 -48.3732
    -4.7262  -4.2050  -3.9709  -3.4444  -3.3866  -2.6776  -2.5906  -2.5635
    -2.1584  -1.7455  -1.6801  -1.3783  -1.3237  -0.8052  -0.7988  -0.4543
    -0.2081   0.0554   0.0851   0.4492

     occupation numbers 
     1.0000   1.0000   1.0000   1.0000   1.0000   1.0000   1.0000   1.0000
     1.0000   1.0000   1.0000   1.0000   1.0000   1.0000   1.0000   1.0000
     1.0000   1.0000   1.0000   1.0000   1.0000   1.0000   1.0000   1.0000
     1.0533   0.0160   0.0020   0.0000   0.0000   0.0000   0.0000   0.0000
     0.0000   0.0000   0.0000   0.0000

          k = 0.0909 0.5143 0.0000 (128204 PWs)   bands (ev):

   -48.6597 -48.6596 -48.6588 -48.6587 -48.6522 -48.6521 -48.6508 -48.6507
   -48.3886 -48.3878 -48.3822 -48.3811 -48.3804 -48.3784 -48.3752 -48.3745
    -4.4400  -4.3335  -3.9156  -3.8060  -3.0804  -2.9627  -2.6093  -2.2234
    -2.0929  -2.0658  -1.4644  -1.3892  -1.2538  -1.1766  -0.9519  -0.3065
    -0.2140  -0.1403   0.1007   0.2118

     occupation numbers 
     1.0000   1.0000   1.0000   1.0000   1.0000   1.0000   1.0000   1.0000
     1.0000   1.0000   1.0000   1.0000   1.0000   1.0000   1.0000   1.0000
     1.0000   1.0000   1.0000   1.0000   1.0000   1.0000   1.0000   1.0170
     1.0831   1.0683   0.0000   0.0000   0.0000   0.0000   0.0000   0.0000
     0.0000   0.0000   0.0000   0.0000

          k = 0.0909-0.4500 0.0000 (128255 PWs)   bands (ev):

   -48.6601 -48.6601 -48.6583 -48.6583 -48.6517 -48.6517 -48.6512 -48.6512
   -48.3896 -48.3867 -48.3820 -48.3813 -48.3797 -48.3790 -48.3758 -48.3740
    -4.6383  -4.1137  -4.0953  -3.5705  -3.2870  -2.7223  -2.4926  -2.4538
    -1.9263  -1.8254  -1.6337  -1.5368  -1.1038  -0.9879  -0.9623  -0.6755
    -0.6734  -0.1053   0.0427   0.2003

     occupation numbers 
     1.0000   1.0000   1.0000   1.0000   1.0000   1.0000   1.0000   1.0000
     1.0000   1.0000   1.0000   1.0000   1.0000   1.0000   1.0000   1.0000
     1.0000   1.0000   1.0000   1.0000   1.0000   1.0000   1.0000   1.0000
     0.5169   0.1108   0.0003   0.0000   0.0000   0.0000   0.0000   0.0000
     0.0000   0.0000   0.0000   0.0000

          k = 0.0909-0.3536 0.0000 (128248 PWs)   bands (ev):

   -48.6614 -48.6614 -48.6570 -48.6570 -48.6526 -48.6526 -48.6503 -48.6502
   -48.3912 -48.3849 -48.3829 -48.3806 -48.3795 -48.3790 -48.3772 -48.3729
    -4.8845  -4.3642  -3.6934  -3.5548  -3.1744  -2.7507  -2.3325  -2.3261
    -1.9415  -1.7441  -1.5796  -1.3945  -1.2455  -1.1401  -1.0261  -0.7586
    -0.4713  -0.3843  -0.1222   0.3306

     occupation numbers 
     1.0000   1.0000   1.0000   1.0000   1.0000   1.0000   1.0000   1.0000
     1.0000   1.0000   1.0000   1.0000   1.0000   1.0000   1.0000   1.0000
     1.0000   1.0000   1.0000   1.0000   1.0000   1.0000   1.0008   1.0009
     0.6010   0.0153   0.0000   0.0000   0.0000   0.0000   0.0000   0.0000
     0.0000   0.0000   0.0000   0.0000

          k = 0.0909-0.2571 0.0000 (128274 PWs)   bands (ev):

   -48.6625 -48.6625 -48.6559 -48.6559 -48.6535 -48.6534 -48.6495 -48.6494
   -48.3926 -48.3838 -48.3832 -48.3802 -48.3799 -48.3785 -48.3783 -48.3719
    -5.0717  -4.5560  -3.7614  -3.2366  -2.9789  -2.7365  -2.1760  -2.1363
    -1.9239  -1.5840  -1.5608  -1.5259  -1.3472  -1.3415  -1.0257  -0.6043
    -0.4923  -0.3676   0.0609   0.2128

     occupation numbers 
     1.0000   1.0000   1.0000   1.0000   1.0000   1.0000   1.0000   1.0000
     1.0000   1.0000   1.0000   1.0000   1.0000   1.0000   1.0000   1.0000
     1.0000   1.0000   1.0000   1.0000   1.0000   1.0000   1.0414   1.0682
     0.5044   0.0000   0.0000   0.0000   0.0000   0.0000   0.0000   0.0000
     0.0000   0.0000   0.0000   0.0000

          k = 0.0909-0.1607 0.0000 (128233 PWs)   bands (ev):

   -48.6634 -48.6633 -48.6551 -48.6550 -48.6541 -48.6541 -48.6488 -48.6488
   -48.3936 -48.3844 -48.3817 -48.3801 -48.3799 -48.3796 -48.3777 -48.3712
    -5.2000  -4.6878  -3.9042  -3.1360  -2.7299  -2.3368  -2.2767  -1.9151
    -1.9038  -1.6255  -1.5953  -1.5308  -1.4368  -1.2822  -1.0215  -0.7577
    -0.5357  -0.1975   0.0418   0.1646

     occupation numbers 
     1.0000   1.0000   1.0000   1.0000   1.0000   1.0000   1.0000   1.0000
     1.0000   1.0000   1.0000   1.0000   1.0000   1.0000   1.0000   1.0000
     1.0000   1.0000   1.0000   1.0000   1.0000   1.0006   1.0044   0.4572
     0.3985   0.0003   0.0001   0.0000   0.0000   0.0000   0.0000   0.0000
     0.0000   0.0000   0.0000   0.0000

          k = 0.0909-0.0643 0.0000 (128178 PWs)   bands (ev):

   -48.6639 -48.6638 -48.6546 -48.6545 -48.6545 -48.6545 -48.6484 -48.6483
   -48.3942 -48.3849 -48.3806 -48.3804 -48.3802 -48.3800 -48.3772 -48.3707
    -5.2691  -4.7592  -3.9817  -3.2211  -2.4235  -2.1843  -2.1843  -1.8427
    -1.8427  -1.6873  -1.4975  -1.4974  -1.4472  -1.4472  -1.0316  -0.8413
    -0.6262  -0.0503   0.0737   0.1086

     occupation numbers 
     1.0000   1.0000   1.0000   1.0000   1.0000   1.0000   1.0000   1.0000
     1.0000   1.0000   1.0000   1.0000   1.0000   1.0000   1.0000   1.0000
     1.0000   1.0000   1.0000   1.0000   1.0000   1.0362   1.0362   0.1548
     0.1548   0.0026   0.0000   0.0000   0.0000   0.0000   0.0000   0.0000
     0.0000   0.0000   0.0000   0.0000

          k = 0.1818 0.0643 0.0000 (128159 PWs)   bands (ev):

   -48.6634 -48.6634 -48.6553 -48.6553 -48.6540 -48.6540 -48.6486 -48.6485
   -48.3936 -48.3846 -48.3824 -48.3807 -48.3797 -48.3789 -48.3772 -48.3711
    -5.1903  -4.6784  -3.8944  -3.1249  -2.9354  -2.4621  -2.3249  -2.1064
    -1.7515  -1.7218  -1.5908  -1.3952  -1.3455  -0.9968  -0.9388  -0.7473
    -0.5227   0.0549   0.1774   0.1889

     occupation numbers 
     1.0000   1.0000   1.0000   1.0000   1.0000   1.0000   1.0000   1.0000
     1.0000   1.0000   1.0000   1.0000   1.0000   1.0000   1.0000   1.0000
     1.0000   1.0000   1.0000   1.0000   1.0000   1.0000   1.0010   1.0821
     0.0189   0.0079   0.0001   0.0000   0.0000   0.0000   0.0000   0.0000
     0.0000   0.0000   0.0000   0.0000

          k = 0.1818 0.1607 0.0000 (128141 PWs)   bands (ev):

   -48.6631 -48.6631 -48.6553 -48.6553 -48.6544 -48.6543 -48.6486 -48.6485
   -48.3932 -48.3845 -48.3828 -48.3816 -48.3793 -48.3785 -48.3771 -48.3713
    -5.1212  -4.6079  -3.8186  -3.0789  -3.0413  -2.6549  -2.5875  -2.2388
    -2.1918  -1.8007  -1.4979  -1.2787  -0.9661  -0.9206  -0.6657  -0.6061
    -0.4320   0.1470   0.2330   0.2679

     occupation numbers 
     1.0000   1.0000   1.0000   1.0000   1.0000   1.0000   1.0000   1.0000
     1.0000   1.0000   1.0000   1.0000   1.0000   1.0000   1.0000   1.0000
     1.0000   1.0000   1.0000   1.0000   1.0000   1.0000   1.0000   1.0119
     1.0318   0.0653   0.0000   0.0000   0.0000   0.0000   0.0000   0.0000
     0.0000   0.0000   0.0000   0.0000

          k = 0.1818 0.2571 0.0000 (128129 PWs)   bands (ev):

   -48.6625 -48.6624 -48.6550 -48.6550 -48.6550 -48.6550 -48.6489 -48.6488
   -48.3922 -48.3841 -48.3829 -48.3829 -48.3786 -48.3786 -48.3771 -48.3719
    -4.9926  -4.4766  -3.6774  -3.1620  -3.1620  -2.8854  -2.6538  -2.6538
    -2.0784  -1.8293  -1.8293  -1.0242  -0.9246  -0.9246  -0.5144  -0.3389
    -0.2637   0.1619   0.1619   0.3181

     occupation numbers 
     1.0000   1.0000   1.0000   1.0000   1.0000   1.0000   1.0000   1.0000
     1.0000   1.0000   1.0000   1.0000   1.0000   1.0000   1.0000   1.0000
     1.0000   1.0000   1.0000   1.0000   1.0000   1.0000   1.0000   1.0000
     1.0784   0.1198   0.1198   0.0000   0.0000   0.0000   0.0000   0.0000
     0.0000   0.0000   0.0000   0.0000

          k = 0.1818 0.3536 0.0000 (128197 PWs)   bands (ev):

   -48.6615 -48.6614 -48.6560 -48.6559 -48.6545 -48.6544 -48.6494 -48.6494
   -48.3909 -48.3844 -48.3835 -48.3827 -48.3790 -48.3777 -48.3773 -48.3728
    -4.8045  -4.2848  -3.6180  -3.4720  -3.1863  -3.0918  -2.6623  -2.6584
    -2.2318  -1.8438  -1.8055  -1.2919  -0.8758  -0.8582  -0.3698  -0.2961
    -0.2200  -0.0179   0.1550   0.5105

     occupation numbers 
     1.0000   1.0000   1.0000   1.0000   1.0000   1.0000   1.0000   1.0000
     1.0000   1.0000   1.0000   1.0000   1.0000   1.0000   1.0000   1.0000
     1.0000   1.0000   1.0000   1.0000   1.0000   1.0000   1.0000   1.0000
     1.0140   0.1579   0.0727   0.0000   0.0000   0.0000   0.0000   0.0000
     0.0000   0.0000   0.0000   0.0000

          k = 0.1818 0.4500 0.0000 (128249 PWs)   bands (ev):

   -48.6603 -48.6603 -48.6572 -48.6571 -48.6537 -48.6537 -48.6502 -48.6501
   -48.3893 -48.3861 -48.3827 -48.3822 -48.3796 -48.3777 -48.3766 -48.3739
    -4.5569  -4.0334  -4.0187  -3.4872  -3.2047  -3.1537  -2.6277  -2.6146
    -2.3622  -1.7283  -1.7222  -1.5354  -0.8604  -0.8413  -0.7524  -0.2919
    -0.1364  -0.0178   0.0897   0.2156

     occupation numbers 
     1.0000   1.0000   1.0000   1.0000   1.0000   1.0000   1.0000   1.0000
     1.0000   1.0000   1.0000   1.0000   1.0000   1.0000   1.0000   1.0000
     1.0000   1.0000   1.0000   1.0000   1.0000   1.0000   1.0000   1.0000
     1.0003   0.0096   0.0080   0.0000   0.0000   0.0000   0.0000   0.0000
     0.0000   0.0000   0.0000   0.0000

          k = 0.1818 0.5464 0.0000 (128326 PWs)   bands (ev):

   -48.6590 -48.6589 -48.6585 -48.6584 -48.6528 -48.6528 -48.6511 -48.6510
   -48.3878 -48.3875 -48.3819 -48.3815 -48.3805 -48.3782 -48.3755 -48.3753
    -4.3622  -4.2499  -3.8317  -3.7241  -3.0662  -2.9857  -2.8798  -2.5122
    -2.1203  -2.0014  -1.5971  -1.2872  -1.1543  -0.8791  -0.7356  -0.5966
    -0.4813  -0.4426   0.2021   0.3018

     occupation numbers 
     1.0000   1.0000   1.0000   1.0000   1.0000   1.0000   1.0000   1.0000
     1.0000   1.0000   1.0000   1.0000   1.0000   1.0000   1.0000   1.0000
     1.0000   1.0000   1.0000   1.0000   1.0000   1.0000   1.0000   1.0000
     1.0771   0.9031   0.0001   0.0000   0.0000   0.0000   0.0000   0.0000
     0.0000   0.0000   0.0000   0.0000

          k = 0.1818-0.4178 0.0000 (128335 PWs)   bands (ev):

   -48.6598 -48.6598 -48.6577 -48.6576 -48.6520 -48.6520 -48.6519 -48.6518
   -48.3895 -48.3857 -48.3815 -48.3811 -48.3807 -48.3787 -48.3767 -48.3743
    -4.6475  -4.1208  -3.8844  -3.3597  -3.2922  -2.9261  -2.5054  -2.4611
    -2.3572  -1.6437  -1.5873  -1.4127  -1.2643  -0.9568  -0.9095  -0.7283
    -0.7036  -0.3847  -0.1066   0.1873

     occupation numbers 
     1.0000   1.0000   1.0000   1.0000   1.0000   1.0000   1.0000   1.0000
     1.0000   1.0000   1.0000   1.0000   1.0000   1.0000   1.0000   1.0000
     1.0000   1.0000   1.0000   1.0000   1.0000   1.0000   1.0000   1.0000
     1.0003   0.0005   0.0000   0.0000   0.0000   0.0000   0.0000   0.0000
     0.0000   0.0000   0.0000   0.0000

          k = 0.1818-0.3214 0.0000 (128355 PWs)   bands (ev):

   -48.6611 -48.6610 -48.6564 -48.6564 -48.6530 -48.6529 -48.6509 -48.6509
   -48.3910 -48.3838 -48.3824 -48.3805 -48.3798 -48.3792 -48.3781 -48.3732
    -4.8741  -4.3521  -3.5403  -3.4618  -2.9459  -2.7362  -2.7358  -2.1521
    -2.0992  -1.9276  -1.7287  -1.3563  -1.1764  -1.1566  -0.9918  -0.9811
    -0.3675  -0.1926  -0.1141  -0.1094

     occupation numbers 
     1.0000   1.0000   1.0000   1.0000   1.0000   1.0000   1.0000   1.0000
     1.0000   1.0000   1.0000   1.0000   1.0000   1.0000   1.0000   1.0000
     1.0000   1.0000   1.0000   1.0000   1.0000   1.0000   1.0000   1.0576
     1.0832   0.5242   0.0098   0.0000   0.0000   0.0000   0.0000   0.0000
     0.0000   0.0000   0.0000   0.0000

          k = 0.1818-0.2250 0.0000 (128288 PWs)   bands (ev):

   -48.6621 -48.6621 -48.6554 -48.6553 -48.6538 -48.6538 -48.6500 -48.6500
   -48.3923 -48.3833 -48.3821 -48.3801 -48.3796 -48.3795 -48.3790 -48.3723
    -5.0417  -4.5243  -3.7262  -2.9852  -2.9409  -2.5002  -2.4942  -2.1380
    -2.1275  -1.9006  -1.7236  -1.7036  -1.2178  -1.0256  -0.8913  -0.8606
    -0.5662  -0.3290   0.2150   0.2523

     occupation numbers 
     1.0000   1.0000   1.0000   1.0000   1.0000   1.0000   1.0000   1.0000
     1.0000   1.0000   1.0000   1.0000   1.0000   1.0000   1.0000   1.0000
     1.0000   1.0000   1.0000   1.0000   1.0000   1.0000   1.0000   1.0671
     1.0735   0.3829   0.0084   0.0044   0.0000   0.0000   0.0000   0.0000
     0.0000   0.0000   0.0000   0.0000

          k = 0.1818-0.1286 0.0000 (128250 PWs)   bands (ev):

   -48.6629 -48.6629 -48.6546 -48.6546 -48.6545 -48.6545 -48.6493 -48.6493
   -48.3932 -48.3840 -48.3808 -48.3806 -48.3800 -48.3798 -48.3783 -48.3716
    -5.1504  -4.6364  -3.8479  -3.0745  -2.4610  -2.4610  -2.2744  -2.2235
    -2.0306  -2.0306  -1.6078  -1.4254  -1.4253  -1.0340  -1.0340  -0.6971
    -0.5622  -0.4711   0.1076   0.2297

     occupation numbers 
     1.0000   1.0000   1.0000   1.0000   1.0000   1.0000   1.0000   1.0000
     1.0000   1.0000   1.0000   1.0000   1.0000   1.0000   1.0000   1.0000
     1.0000   1.0000   1.0000   1.0000   1.0000   1.0000   1.0047   1.0169
     1.0031   1.0030   0.0001   0.0000   0.0000   0.0000   0.0000   0.0000
     0.0000   0.0000   0.0000   0.0000

          k = 0.1818-0.0321 0.0000 (128233 PWs)   bands (ev):

   -48.6634 -48.6633 -48.6551 -48.6550 -48.6541 -48.6541 -48.6488 -48.6488
   -48.3936 -48.3844 -48.3817 -48.3801 -48.3799 -48.3796 -48.3777 -48.3712
    -5.2000  -4.6878  -3.9042  -3.1360  -2.7299  -2.3368  -2.2767  -1.9151
    -1.9038  -1.6255  -1.5953  -1.5308  -1.4368  -1.2822  -1.0215  -0.7577
    -0.5357  -0.1975   0.0418   0.1646

     occupation numbers 
     1.0000   1.0000   1.0000   1.0000   1.0000   1.0000   1.0000   1.0000
     1.0000   1.0000   1.0000   1.0000   1.0000   1.0000   1.0000   1.0000
     1.0000   1.0000   1.0000   1.0000   1.0000   1.0006   1.0044   0.4572
     0.3985   0.0003   0.0001   0.0000   0.0000   0.0000   0.0000   0.0000
     0.0000   0.0000   0.0000   0.0000

          k = 0.2727 0.0964 0.0000 (128149 PWs)   bands (ev):

   -48.6625 -48.6625 -48.6562 -48.6562 -48.6534 -48.6534 -48.6492 -48.6491
   -48.3925 -48.3839 -48.3839 -48.3805 -48.3800 -48.3778 -48.3777 -48.3719
    -5.0423  -4.5267  -3.7306  -3.4250  -2.9443  -2.9163  -2.1540  -2.1398
    -2.0860  -1.7372  -1.7334  -1.2226  -1.1617  -1.1119  -1.0139  -0.5716
    -0.3287  -0.1532  -0.0622   0.2523

     occupation numbers 
     1.0000   1.0000   1.0000   1.0000   1.0000   1.0000   1.0000   1.0000
     1.0000   1.0000   1.0000   1.0000   1.0000   1.0000   1.0000   1.0000
     1.0000   1.0000   1.0000   1.0000   1.0000   1.0000   1.0564   1.0660
     1.0818   0.0126   0.0112   0.0000   0.0000   0.0000   0.0000   0.0000
     0.0000   0.0000   0.0000   0.0000

          k = 0.2727 0.1928 0.0000 (128182 PWs)   bands (ev):

   -48.6622 -48.6621 -48.6563 -48.6562 -48.6538 -48.6537 -48.6492 -48.6491
   -48.3919 -48.3843 -48.3838 -48.3814 -48.3796 -48.3776 -48.3774 -48.3722
    -4.9533  -4.4363  -3.6339  -3.5517  -3.0344  -2.8373  -2.6938  -2.2011
    -2.1889  -2.0290  -1.4300  -1.3043  -1.2538  -0.6901  -0.6697  -0.4683
    -0.2974  -0.2121   0.3704   0.3707

     occupation numbers 
     1.0000   1.0000   1.0000   1.0000   1.0000   1.0000   1.0000   1.0000
     1.0000   1.0000   1.0000   1.0000   1.0000   1.0000   1.0000   1.0000
     1.0000   1.0000   1.0000   1.0000   1.0000   1.0000   1.0000   1.0268
     1.0335   0.9987   0.0000   0.0000   0.0000   0.0000   0.0000   0.0000
     0.0000   0.0000   0.0000   0.0000

          k = 0.2727 0.2893 0.0000 (128197 PWs)   bands (ev):

   -48.6615 -48.6614 -48.6560 -48.6559 -48.6545 -48.6544 -48.6494 -48.6494
   -48.3909 -48.3844 -48.3835 -48.3827 -48.3790 -48.3777 -48.3773 -48.3728
    -4.8045  -4.2848  -3.6180  -3.4720  -3.1863  -3.0918  -2.6623  -2.6584
    -2.2318  -1.8438  -1.8055  -1.2919  -0.8758  -0.8582  -0.3698  -0.2961
    -0.2200  -0.0179   0.1550   0.5105

     occupation numbers 
     1.0000   1.0000   1.0000   1.0000   1.0000   1.0000   1.0000   1.0000
     1.0000   1.0000   1.0000   1.0000   1.0000   1.0000   1.0000   1.0000
     1.0000   1.0000   1.0000   1.0000   1.0000   1.0000   1.0000   1.0000
     1.0140   0.1579   0.0727   0.0000   0.0000   0.0000   0.0000   0.0000
     0.0000   0.0000   0.0000   0.0000

          k = 0.2727 0.3857 0.0000 (128238 PWs)   bands (ev):

   -48.6605 -48.6605 -48.6555 -48.6554 -48.6554 -48.6554 -48.6500 -48.6499
   -48.3896 -48.3841 -48.3841 -48.3829 -48.3781 -48.3781 -48.3775 -48.3738
    -4.5958  -4.0728  -3.6249  -3.6249  -3.2463  -3.0896  -3.0896  -2.4087
    -2.2146  -2.2146  -1.5841  -1.2699  -1.2699  -0.5051  -0.3695  -0.3695
    -0.1450  -0.0585   0.1793   0.2449

     occupation numbers 
     1.0000   1.0000   1.0000   1.0000   1.0000   1.0000   1.0000   1.0000
     1.0000   1.0000   1.0000   1.0000   1.0000   1.0000   1.0000   1.0000
     1.0000   1.0000   1.0000   1.0000   1.0000   1.0000   1.0000   1.0000
     1.0205   1.0205   0.0000   0.0000   0.0000   0.0000   0.0000   0.0000
     0.0000   0.0000   0.0000   0.0000

          k = 0.2727 0.4821 0.0000 (128305 PWs)   bands (ev):

   -48.6594 -48.6593 -48.6566 -48.6566 -48.6547 -48.6546 -48.6507 -48.6506
   -48.3879 -48.3857 -48.3836 -48.3822 -48.3789 -48.3778 -48.3771 -48.3750
    -4.3271  -4.0071  -3.8010  -3.5740  -3.4697  -3.0289  -2.9593  -2.6016
    -2.1373  -2.0907  -1.6955  -1.2505  -1.1841  -0.8414  -0.7686  -0.3431
    -0.2965  -0.2849   0.1366   0.2364

     occupation numbers 
     1.0000   1.0000   1.0000   1.0000   1.0000   1.0000   1.0000   1.0000
[...]

   -48.6704 -48.6690 -48.6677 -48.6664 -48.6659 -48.6655 -48.6645 -48.6642
   -48.4099 -48.4050 -48.4049 -48.4021 -48.4021 -48.4020 -48.4005 -48.3980
    -4.4729  -3.9486  -3.6062  -3.2585  -3.1169  -3.0573  -2.7439  -2.3688
    -2.2723  -2.1600  -1.8904  -1.8735  -1.4642  -1.2128  -1.0539  -0.9243
    -0.3624  -0.1438   0.0227   0.0844

     occupation numbers 
     1.0000   1.0000   1.0000   1.0000   1.0000   1.0000   1.0000   1.0000
     1.0000   1.0000   1.0000   1.0000   1.0000   1.0000   1.0000   1.0000
     1.0000   1.0000   1.0000   1.0000   1.0000   1.0000   1.0000   1.0002
     1.0050   1.0521   0.3348   0.2615   0.0000   0.0000   0.0000   0.0000
     0.0000   0.0000   0.0000   0.0000

          k = 0.4545-0.1286 0.0000 (128342 PWs)   bands (ev):

   -48.6712 -48.6699 -48.6688 -48.6674 -48.6648 -48.6647 -48.6634 -48.6633
   -48.4107 -48.4063 -48.4037 -48.4030 -48.4027 -48.4012 -48.3995 -48.3971
    -4.5826  -4.0628  -3.5943  -3.2844  -3.2414  -3.0793  -2.7301  -2.4086
    -2.2322  -1.8252  -1.8153  -1.6032  -1.3748  -1.2933  -0.8299  -0.7121
    -0.3881  -0.3486  -0.0504   0.0476

     occupation numbers 
     1.0000   1.0000   1.0000   1.0000   1.0000   1.0000   1.0000   1.0000
     1.0000   1.0000   1.0000   1.0000   1.0000   1.0000   1.0000   1.0000
     1.0000   1.0000   1.0000   1.0000   1.0000   1.0000   1.0000   1.0000
     1.0138   0.1108   0.0903   0.0001   0.0000   0.0000   0.0000   0.0000
     0.0000   0.0000   0.0000   0.0000

          k = 0.4545-0.0321 0.0000 (128335 PWs)   bands (ev):

   -48.6718 -48.6705 -48.6697 -48.6683 -48.6641 -48.6639 -48.6627 -48.6625
   -48.4113 -48.4076 -48.4037 -48.4032 -48.4026 -48.4009 -48.3985 -48.3965
    -4.6330  -4.1166  -3.8678  -3.3530  -3.3013  -2.9058  -2.5128  -2.4732
    -2.3488  -1.6677  -1.5987  -1.4224  -1.2431  -0.9376  -0.8958  -0.7234
    -0.7193  -0.3993  -0.1175   0.1764

     occupation numbers 
     1.0000   1.0000   1.0000   1.0000   1.0000   1.0000   1.0000   1.0000
     1.0000   1.0000   1.0000   1.0000   1.0000   1.0000   1.0000   1.0000
     1.0000   1.0000   1.0000   1.0000   1.0000   1.0000   1.0000   1.0000
     1.0004   0.0013   0.0001   0.0000   0.0000   0.0000   0.0000   0.0000
     0.0000   0.0000   0.0000   0.0000

          k = 0.4545 0.0643 0.0000 (128255 PWs)   bands (ev):

   -48.6721 -48.6708 -48.6704 -48.6690 -48.6638 -48.6632 -48.6624 -48.6619
   -48.4114 -48.4087 -48.4042 -48.4034 -48.4016 -48.4011 -48.3978 -48.3962
    -4.6239  -4.1094  -4.0793  -3.5644  -3.2959  -2.7301  -2.4711  -2.4657
    -1.9168  -1.8370  -1.6574  -1.5150  -1.0925  -0.9965  -0.9830  -0.6686
    -0.6550  -0.1161   0.0301   0.1893

     occupation numbers 
     1.0000   1.0000   1.0000   1.0000   1.0000   1.0000   1.0000   1.0000
     1.0000   1.0000   1.0000   1.0000   1.0000   1.0000   1.0000   1.0000
     1.0000   1.0000   1.0000   1.0000   1.0000   1.0000   1.0000   1.0000
     0.4672   0.1396   0.0009   0.0000   0.0000   0.0000   0.0000   0.0000
     0.0000   0.0000   0.0000   0.0000

     the Fermi energy is    -1.9040 ev

!    total energy              =    -240.64290828 Ry
     total all-electron energy =      -240.643038 Ry
     estimated scf accuracy    <          8.9E-13 Ry

!    total charge of GC-SCF    =      -2.64041029 e
     smearing contrib. (-TS)   =       0.00037054 Ry
     internal energy E=F+TS    =    -240.64327882 Ry

     The total energy is F=E-TS. E is the sum of the following terms:
     one-electron contribution =   -2602.31441887 Ry
     hartree contribution      =    1276.88324148 Ry
     xc contribution           =     -58.10202816 Ry
     ewald contribution        =    1069.88941180 Ry
     one-center paw contrib.   =       1.41105181 Ry
      -> PAW hartree energy AE =       7.45444677 Ry
      -> PAW hartree energy PS =      -7.23184535 Ry
      -> PAW xc energy AE      =      -3.49025598 Ry
      -> PAW xc energy PS      =       3.35584507 Ry
      -> total E_H with PAW    =    1277.10584290 Ry
      -> total E_XC with PAW   =     -58.23643907 Ry
     pot.stat. contrib. (-muN) =       0.36950276 Ry
     electrostatic embedding   =      -2.08546412 Ry
     cavitation energy         =       0.01235683 Ry
     electrolyte free energy   =      -0.03312660 Ry
     correction to one-el term =      73.32619426 Ry

     WARNING: you are using the parabolic pbc correction;
              the potential shift above must be added to 
              band and Fermi energies.

     convergence has been achieved in  12 iterations
     The dielectric solvent contribution to forces
     atom    1 type  1   force =    -0.00000021   -0.00000136    0.12038613
     atom    2 type  1   force =    -0.00000000    0.00000000    0.04172531
     atom    3 type  1   force =     0.00000001   -0.00000092   -0.04169253
     atom    4 type  1   force =    -0.00000000    0.00000003   -0.12042204
     atom    5 type  1   force =    -0.00000018    0.00000140    0.12038435
     atom    6 type  1   force =    -0.00000000   -0.00000000    0.04172476
     atom    7 type  1   force =     0.00000005    0.00000093   -0.04168886
     atom    8 type  1   force =    -0.00000001   -0.00000002   -0.12042277
     atom    9 type  1   force =     0.00000016   -0.00000140    0.12038436
     atom   10 type  1   force =    -0.00000000    0.00000000    0.04172353
     atom   11 type  1   force =    -0.00000005   -0.00000093   -0.04168886
     atom   12 type  1   force =    -0.00000001    0.00000003   -0.12042065
     atom   13 type  1   force =     0.00000020    0.00000136    0.12038612
     atom   14 type  1   force =    -0.00000000   -0.00000000    0.04172263
     atom   15 type  1   force =    -0.00000001    0.00000092   -0.04169253
     atom   16 type  1   force =    -0.00000002   -0.00000003   -0.12042438


     Forces acting on atoms (cartesian axes, Ry/au):

     atom    1 type  1   force =     0.00000195    0.00000418    0.00007772
     atom    2 type  1   force =     0.00000000    0.00000000   -0.00029166
     atom    3 type  1   force =    -0.00000111    0.00000913    0.00037481
     atom    4 type  1   force =     0.00000000    0.00000000   -0.00016115
     atom    5 type  1   force =     0.00000329   -0.00000409    0.00007959
     atom    6 type  1   force =     0.00000000    0.00000000   -0.00029814
     atom    7 type  1   force =    -0.00000020   -0.00000885    0.00038175
     atom    8 type  1   force =     0.00000000    0.00000000   -0.00016021
     atom    9 type  1   force =    -0.00000329    0.00000409    0.00007959
     atom   10 type  1   force =     0.00000000    0.00000000   -0.00029793
     atom   11 type  1   force =     0.00000020    0.00000885    0.00038175
     atom   12 type  1   force =     0.00000000    0.00000000   -0.00016573
     atom   13 type  1   force =    -0.00000195   -0.00000418    0.00007772
     atom   14 type  1   force =     0.00000000    0.00000000   -0.00029603
     atom   15 type  1   force =     0.00000111   -0.00000913    0.00037481
     atom   16 type  1   force =     0.00000000    0.00000000   -0.00015689
     The non-local contrib.  to forces
     atom    1 type  1   force =     0.00000236    0.00000817   -0.02884656
     atom    2 type  1   force =     0.00000000    0.00000000    0.00192265
     atom    3 type  1   force =     0.00000056    0.00001217   -0.00181727
     atom    4 type  1   force =     0.00000000    0.00000000    0.02872640
     atom    5 type  1   force =     0.00000108   -0.00000462   -0.02884772
     atom    6 type  1   force =     0.00000000    0.00000000    0.00191723
     atom    7 type  1   force =    -0.00000017   -0.00001324   -0.00181440
     atom    8 type  1   force =     0.00000000    0.00000000    0.02873451
     atom    9 type  1   force =    -0.00000108    0.00000462   -0.02884772
     atom   10 type  1   force =     0.00000000    0.00000000    0.00192385
     atom   11 type  1   force =     0.00000017    0.00001324   -0.00181440
     atom   12 type  1   force =     0.00000000    0.00000000    0.02872458
     atom   13 type  1   force =    -0.00000236   -0.00000817   -0.02884656
     atom   14 type  1   force =     0.00000000    0.00000000    0.00191993
     atom   15 type  1   force =    -0.00000056   -0.00001217   -0.00181727
     atom   16 type  1   force =     0.00000000    0.00000000    0.02873255
     The ionic contribution  to forces
     atom    1 type  1   force =     0.00005212    0.00012661   -8.97391366
     atom    2 type  1   force =    -0.00000006   -0.00000006   -3.00454521
     atom    3 type  1   force =    -0.00001463    0.00024461    3.00528938
     atom    4 type  1   force =    -0.00000004   -0.00000011    8.97326252
     atom    5 type  1   force =     0.00006332   -0.00010303   -8.97404837
     atom    6 type  1   force =     0.00000006    0.00000007   -3.00460969
     atom    7 type  1   force =    -0.00000689   -0.00024446    3.00508747
     atom    8 type  1   force =     0.00000004    0.00000011    8.97334046
     atom    9 type  1   force =    -0.00006335    0.00010302   -8.97404818
     atom   10 type  1   force =    -0.00000001   -0.00000005   -3.00446573
     atom   11 type  1   force =     0.00000685    0.00024444    3.00508755
     atom   12 type  1   force =    -0.00000001   -0.00000011    8.97332175
     atom   13 type  1   force =    -0.00005215   -0.00012663   -8.97391382
     atom   14 type  1   force =     0.00000010    0.00000009   -3.00441350
     atom   15 type  1   force =     0.00001458   -0.00024463    3.00528929
     atom   16 type  1   force =     0.00000007    0.00000013    8.97327974
     The local contribution  to forces
     atom    1 type  1   force =     0.00000328   -0.00013976    8.88245065
     atom    2 type  1   force =     0.00005792   -0.00002187    2.96060603
     atom    3 type  1   force =     0.00006880   -0.00025639   -2.96140604
     atom    4 type  1   force =     0.00005735   -0.00002303   -8.88172793
     atom    5 type  1   force =    -0.00000533    0.00009162    8.88259272
     atom    6 type  1   force =     0.00010289   -0.00001644    2.96066999
     atom    7 type  1   force =     0.00006267    0.00023822   -2.96120229
     atom    8 type  1   force =     0.00010408   -0.00001409   -8.88181230
     atom    9 type  1   force =     0.00011656   -0.00011268    8.88258909
     atom   10 type  1   force =     0.00005868   -0.00002129    2.96052084
     atom   11 type  1   force =     0.00004911   -0.00025756   -2.96120350
     atom   12 type  1   force =     0.00005811   -0.00002245   -8.88179133
     atom   13 type  1   force =     0.00010795    0.00011870    8.88245246
     atom   14 type  1   force =     0.00010365   -0.00001586    2.96047534
     atom   15 type  1   force =     0.00004298    0.00023705   -2.96140423
     atom   16 type  1   force =     0.00010484   -0.00001292   -8.88174469
     The core correction contribution to forces
     atom    1 type  1   force =     0.00000000    0.00000000    0.00000000
     atom    2 type  1   force =     0.00000000    0.00000000    0.00000000
     atom    3 type  1   force =     0.00000000    0.00000000    0.00000000
     atom    4 type  1   force =     0.00000000    0.00000000    0.00000000
     atom    5 type  1   force =     0.00000000    0.00000000    0.00000000
     atom    6 type  1   force =     0.00000000    0.00000000    0.00000000
     atom    7 type  1   force =     0.00000000    0.00000000    0.00000000
     atom    8 type  1   force =     0.00000000    0.00000000    0.00000000
     atom    9 type  1   force =     0.00000000    0.00000000    0.00000000
     atom   10 type  1   force =     0.00000000    0.00000000    0.00000000
     atom   11 type  1   force =     0.00000000    0.00000000    0.00000000
     atom   12 type  1   force =     0.00000000    0.00000000    0.00000000
     atom   13 type  1   force =     0.00000000    0.00000000    0.00000000
     atom   14 type  1   force =     0.00000000    0.00000000    0.00000000
     atom   15 type  1   force =     0.00000000    0.00000000    0.00000000
     atom   16 type  1   force =     0.00000000    0.00000000    0.00000000
     The Hubbard contrib.    to forces
     atom    1 type  1   force =     0.00000000    0.00000000    0.00000000
     atom    2 type  1   force =     0.00000000    0.00000000    0.00000000
     atom    3 type  1   force =     0.00000000    0.00000000    0.00000000
     atom    4 type  1   force =     0.00000000    0.00000000    0.00000000
     atom    5 type  1   force =     0.00000000    0.00000000    0.00000000
     atom    6 type  1   force =     0.00000000    0.00000000    0.00000000
     atom    7 type  1   force =     0.00000000    0.00000000    0.00000000
     atom    8 type  1   force =     0.00000000    0.00000000    0.00000000
     atom    9 type  1   force =     0.00000000    0.00000000    0.00000000
     atom   10 type  1   force =     0.00000000    0.00000000    0.00000000
     atom   11 type  1   force =     0.00000000    0.00000000    0.00000000
     atom   12 type  1   force =     0.00000000    0.00000000    0.00000000
     atom   13 type  1   force =     0.00000000    0.00000000    0.00000000
     atom   14 type  1   force =     0.00000000    0.00000000    0.00000000
     atom   15 type  1   force =     0.00000000    0.00000000    0.00000000
     atom   16 type  1   force =     0.00000000    0.00000000    0.00000000
     The SCF correction term to forces
     atom    1 type  1   force =    -0.00000000   -0.00000002    0.00000040
     atom    2 type  1   force =    -0.00000000    0.00000000   -0.00000038
     atom    3 type  1   force =     0.00000000   -0.00000002    0.00000047
     atom    4 type  1   force =    -0.00000000   -0.00000000   -0.00000005
     atom    5 type  1   force =    -0.00000000    0.00000001    0.00000039
     atom    6 type  1   force =    -0.00000000    0.00000000   -0.00000037
     atom    7 type  1   force =    -0.00000000    0.00000002    0.00000046
     atom    8 type  1   force =     0.00000000   -0.00000000   -0.00000005
     atom    9 type  1   force =     0.00000000   -0.00000001    0.00000039
     atom   10 type  1   force =     0.00000000   -0.00000000   -0.00000036
     atom   11 type  1   force =     0.00000000   -0.00000002    0.00000046
     atom   12 type  1   force =    -0.00000000    0.00000000   -0.00000001
     atom   13 type  1   force =     0.00000000    0.00000002    0.00000040
     atom   14 type  1   force =    -0.00000000    0.00000000   -0.00000038
     atom   15 type  1   force =    -0.00000000    0.00000002    0.00000047
     atom   16 type  1   force =    -0.00000000    0.00000000   -0.00000005

     Total force =     0.001026     Total SCF correction =     0.000001
     Energy error            =      1.5E-06 Ry
     Gradient error          =      3.8E-04 Ry/Bohr

     bfgs converged in  16 scf cycles and  15 bfgs steps
     (criteria: energy <  1.0E-05 Ry, force <  3.9E-04 Ry/Bohr)

     End of BFGS Geometry Optimization

     Final energy             =    -240.6429082845 Ry

     File ./Li/Lithium.bfgs deleted, as requested
Begin final coordinates

ATOMIC_POSITIONS (angstrom)
Li               0.9915911254        1.4023470677       19.8975607552
Li               1.9832882700        2.8047934300       22.3318426620
Li               0.9916459949        1.4022902630       24.7966019904
Li               1.9832882800        2.8047934500       27.2340391009
Li              -0.0000242266        4.2072538215       19.8974875730
Li               0.9916443500        5.6095863900       22.3318590590
Li               0.0000240633        4.2072891162       24.7964901910
Li               0.9916443300        5.6095863500       27.2340294797
Li               3.9666008466        1.4023326485       19.8974876330
Li               4.9582206700        2.8047934200       22.3318912240
Li               3.9665525467        1.4022973238       24.7964902110
Li               4.9582206800        2.8047934400       27.2340929970
Li               2.9749854946        4.2072394023       19.8975607252
Li               3.9665767500        5.6095863800       22.3319232112
Li               2.9749306151        4.2072961770       24.7966019604
Li               3.9665767300        5.6095863300       27.2339852839
End final coordinates



     Writing all to output data dir ./Li/Lithium.save/ :
     XML data file
     init_run     :     10.94s CPU     17.85s WALL (       1 calls)
     electrons    :   3245.10s CPU   4076.28s WALL (      16 calls)
     update_pot   :      0.76s CPU      0.94s WALL (      15 calls)
     forces       :     29.77s CPU     31.39s WALL (      16 calls)

     Called by init_run:
     wfcinit      :      1.78s CPU      2.39s WALL (       1 calls)
     wfcinit:wfcr :      1.70s CPU      2.30s WALL (      61 calls)
     potinit      :      0.65s CPU      0.71s WALL (       1 calls)
     hinit0       :      1.13s CPU      1.23s WALL (       1 calls)

     Called by electrons:
     c_bands      :   2484.73s CPU   3129.45s WALL (     276 calls)
     sum_band     :    220.72s CPU    306.85s WALL (     276 calls)
     v_of_rho     :      9.82s CPU     11.69s WALL (     277 calls)
     v_h          :      0.97s CPU      1.13s WALL (     277 calls)
     v_xc         :      8.84s CPU     10.55s WALL (     277 calls)
     newd         :      6.55s CPU      6.90s WALL (     277 calls)
     PAW_pot      :      2.03s CPU      2.69s WALL (     292 calls)
     mix_rho      :     29.25s CPU     45.60s WALL (     276 calls)

     Called by c_bands:
     init_us_2    :     11.80s CPU     13.51s WALL (   35624 calls)
     cegterg      :   2458.12s CPU   3093.78s WALL (   17203 calls)

     Called by sum_band:
     sum_band:wei :      0.57s CPU      0.62s WALL (     276 calls)
     sum_band:loo :    211.68s CPU    296.81s WALL (     276 calls)
     sum_band:buf :      1.66s CPU      2.15s WALL (   16836 calls)
     sum_band:ini :      4.49s CPU      5.56s WALL (   16836 calls)
     sum_band:cal :     22.04s CPU     28.63s WALL (   17751 calls)
     sum_band:bec :      0.64s CPU      0.83s WALL (   17751 calls)
     addusdens    :      6.39s CPU      6.53s WALL (     276 calls)
                                        0.00s GPU  (     276 calls)
     addusd:skk   :      0.84s CPU      0.88s WALL (     276 calls)
                                        0.00s GPU  (     276 calls)

     Called by *egterg:
     cdiaghg      :    523.66s CPU    559.89s WALL (  147535 calls)
     cegterg:over :    128.23s CPU    145.49s WALL (  132439 calls)
     cegterg:upda :    110.14s CPU    115.36s WALL (  132439 calls)
     cegterg:last :     27.61s CPU     28.25s WALL (   20104 calls)
     h_psi        :   1558.27s CPU   2122.44s WALL (  149703 calls)
     s_psi        :     72.17s CPU     81.61s WALL (  149703 calls)
     g_psi        :      2.25s CPU      2.40s WALL (  132439 calls)

     Called by h_psi:
     h_psi:calbec :    125.12s CPU    161.35s WALL (  149703 calls)
     vloc_psi     :   1348.80s CPU   1860.72s WALL (  149703 calls)
                                        0.00s GPU  (  149703 calls)
     add_vuspsi   :     76.52s CPU     91.98s WALL (  149703 calls)

     General routines
     calbec       :    150.94s CPU    194.09s WALL (  171358 calls)
     fft          :      8.76s CPU     11.12s WALL (    3631 calls)
     ffts         :     23.68s CPU     37.30s WALL (   30688 calls)
     fftw         :   1470.28s CPU   2039.13s WALL ( 4905168 calls)
     interpolate  :      1.54s CPU      1.79s WALL (     277 calls)

     Parallel routines

     PAW routines
     PAW_pot      :      2.03s CPU      2.69s WALL (     292 calls)
     PAW_symme    :      0.10s CPU      0.13s WALL (     568 calls)

     Environ routines

     PWSCF        :  55m27.89s CPU      1h 9m WALL


   This run was terminated on:  13:19:27   3Jan2025            

=------------------------------------------------------------------------------=
   JOB DONE.
=------------------------------------------------------------------------------=
