
     Program PWSCF v.7.4 starts on 23Jan2025 at  0:35:54 

     This program is part of the open-source Quantum ESPRESSO suite
     for quantum simulation of materials; please cite
         "P. Giannozzi et al., J. Phys.:Condens. Matter 21 395502 (2009);
         "P. Giannozzi et al., J. Phys.:Condens. Matter 29 465901 (2017);
         "P. Giannozzi et al., J. Chem. Phys. 152 154105 (2020);
          URL http://www.quantum-espresso.org", 
     in publications or presentations arising from this work. More details at
     http://www.quantum-espresso.org/quote

     Parallel version (MPI & OpenMP), running on     384 processor cores
     Number of MPI processes:               384
     Threads/MPI process:                     1

     MPI processes distributed on     2 nodes
     668350 MiB available memory on the printing compute node when the environment starts
 
     Reading input from espresso.pwi
Warning: card &CELL ignored
Warning: card    PRESS_CONV_THR   = 0.1 ignored
Warning: card    CELL_DOFREE      = 'ALL' ignored
Warning: card / ignored
Warning: card &FCP ignored
Warning: card / ignored
Warning: card &RISM ignored
Warning: card / ignored

     Current dimensions of program PWSCF are:
     Max number of different atomic species (ntypx) = 10
     Max number of k-points (npk) =  40000
     Max angular momentum in pseudopotentials (lmaxx) =  4

     IMPORTANT: XC functional enforced from input :
     Exchange-correlation= PBE
                           (   1   4   3   4   0   0   0)
     Any further DFT definition will be discarded
     Please, verify this is what you really want

     Found identity + (  0.5000 -0.0000  0.0000) symmetry
     This is a supercell, fractional translations are disabled
 
     K-points division:     npool     =       2
     R & G space division:  proc/nbgrp/npool/nimage =     192
     Subspace diagonalization in iterative solution of the eigenvalue problem:
     a serial algorithm will be used

 
     Parallelization info
     --------------------
     sticks:   dense  smooth     PW     G-vecs:    dense   smooth      PW
     Min          52      20      5                22848     5740     783
     Max          53      21      6                22893     5811     834
     Sum       10033    4007   1075              4389781  1110297  155461
 
     Using Slab Decomposition
 


     bravais-lattice index     =            0
     lattice parameter (alat)  =      11.2436  a.u.
     unit-cell volume          =   11489.0806 (a.u.)^3
     number of atoms/cell      =           28
     number of atomic types    =            1
     number of electrons       =        84.00
     number of Kohn-Sham states=           63
     kinetic-energy cutoff     =      80.0000  Ry
     charge density cutoff     =     800.0000  Ry
     scf convergence threshold =      1.0E-06
     mixing beta               =       0.2000
     number of iterations used =            8  local-TF  mixing
     energy convergence thresh.=      1.0E-05
     force convergence thresh. =      3.9E-04
     Exchange-correlation= PBE
                           (   1   4   3   4   0   0   0)
     nstep                     =           50


     celldm(1)=  11.243615  celldm(2)=   0.000000  celldm(3)=   0.000000
     celldm(4)=   0.000000  celldm(5)=   0.000000  celldm(6)=   0.000000

     crystal axes: (cart. coord. in units of alat)
               a(1) = (   1.000000   0.000000   0.000000 )  
               a(2) = (  -0.166667   1.247219   0.000000 )  
               a(3) = (   0.000000   0.000000   6.480741 )  

     reciprocal axes: (cart. coord. in units 2 pi/alat)
               b(1) = (  1.000000  0.133631  0.000000 )  
               b(2) = (  0.000000  0.801784  0.000000 )  
               b(3) = (  0.000000  0.000000  0.154303 )  


     PseudoPot. # 1 for Li read from file:
     /iridisfs/home/ba3g18/Repos/Pseudopotentials/pslibrary.1.0.0/pbe/PSEUDOPOTENTIALS/Li.pbe-sl-kjpaw_psl.1.0.0.UPF
     MD5 check sum: 3f4d2cafebb47c6c3aa8ed472e6f074d
     Pseudo is Projector augmented-wave, Zval =  3.0
     Generated using 'atomic' code by A. Dal Corso  v.7.4
     Shape of augmentation charge: PSQ
     Using radial grid of 1017 points,  4 beta functions with: 
                l(1) =   0
                l(2) =   0
                l(3) =   1
                l(4) =   1
     Q(r) pseudized with 0 coefficients 


     atomic species   valence    mass     pseudopotential
     Li                3.00     6.94000     Li( 1.00)

     No symmetry found



   Cartesian axes

     site n.     atom                  positions (alat units)
         1        Li     tau(   1) = (   0.0432944  -0.0410945   4.2215443  )
         2        Li     tau(   2) = (  -0.0432974   0.8428776   2.2591967  )
         3        Li     tau(   3) = (   0.1300077   0.3623138   2.3761379  )
         4        Li     tau(   4) = (   0.1794779   1.1804172   2.5590155  )
         5        Li     tau(   5) = (   0.2854209   0.7108699   2.6841068  )
         6        Li     tau(   6) = (   0.0047858   0.2836499   2.8585785  )
         7        Li     tau(   7) = (  -0.0258410   1.0623980   2.9990869  )
         8        Li     tau(   8) = (   0.1787089   0.6345220   3.1689592  )
         9        Li     tau(   9) = (   0.3212905   0.1672645   3.3117816  )
        10        Li     tau(  10) = (   0.3591735   0.9866067   3.4816539  )
        11        Li     tau(  11) = (  -0.0047830   0.5181343   3.6221628  )
        12        Li     tau(  12) = (   0.2145773   0.0909133   3.7966348  )
        13        Li     tau(  13) = (   0.1538562   0.8685847   3.9217253  )
        14        Li     tau(  14) = (   0.3699952   0.4394683   4.1046018  )
        15        Li     tau(  15) = (   0.5432943  -0.0410960   4.2215449  )
        16        Li     tau(  16) = (   0.4567027   0.8428759   2.2591975  )
        17        Li     tau(  17) = (   0.6300077   0.3623122   2.3761367  )
        18        Li     tau(  18) = (   0.6794779   1.1804165   2.5590161  )
        19        Li     tau(  19) = (   0.7854209   0.7108687   2.6841059  )
        20        Li     tau(  20) = (   0.5047856   0.2836503   2.8585778  )
        21        Li     tau(  21) = (   0.4741591   1.0623986   2.9990876  )
        22        Li     tau(  22) = (   0.6787089   0.6345220   3.1689586  )
        23        Li     tau(  23) = (   0.8212906   0.1672647   3.3117822  )
        24        Li     tau(  24) = (   0.8591734   0.9866063   3.4816532  )
        25        Li     tau(  25) = (   0.4952170   0.5181345   3.6221620  )
        26        Li     tau(  26) = (   0.7145774   0.0909144   3.7966359  )
        27        Li     tau(  27) = (   0.6538562   0.8685851   3.9217247  )
        28        Li     tau(  28) = (   0.8699951   0.4394700   4.1046035  )

     number of k points=    50  Marzari-Vanderbilt smearing, width (Ry)=  0.0100
                       cart. coord. in units 2pi/alat
        k(    1) = (   0.0000000   0.0000000   0.0000000), wk =   0.0202020
        k(    2) = (   0.0000000   0.0890871   0.0000000), wk =   0.0404040
        k(    3) = (   0.0000000   0.1781742   0.0000000), wk =   0.0404040
        k(    4) = (   0.0000000   0.2672613   0.0000000), wk =   0.0404040
        k(    5) = (   0.0000000   0.3563484   0.0000000), wk =   0.0404040
        k(    6) = (   0.0909091   0.0121483   0.0000000), wk =   0.0404040
        k(    7) = (   0.0909091   0.1012354   0.0000000), wk =   0.0404040
        k(    8) = (   0.0909091   0.1903224   0.0000000), wk =   0.0404040
        k(    9) = (   0.0909091   0.2794095   0.0000000), wk =   0.0404040
        k(   10) = (   0.0909091   0.3684966   0.0000000), wk =   0.0404040
        k(   11) = (   0.0909091  -0.3442001   0.0000000), wk =   0.0404040
        k(   12) = (   0.0909091  -0.2551130   0.0000000), wk =   0.0404040
        k(   13) = (   0.0909091  -0.1660259   0.0000000), wk =   0.0404040
        k(   14) = (   0.0909091  -0.0769388   0.0000000), wk =   0.0404040
        k(   15) = (   0.1818182   0.0242965   0.0000000), wk =   0.0404040
        k(   16) = (   0.1818182   0.1133836   0.0000000), wk =   0.0404040
        k(   17) = (   0.1818182   0.2024707   0.0000000), wk =   0.0404040
        k(   18) = (   0.1818182   0.2915578   0.0000000), wk =   0.0404040
        k(   19) = (   0.1818182   0.3806449   0.0000000), wk =   0.0404040
        k(   20) = (   0.1818182  -0.3320518   0.0000000), wk =   0.0404040
        k(   21) = (   0.1818182  -0.2429647   0.0000000), wk =   0.0404040
        k(   22) = (   0.1818182  -0.1538777   0.0000000), wk =   0.0404040
        k(   23) = (   0.1818182  -0.0647906   0.0000000), wk =   0.0404040
        k(   24) = (   0.2727273   0.0364448   0.0000000), wk =   0.0404040
        k(   25) = (   0.2727273   0.1255319   0.0000000), wk =   0.0404040
        k(   26) = (   0.2727273   0.2146190   0.0000000), wk =   0.0404040
        k(   27) = (   0.2727273   0.3037061   0.0000000), wk =   0.0404040
        k(   28) = (   0.2727273   0.3927932   0.0000000), wk =   0.0404040
        k(   29) = (   0.2727273  -0.3199036   0.0000000), wk =   0.0404040
        k(   30) = (   0.2727273  -0.2308165   0.0000000), wk =   0.0404040
        k(   31) = (   0.2727273  -0.1417294   0.0000000), wk =   0.0404040
        k(   32) = (   0.2727273  -0.0526423   0.0000000), wk =   0.0404040
        k(   33) = (   0.3636364   0.0485931   0.0000000), wk =   0.0404040
        k(   34) = (   0.3636364   0.1376801   0.0000000), wk =   0.0404040
        k(   35) = (   0.3636364   0.2267672   0.0000000), wk =   0.0404040
        k(   36) = (   0.3636364   0.3158543   0.0000000), wk =   0.0404040
        k(   37) = (   0.3636364   0.4049414   0.0000000), wk =   0.0404040
        k(   38) = (   0.3636364  -0.3077553   0.0000000), wk =   0.0404040
        k(   39) = (   0.3636364  -0.2186682   0.0000000), wk =   0.0404040
        k(   40) = (   0.3636364  -0.1295811   0.0000000), wk =   0.0404040
        k(   41) = (   0.3636364  -0.0404940   0.0000000), wk =   0.0404040
        k(   42) = (   0.4545455   0.0607413   0.0000000), wk =   0.0404040
        k(   43) = (   0.4545455   0.1498284   0.0000000), wk =   0.0404040
        k(   44) = (   0.4545455   0.2389155   0.0000000), wk =   0.0404040
        k(   45) = (   0.4545455   0.3280026   0.0000000), wk =   0.0404040
        k(   46) = (   0.4545455   0.4170897   0.0000000), wk =   0.0404040
        k(   47) = (   0.4545455  -0.2956070   0.0000000), wk =   0.0404040
        k(   48) = (   0.4545455  -0.2065200   0.0000000), wk =   0.0404040
        k(   49) = (   0.4545455  -0.1174329   0.0000000), wk =   0.0404040
        k(   50) = (   0.4545455  -0.0283458   0.0000000), wk =   0.0404040

     Dense  grid:  4389781 G-vectors     FFT dimensions: ( 108, 128, 675)

     Smooth grid:  1110297 G-vectors     FFT dimensions: (  72,  81, 432)

     Estimated max dynamical RAM per process >      66.98 MB

     Estimated total dynamical RAM >      20.09 GB

     Initial potential from superposition of free atoms

     starting charge      83.8710, renormalised to      84.0000

     negative rho (up, down):  1.960E-03 0.000E+00
     Starting wfcs are  140 randomized atomic wfcs
     Checking if some PAW data can be deallocated... 

     total cpu time spent up to now is        8.0 secs

     Self-consistent Calculation

     iteration #  1     ecut=    80.00 Ry     beta= 0.20
     Davidson diagonalization with overlap
     ethr =  1.00E-02,  avg # of iterations =  3.4

     negative rho (up, down):  1.500E-04 0.000E+00

     total cpu time spent up to now is       15.6 secs

     total energy              =    -421.16682271 Ry
     estimated scf accuracy    <       3.23255829 Ry

     iteration #  2     ecut=    80.00 Ry     beta= 0.20
     Davidson diagonalization with overlap
     ethr =  3.85E-03,  avg # of iterations =  1.2

     total cpu time spent up to now is       20.9 secs

     total energy              =    -420.83427220 Ry
     estimated scf accuracy    <       2.37085442 Ry

     iteration #  3     ecut=    80.00 Ry     beta= 0.20
     Davidson diagonalization with overlap
     ethr =  2.82E-03,  avg # of iterations =  1.1

     total cpu time spent up to now is       26.0 secs

     total energy              =    -420.99813574 Ry
     estimated scf accuracy    <       0.26927035 Ry

     iteration #  4     ecut=    80.00 Ry     beta= 0.20
     Davidson diagonalization with overlap
     ethr =  3.21E-04,  avg # of iterations =  4.0

     total cpu time spent up to now is       32.3 secs

     total energy              =    -421.04125009 Ry
     estimated scf accuracy    <       0.77603107 Ry

     iteration #  5     ecut=    80.00 Ry     beta= 0.20
     Davidson diagonalization with overlap
     ethr =  3.21E-04,  avg # of iterations =  1.0

     total cpu time spent up to now is       37.5 secs

     total energy              =    -421.02972130 Ry
     estimated scf accuracy    <       0.30265485 Ry

     iteration #  6     ecut=    80.00 Ry     beta= 0.20
     Davidson diagonalization with overlap
     ethr =  3.21E-04,  avg # of iterations =  1.0

     total cpu time spent up to now is       42.8 secs

     total energy              =    -421.03150275 Ry
     estimated scf accuracy    <       0.08348320 Ry

     iteration #  7     ecut=    80.00 Ry     beta= 0.20
     Davidson diagonalization with overlap
     ethr =  9.94E-05,  avg # of iterations =  3.3

     total cpu time spent up to now is       48.7 secs

     total energy              =    -421.04044128 Ry
     estimated scf accuracy    <       0.17761080 Ry

     iteration #  8     ecut=    80.00 Ry     beta= 0.20
     Davidson diagonalization with overlap
     ethr =  9.94E-05,  avg # of iterations =  1.1

     total cpu time spent up to now is       53.7 secs

     total energy              =    -421.03145944 Ry
     estimated scf accuracy    <       0.21865627 Ry

     iteration #  9     ecut=    80.00 Ry     beta= 0.20
     Davidson diagonalization with overlap
     ethr =  9.94E-05,  avg # of iterations =  1.5

     negative rho (up, down):  4.187E-02 0.000E+00

     total cpu time spent up to now is       59.0 secs

     total energy              =    -421.02984125 Ry
     estimated scf accuracy    <       0.13154548 Ry

     iteration # 10     ecut=    80.00 Ry     beta= 0.20
     Davidson diagonalization with overlap
     ethr =  9.94E-05,  avg # of iterations =  2.5

     negative rho (up, down):  6.231E-02 0.000E+00

     total cpu time spent up to now is       64.6 secs

     total energy              =    -421.02983468 Ry
     estimated scf accuracy    <       0.08244518 Ry

     iteration # 11     ecut=    80.00 Ry     beta= 0.20
     Davidson diagonalization with overlap
     ethr =  9.81E-05,  avg # of iterations =  1.5

     negative rho (up, down):  9.081E-02 0.000E+00

     total cpu time spent up to now is       70.0 secs

     total energy              =    -421.01919294 Ry
     estimated scf accuracy    <       0.08888253 Ry

     iteration # 12     ecut=    80.00 Ry     beta= 0.20
     Davidson diagonalization with overlap
     ethr =  9.81E-05,  avg # of iterations =  9.4

     negative rho (up, down):  4.275E-02 0.000E+00

     total cpu time spent up to now is       77.8 secs

     total energy              =    -421.02330541 Ry
     estimated scf accuracy    <       0.00540455 Ry

     iteration # 13     ecut=    80.00 Ry     beta= 0.20
     Davidson diagonalization with overlap
     c_bands:  1 eigenvalues not converged
     c_bands:  1 eigenvalues not converged
     c_bands:  2 eigenvalues not converged
     c_bands:  1 eigenvalues not converged
     c_bands:  1 eigenvalues not converged
     c_bands:  1 eigenvalues not converged
     c_bands:  1 eigenvalues not converged
     c_bands:  1 eigenvalues not converged
     c_bands:  1 eigenvalues not converged
     c_bands:  1 eigenvalues not converged
     c_bands:  1 eigenvalues not converged
     ethr =  6.43E-06,  avg # of iterations = 15.6

     negative rho (up, down):  6.253E-02 0.000E+00

     total cpu time spent up to now is       88.9 secs

     total energy              =    -421.02286401 Ry
     estimated scf accuracy    <       0.04815574 Ry

     iteration # 14     ecut=    80.00 Ry     beta= 0.20
     Davidson diagonalization with overlap
     c_bands:  1 eigenvalues not converged
     c_bands:  1 eigenvalues not converged
     ethr =  6.43E-06,  avg # of iterations = 13.1

     negative rho (up, down):  5.554E-02 0.000E+00

     total cpu time spent up to now is       97.7 secs

     total energy              =    -421.02092072 Ry
     estimated scf accuracy    <       0.02258991 Ry

     iteration # 15     ecut=    80.00 Ry     beta= 0.20
     Davidson diagonalization with overlap
     c_bands:  3 eigenvalues not converged
     c_bands:  1 eigenvalues not converged
     c_bands:  2 eigenvalues not converged
     ethr =  6.43E-06,  avg # of iterations = 10.2

     negative rho (up, down):  3.462E-02 0.000E+00

     total cpu time spent up to now is      105.9 secs

     total energy              =    -421.02045911 Ry
     estimated scf accuracy    <       0.00572946 Ry

     iteration # 16     ecut=    80.00 Ry     beta= 0.20
     Davidson diagonalization with overlap
     c_bands:  2 eigenvalues not converged
     ethr =  6.43E-06,  avg # of iterations = 13.2

     negative rho (up, down):  1.857E-02 0.000E+00

     total cpu time spent up to now is      114.7 secs

     total energy              =    -421.02142852 Ry
     estimated scf accuracy    <       0.00086103 Ry

     iteration # 17     ecut=    80.00 Ry     beta= 0.20
     Davidson diagonalization with overlap
     c_bands:  1 eigenvalues not converged
     ethr =  1.03E-06,  avg # of iterations =  8.2

     negative rho (up, down):  5.364E-03 0.000E+00

     total cpu time spent up to now is      123.1 secs

     total energy              =    -421.02081352 Ry
     estimated scf accuracy    <       0.00353697 Ry

     iteration # 18     ecut=    80.00 Ry     beta= 0.20
     Davidson diagonalization with overlap
     c_bands:  2 eigenvalues not converged
     c_bands:  3 eigenvalues not converged
     c_bands:  1 eigenvalues not converged
     c_bands:  2 eigenvalues not converged
     c_bands:  1 eigenvalues not converged
     ethr =  1.03E-06,  avg # of iterations = 14.1

     negative rho (up, down):  4.110E-03 0.000E+00

     total cpu time spent up to now is      132.8 secs

     total energy              =    -421.02116782 Ry
     estimated scf accuracy    <       0.00002552 Ry

     iteration # 19     ecut=    80.00 Ry     beta= 0.20
     Davidson diagonalization with overlap
     c_bands:  2 eigenvalues not converged
     ethr =  3.04E-08,  avg # of iterations =  5.8

     negative rho (up, down):  1.528E-03 0.000E+00

     total cpu time spent up to now is      140.0 secs

     total energy              =    -421.02117146 Ry
     estimated scf accuracy    <       0.00000720 Ry

     iteration # 20     ecut=    80.00 Ry     beta= 0.20
     Davidson diagonalization with overlap
     ethr =  8.57E-09,  avg # of iterations =  9.8

     negative rho (up, down):  6.351E-04 0.000E+00

     total cpu time spent up to now is      147.9 secs

     total energy              =    -421.02116999 Ry
     estimated scf accuracy    <       0.00000435 Ry

     iteration # 21     ecut=    80.00 Ry     beta= 0.20
     Davidson diagonalization with overlap
     c_bands:  1 eigenvalues not converged
     c_bands:  1 eigenvalues not converged
     ethr =  5.18E-09,  avg # of iterations =  9.7

     negative rho (up, down):  2.709E-04 0.000E+00

     total cpu time spent up to now is      155.5 secs

     total energy              =    -421.02116990 Ry
     estimated scf accuracy    <       0.00000197 Ry

     iteration # 22     ecut=    80.00 Ry     beta= 0.20
     Davidson diagonalization with overlap
     ethr =  2.34E-09,  avg # of iterations =  3.7

     negative rho (up, down):  2.021E-04 0.000E+00

     total cpu time spent up to now is      161.4 secs

     End of self-consistent calculation

          k = 0.0000 0.0000 0.0000 (138673 PWs)   bands (ev):

   -48.9165 -48.9165 -48.9085 -48.9084 -48.7308 -48.7308 -48.7229 -48.7228
   -48.2547 -48.2546 -48.2463 -48.2463 -48.2106 -48.2044 -48.1997 -48.1974
   -48.1942 -48.1923 -48.1858 -48.1851 -48.1794 -48.1764 -48.1726 -48.1720
   -48.1715 -48.1681 -48.1649 -48.1646  -5.1232  -4.7639  -4.1228  -3.3031
    -3.1048  -3.0501  -2.7621  -2.7426  -2.2813  -2.1373  -2.0601  -1.9434
    -1.9212  -1.6819  -1.6256  -1.5484  -1.4002  -1.3225  -1.2835  -1.1383
    -1.0063  -0.9628  -0.6328  -0.5567  -0.3427   0.0151   0.2139   0.2537
     0.5245   0.9319   1.1234   1.1445   1.2554   1.4521   1.6631

          k = 0.0000 0.0891 0.0000 (138663 PWs)   bands (ev):

   -48.9165 -48.9165 -48.9085 -48.9084 -48.7308 -48.7308 -48.7229 -48.7228
   -48.2547 -48.2546 -48.2463 -48.2463 -48.2105 -48.2045 -48.1997 -48.1974
   -48.1942 -48.1923 -48.1858 -48.1851 -48.1794 -48.1765 -48.1726 -48.1720
   -48.1715 -48.1682 -48.1649 -48.1646  -5.0981  -4.7392  -4.0994  -3.5273
    -3.2420  -3.1558  -2.6307  -2.4982  -2.3654  -2.1952  -1.9763  -1.8485
    -1.7113  -1.6987  -1.6958  -1.5741  -1.3674  -1.3608  -1.2561  -1.1366
    -1.0255  -0.9344  -0.6165  -0.6074  -0.3418   0.0082   0.1132   0.3181
     0.5214   0.7634   1.1557   1.1738   1.4264   1.4599   1.6762

          k = 0.0000 0.1782 0.0000 (138667 PWs)   bands (ev):

   -48.9165 -48.9165 -48.9085 -48.9084 -48.7308 -48.7308 -48.7229 -48.7228
   -48.2547 -48.2546 -48.2463 -48.2463 -48.2103 -48.2047 -48.1997 -48.1974
   -48.1942 -48.1924 -48.1858 -48.1851 -48.1793 -48.1766 -48.1725 -48.1719
   -48.1716 -48.1682 -48.1649 -48.1645  -5.0230  -4.6652  -4.0325  -3.8931
    -3.5155  -3.2032  -2.8196  -2.2855  -2.1439  -1.9783  -1.9732  -1.7702
    -1.7407  -1.6868  -1.4750  -1.4358  -1.4154  -1.3067  -1.1908  -1.1611
    -1.0491  -0.9662  -0.7155  -0.5423  -0.4052  -0.0898   0.0910   0.2224
     0.4869   0.7883   1.2013   1.2858   1.4825   1.5387   1.6778

          k = 0.0000 0.2673 0.0000 (138718 PWs)   bands (ev):

   -48.9165 -48.9165 -48.9085 -48.9084 -48.7308 -48.7308 -48.7229 -48.7228
   -48.2546 -48.2546 -48.2463 -48.2463 -48.2100 -48.2051 -48.1996 -48.1975
   -48.1942 -48.1925 -48.1858 -48.1852 -48.1793 -48.1767 -48.1724 -48.1718
   -48.1716 -48.1682 -48.1649 -48.1645  -4.8979  -4.5436  -4.2151  -3.9691
    -3.7774  -3.2723  -2.9444  -2.3969  -2.0160  -1.9427  -1.7214  -1.6751
    -1.5734  -1.5066  -1.4993  -1.3523  -1.2742  -1.2471  -1.2410  -1.0885
    -1.0289  -0.8620  -0.8262  -0.5867  -0.4540  -0.2744  -0.0310   0.0936
     0.7421   0.8185   1.1969   1.3800   1.4259   1.5904   1.6526

          k = 0.0000 0.3563 0.0000 (138740 PWs)   bands (ev):

   -48.9165 -48.9165 -48.9085 -48.9084 -48.7308 -48.7308 -48.7229 -48.7228
   -48.2546 -48.2546 -48.2463 -48.2463 -48.2097 -48.2053 -48.1995 -48.1975
   -48.1942 -48.1925 -48.1858 -48.1852 -48.1793 -48.1768 -48.1724 -48.1717
   -48.1716 -48.1682 -48.1649 -48.1645  -4.7231  -4.5043  -4.3581  -4.1502
    -3.6990  -3.4956  -2.8233  -2.6179  -1.8938  -1.8768  -1.7843  -1.6795
    -1.4829  -1.4371  -1.3727  -1.3015  -1.2290  -1.2088  -1.0650  -0.9601
    -0.9093  -0.8302  -0.8172  -0.7911  -0.5084  -0.3178  -0.1049  -0.0927
     0.8300   0.9744   1.1179   1.2862   1.5431   1.6478   1.7084

          k = 0.0909 0.0121 0.0000 (138727 PWs)   bands (ev):

   -48.9163 -48.9163 -48.9086 -48.9086 -48.7307 -48.7307 -48.7230 -48.7230
   -48.2545 -48.2545 -48.2465 -48.2465 -48.2104 -48.2042 -48.2000 -48.1975
   -48.1940 -48.1922 -48.1860 -48.1853 -48.1792 -48.1763 -48.1725 -48.1718
   -48.1717 -48.1683 -48.1651 -48.1648  -5.0965  -4.7371  -4.0957  -3.2781
    -3.1100  -2.9862  -2.7810  -2.6673  -2.4722  -2.2509  -2.1570  -2.1345
    -2.0029  -1.6197  -1.5185  -1.4404  -1.3673  -1.3583  -1.1778  -1.0741
    -0.9554  -0.9316  -0.6616  -0.5989  -0.3490   0.0416   0.0856   0.2467
     0.4513   0.7692   1.1555   1.1793   1.2452   1.4856   1.6925

          k = 0.0909 0.1012 0.0000 (138712 PWs)   bands (ev):

   -48.9163 -48.9163 -48.9086 -48.9086 -48.7307 -48.7307 -48.7230 -48.7230
   -48.2545 -48.2545 -48.2465 -48.2465 -48.2103 -48.2044 -48.2000 -48.1975
   -48.1940 -48.1922 -48.1860 -48.1853 -48.1792 -48.1763 -48.1724 -48.1718
   -48.1717 -48.1683 -48.1651 -48.1647  -5.0647  -4.7058  -4.0663  -3.5524
    -3.2119  -3.1796  -2.5508  -2.5125  -2.4984  -2.3148  -2.1902  -2.1265
    -1.7044  -1.6274  -1.6249  -1.3280  -1.2852  -1.2728  -1.1103  -1.0578
    -0.9060  -0.9012  -0.7060  -0.5754  -0.3763  -0.1227   0.0421   0.3720
     0.4101   0.5248   1.1945   1.2183   1.2610   1.4980   1.7088

          k = 0.0909 0.1903 0.0000 (138732 PWs)   bands (ev):

   -48.9163 -48.9163 -48.9086 -48.9086 -48.7307 -48.7307 -48.7230 -48.7230
   -48.2545 -48.2545 -48.2465 -48.2465 -48.2100 -48.2046 -48.1999 -48.1975
   -48.1940 -48.1922 -48.1860 -48.1853 -48.1792 -48.1765 -48.1723 -48.1717
   -48.1717 -48.1683 -48.1651 -48.1647  -4.9827  -4.6252  -3.9946  -3.9136
    -3.5327  -3.1729  -2.8260  -2.5068  -2.2573  -2.1786  -2.0492  -1.9590
    -1.6850  -1.5979  -1.3613  -1.2689  -1.2327  -1.1802  -1.0743  -1.0144
    -0.9361  -0.9285  -0.7876  -0.5002  -0.4931  -0.2513   0.0822   0.1326
     0.5494   0.6094   1.2394   1.2812   1.3390   1.5891   1.7016

          k = 0.0909 0.2794 0.0000 (138763 PWs)   bands (ev):

   -48.9163 -48.9163 -48.9086 -48.9086 -48.7307 -48.7307 -48.7230 -48.7230
   -48.2545 -48.2545 -48.2465 -48.2465 -48.2097 -48.2050 -48.1998 -48.1976
   -48.1940 -48.1923 -48.1860 -48.1853 -48.1791 -48.1766 -48.1723 -48.1718
   -48.1716 -48.1684 -48.1651 -48.1646  -4.8506  -4.4977  -4.2284  -3.9517
    -3.7613  -3.2718  -2.9089  -2.4565  -2.3957  -2.1237  -1.9746  -1.5913
    -1.5378  -1.4792  -1.3332  -1.2262  -1.2139  -1.1655  -1.1512  -0.9644
    -0.8669  -0.8179  -0.7929  -0.6821  -0.4040  -0.2861  -0.1667   0.1120
     0.7361   0.8143   1.2194   1.2780   1.4760   1.6199   1.6930

          k = 0.0909 0.3685 0.0000 (138789 PWs)   bands (ev):

   -48.9163 -48.9163 -48.9086 -48.9086 -48.7307 -48.7307 -48.7230 -48.7230
   -48.2545 -48.2545 -48.2465 -48.2465 -48.2095 -48.2052 -48.1998 -48.1976
   -48.1940 -48.1923 -48.1860 -48.1853 -48.1791 -48.1767 -48.1722 -48.1718
   -48.1715 -48.1684 -48.1651 -48.1646  -4.6690  -4.5089  -4.3076  -4.1542
    -3.6484  -3.4979  -2.7734  -2.6164  -2.3635  -2.0294  -1.8456  -1.6684
    -1.6088  -1.4549  -1.3229  -1.2391  -1.1872  -1.1739  -1.0332  -0.8764
    -0.8464  -0.7988  -0.7400  -0.6018  -0.4881  -0.2672  -0.1285  -0.0884
     0.8321   1.0276   1.1357   1.2809   1.5880   1.6753   1.7439

          k = 0.0909-0.3442 0.0000 (138807 PWs)   bands (ev):

   -48.9163 -48.9163 -48.9086 -48.9086 -48.7307 -48.7307 -48.7230 -48.7230
   -48.2545 -48.2545 -48.2465 -48.2465 -48.2095 -48.2051 -48.1998 -48.1977
   -48.1940 -48.1923 -48.1860 -48.1853 -48.1791 -48.1767 -48.1722 -48.1718
   -48.1715 -48.1684 -48.1651 -48.1646  -4.7235  -4.4491  -4.3512  -4.0925
    -3.6939  -3.4382  -2.8159  -2.5612  -2.2315  -1.9179  -1.8816  -1.8320
    -1.6256  -1.5980  -1.3092  -1.3029  -1.1816  -1.1780  -1.1560  -0.9713
    -0.9137  -0.7964  -0.7429  -0.5701  -0.3290  -0.3048  -0.0391  -0.0298
     0.8830   0.9786   1.1617   1.3462   1.5510   1.6649   1.7274

          k = 0.0909-0.2551 0.0000 (138791 PWs)   bands (ev):

   -48.9163 -48.9163 -48.9086 -48.9086 -48.7307 -48.7307 -48.7230 -48.7230
   -48.2545 -48.2545 -48.2465 -48.2465 -48.2098 -48.2049 -48.1998 -48.1976
   -48.1940 -48.1923 -48.1860 -48.1853 -48.1792 -48.1766 -48.1723 -48.1717
   -48.1716 -48.1684 -48.1651 -48.1646  -4.8916  -4.5361  -4.1471  -3.9412
    -3.7295  -3.2210  -2.9188  -2.3418  -2.0793  -2.0646  -1.9940  -1.7861
    -1.7332  -1.7025  -1.4740  -1.3299  -1.2955  -1.2705  -1.2330  -1.0553
    -1.0468  -0.8426  -0.8373  -0.4650  -0.4392  -0.1233   0.1346   0.1357
     0.7307   0.9107   1.2355   1.4412   1.4545   1.6272   1.6713

          k = 0.0909-0.1660 0.0000 (138718 PWs)   bands (ev):

   -48.9163 -48.9163 -48.9086 -48.9086 -48.7307 -48.7307 -48.7230 -48.7230
   -48.2545 -48.2545 -48.2465 -48.2465 -48.2101 -48.2045 -48.1999 -48.1976
   -48.1940 -48.1922 -48.1860 -48.1853 -48.1792 -48.1764 -48.1724 -48.1717
   -48.1717 -48.1684 -48.1651 -48.1647  -5.0100  -4.6516  -4.0166  -3.8178
    -3.4424  -3.1801  -2.7534  -2.2590  -2.2529  -2.1810  -1.9667  -1.9289
    -1.8534  -1.7868  -1.5900  -1.4174  -1.4100  -1.3197  -1.2794  -1.1012
    -0.9662  -0.9363  -0.8264  -0.5198  -0.4042   0.0408   0.1061   0.3659
     0.4885   0.9089   1.2276   1.3008   1.4911   1.5536   1.7126

          k = 0.0909-0.0769 0.0000 (138731 PWs)   bands (ev):

   -48.9163 -48.9163 -48.9086 -48.9086 -48.7307 -48.7307 -48.7230 -48.7230
   -48.2545 -48.2545 -48.2465 -48.2465 -48.2103 -48.2043 -48.1999 -48.1975
   -48.1940 -48.1922 -48.1860 -48.1853 -48.1792 -48.1763 -48.1724 -48.1718
   -48.1717 -48.1683 -48.1651 -48.1647  -5.0783  -4.7190  -4.0784  -3.4481
    -3.2159  -3.0755  -2.6649  -2.4410  -2.3855  -2.3544  -2.1950  -2.0793
    -1.7270  -1.6606  -1.6394  -1.5624  -1.4190  -1.3413  -1.2536  -1.1089
    -0.9832  -0.9030  -0.7081  -0.5896  -0.3728   0.0310   0.1478   0.3268
     0.4792   0.8869   1.1817   1.1982   1.3595   1.4883   1.7024

          k = 0.1818 0.0243 0.0000 (138781 PWs)   bands (ev):

   -48.9158 -48.9158 -48.9091 -48.9091 -48.7302 -48.7302 -48.7235 -48.7235
   -48.2540 -48.2540 -48.2470 -48.2470 -48.2098 -48.2038 -48.2007 -48.1979
   -48.1935 -48.1917 -48.1865 -48.1857 -48.1787 -48.1758 -48.1721 -48.1720
   -48.1714 -48.1688 -48.1656 -48.1652  -5.0166  -4.6570  -4.0145  -3.2052
    -3.0718  -2.9705  -2.8479  -2.7511  -2.6336  -2.5277  -2.1601  -2.0925
    -2.0342  -1.8650  -1.6786  -1.4293  -1.3652  -1.2687  -1.1989  -0.8382
    -0.7829  -0.7466  -0.6336  -0.5239  -0.4974  -0.2677   0.1206   0.1817
     0.3446   0.5255   1.0135   1.2515   1.2835   1.4166   1.5869

          k = 0.1818 0.1134 0.0000 (138794 PWs)   bands (ev):

   -48.9158 -48.9158 -48.9091 -48.9091 -48.7302 -48.7302 -48.7235 -48.7235
   -48.2540 -48.2540 -48.2470 -48.2470 -48.2097 -48.2039 -48.2007 -48.1979
   -48.1935 -48.1918 -48.1865 -48.1857 -48.1787 -48.1758 -48.1722 -48.1720
   -48.1714 -48.1688 -48.1656 -48.1652  -4.9778  -4.6189  -3.9791  -3.5234
    -3.1513  -3.1227  -3.0058  -2.6644  -2.4831  -2.3736  -2.2111  -2.0519
    -1.9909  -1.6414  -1.4830  -1.3896  -1.2937  -1.2226  -1.0028  -0.9600
    -0.8173  -0.7962  -0.6846  -0.6200  -0.4677  -0.2701   0.0276   0.1325
     0.4890   0.5115   0.9371   1.2986   1.3309   1.3789   1.6015

          k = 0.1818 0.2025 0.0000 (138821 PWs)   bands (ev):

   -48.9158 -48.9158 -48.9091 -48.9091 -48.7302 -48.7302 -48.7235 -48.7235
   -48.2540 -48.2540 -48.2470 -48.2470 -48.2094 -48.2042 -48.2006 -48.1979
   -48.1935 -48.1918 -48.1865 -48.1857 -48.1787 -48.1760 -48.1722 -48.1719
   -48.1713 -48.1688 -48.1656 -48.1651  -4.8889  -4.5317  -3.9032  -3.8798
    -3.4943  -3.0904  -2.9928  -2.7721  -2.6477  -2.1754  -2.0265  -1.9071
    -1.8696  -1.5362  -1.3975  -1.2725  -1.2474  -1.1662  -1.1049  -1.0221
    -0.8227  -0.7914  -0.6753  -0.5263  -0.3943  -0.3324   0.0429   0.2326
     0.3871   0.6757   1.0950   1.3377   1.3405   1.4612   1.7062

          k = 0.1818 0.2916 0.0000 (138882 PWs)   bands (ev):

   -48.9158 -48.9158 -48.9091 -48.9091 -48.7302 -48.7302 -48.7235 -48.7235
   -48.2540 -48.2540 -48.2470 -48.2470 -48.2091 -48.2045 -48.2005 -48.1980
   -48.1935 -48.1919 -48.1865 -48.1857 -48.1787 -48.1761 -48.1722 -48.1718
   -48.1712 -48.1689 -48.1655 -48.1651  -4.7498  -4.3986  -4.1871  -3.8892
    -3.6813  -3.2188  -2.9325  -2.8137  -2.5845  -2.3380  -1.9623  -1.8708
    -1.7384  -1.4595  -1.4383  -1.3792  -1.1782  -1.1155  -1.0202  -0.9016
    -0.8572  -0.7103  -0.5181  -0.4251  -0.3489  -0.2889  -0.0538   0.1923
     0.5146   0.9467   1.2254   1.3014   1.3990   1.5869   1.7129

          k = 0.1818 0.3806 0.0000 (138806 PWs)   bands (ev):

   -48.9158 -48.9158 -48.9091 -48.9091 -48.7302 -48.7302 -48.7235 -48.7235
   -48.2540 -48.2540 -48.2470 -48.2470 -48.2089 -48.2047 -48.2005 -48.1980
   -48.1935 -48.1919 -48.1865 -48.1857 -48.1787 -48.1762 -48.1722 -48.1718
   -48.1711 -48.1689 -48.1655 -48.1650  -4.5611  -4.4611  -4.2019  -4.1047
    -3.5425  -3.4452  -2.8260  -2.6673  -2.5560  -2.4770  -2.0601  -1.8920
    -1.7387  -1.6764  -1.5913  -1.2825  -1.1146  -1.0736  -0.9069  -0.7366
    -0.7258  -0.7029  -0.6204  -0.4076  -0.1551  -0.1464  -0.0868  -0.0135
     0.7399   1.1348   1.2160   1.3336   1.3984   1.5227   1.6597

          k = 0.1818-0.3321 0.0000 (138843 PWs)   bands (ev):

   -48.9158 -48.9158 -48.9091 -48.9091 -48.7302 -48.7302 -48.7235 -48.7235
   -48.2540 -48.2540 -48.2470 -48.2470 -48.2090 -48.2046 -48.2004 -48.1981
   -48.1935 -48.1919 -48.1865 -48.1858 -48.1787 -48.1761 -48.1722 -48.1718
   -48.1711 -48.1689 -48.1655 -48.1650  -4.6704  -4.3514  -4.2789  -3.9816
    -3.6330  -3.3262  -2.7509  -2.6750  -2.4470  -2.3704  -2.2901  -2.0411
    -1.8084  -1.6351  -1.5076  -1.4768  -1.2449  -1.0817  -0.8599  -0.8068
    -0.7814  -0.6972  -0.6518  -0.4869  -0.2284  -0.0753   0.0979   0.1280
     0.9134   1.0392   1.2662   1.3549   1.4497   1.6170   1.7290

          k = 0.1818-0.2430 0.0000 (138820 PWs)   bands (ev):

   -48.9158 -48.9158 -48.9091 -48.9091 -48.7302 -48.7302 -48.7235 -48.7235
   -48.2540 -48.2540 -48.2470 -48.2470 -48.2092 -48.2044 -48.2005 -48.1981
   -48.1935 -48.1919 -48.1865 -48.1858 -48.1787 -48.1761 -48.1722 -48.1718
   -48.1712 -48.1689 -48.1655 -48.1651  -4.8319  -4.4751  -4.0245  -3.8657
    -3.6198  -3.1191  -2.8310  -2.5734  -2.4839  -2.2472  -2.2317  -2.1286
    -1.9080  -1.6728  -1.6609  -1.4582  -1.3903  -1.2069  -1.1451  -0.9331
    -0.7608  -0.7447  -0.5722  -0.5195  -0.3598  -0.0626   0.2358   0.3686
     0.7785   0.8891   1.3348   1.4034   1.4516   1.5243   1.7531

          k = 0.1818-0.1539 0.0000 (138755 PWs)   bands (ev):

   -48.9158 -48.9158 -48.9091 -48.9091 -48.7302 -48.7302 -48.7235 -48.7235
   -48.2540 -48.2540 -48.2470 -48.2470 -48.2095 -48.2040 -48.2005 -48.1980
   -48.1935 -48.1918 -48.1865 -48.1857 -48.1787 -48.1759 -48.1722 -48.1719
   -48.1713 -48.1689 -48.1655 -48.1651  -4.9436  -4.5845  -3.9467  -3.6876
    -3.3135  -3.1029  -2.7538  -2.6281  -2.4331  -2.2367  -2.1778  -2.1608
    -1.9517  -1.8439  -1.7614  -1.7195  -1.3459  -1.2811  -1.1874  -1.0115
    -0.8399  -0.7436  -0.6304  -0.4324  -0.3617  -0.0747   0.1750   0.4486
     0.5533   0.7730   1.1598   1.3184   1.3831   1.5248   1.6312

          k = 0.1818-0.0648 0.0000 (138735 PWs)   bands (ev):

   -48.9158 -48.9158 -48.9091 -48.9091 -48.7302 -48.7302 -48.7235 -48.7235
   -48.2540 -48.2540 -48.2470 -48.2470 -48.2097 -48.2038 -48.2006 -48.1979
   -48.1935 -48.1918 -48.1865 -48.1857 -48.1787 -48.1758 -48.1721 -48.1720
   -48.1714 -48.1688 -48.1655 -48.1652  -5.0051  -4.6455  -4.0032  -3.3157
    -3.1323  -2.9390  -2.8865  -2.6438  -2.5552  -2.3670  -2.2523  -2.1269
    -1.9920  -1.9562  -1.6874  -1.5901  -1.5121  -1.2503  -1.2336  -0.9085
    -0.8135  -0.7383  -0.6514  -0.4936  -0.3797  -0.0432   0.1093   0.2199
     0.3969   0.6651   1.1109   1.2700   1.2932   1.4374   1.5835

          k = 0.2727 0.0364 0.0000 (138813 PWs)   bands (ev):

   -48.9151 -48.9151 -48.9098 -48.9098 -48.7295 -48.7295 -48.7242 -48.7242
   -48.2532 -48.2532 -48.2478 -48.2478 -48.2088 -48.2031 -48.2017 -48.1985
   -48.1927 -48.1911 -48.1872 -48.1863 -48.1780 -48.1750 -48.1729 -48.1713
   -48.1707 -48.1696 -48.1663 -48.1659  -4.8833  -4.5235  -3.8796  -3.4199
    -3.0905  -3.0715  -2.9695  -2.6837  -2.6337  -2.4448  -2.3334  -2.0125
    -1.9927  -1.9678  -1.6639  -1.6475  -1.5397  -1.2818  -1.1053  -0.9295
    -0.8954  -0.6847  -0.6834  -0.5648  -0.3294  -0.1702  -0.1150   0.2232
     0.2494   0.5066   0.6515   1.0526   1.2681   1.4068   1.4580

          k = 0.2727 0.1255 0.0000 (138872 PWs)   bands (ev):

   -48.9151 -48.9151 -48.9098 -48.9098 -48.7295 -48.7295 -48.7242 -48.7242
   -48.2532 -48.2532 -48.2478 -48.2478 -48.2087 -48.2033 -48.2018 -48.1985
   -48.1927 -48.1911 -48.1872 -48.1863 -48.1780 -48.1751 -48.1729 -48.1712
   -48.1707 -48.1696 -48.1663 -48.1659  -4.8376  -4.4787  -3.8383  -3.4491
    -3.4410  -3.0979  -3.0652  -2.9824  -2.4634  -2.3835  -2.1666  -2.0548
    -1.7923  -1.6850  -1.5477  -1.5162  -1.3564  -1.2808  -1.2010  -1.0762
    -1.0512  -0.7250  -0.6685  -0.5326  -0.3531  -0.2950  -0.1295   0.2775
     0.3847   0.5643   0.6687   1.0214   1.4223   1.4647   1.5116

          k = 0.2727 0.2146 0.0000 (138901 PWs)   bands (ev):

   -48.9151 -48.9151 -48.9098 -48.9098 -48.7295 -48.7295 -48.7242 -48.7242
   -48.2532 -48.2532 -48.2478 -48.2478 -48.2084 -48.2035 -48.2017 -48.1985
   -48.1927 -48.1911 -48.1873 -48.1864 -48.1780 -48.1752 -48.1729 -48.1712
   -48.1706 -48.1696 -48.1663 -48.1658  -4.7416  -4.3847  -3.7924  -3.7590
    -3.4290  -3.4006  -3.0754  -2.9576  -2.6576  -2.4366  -2.0414  -1.8244
    -1.7540  -1.6676  -1.5957  -1.4660  -1.3259  -1.1635  -1.0746  -0.9987
    -0.8860  -0.8376  -0.6486  -0.5935  -0.2259  -0.1879  -0.0395   0.2270
     0.3912   0.8647   0.8884   0.9327   1.3483   1.5007   1.6527

          k = 0.2727 0.3037 0.0000 (138909 PWs)   bands (ev):

   -48.9151 -48.9151 -48.9098 -48.9098 -48.7295 -48.7295 -48.7242 -48.7242
   -48.2532 -48.2532 -48.2478 -48.2478 -48.2082 -48.2038 -48.2016 -48.1986
   -48.1927 -48.1912 -48.1873 -48.1864 -48.1780 -48.1753 -48.1729 -48.1711
   -48.1705 -48.1697 -48.1662 -48.1657  -4.5953  -4.2471  -4.0912  -3.7801
    -3.5400  -3.3601  -3.1129  -3.0048  -2.6609  -2.3688  -2.2241  -2.1882
    -1.8347  -1.7063  -1.5515  -1.2951  -1.1898  -1.1625  -0.9393  -0.8096
    -0.7994  -0.6379  -0.5401  -0.4381  -0.2316  -0.1091   0.1587   0.2893
     0.3353   0.8198   1.1364   1.2348   1.3187   1.3726   1.4378

          k = 0.2727 0.3928 0.0000 (138893 PWs)   bands (ev):

   -48.9151 -48.9151 -48.9098 -48.9098 -48.7295 -48.7295 -48.7242 -48.7242
   -48.2532 -48.2532 -48.2478 -48.2478 -48.2080 -48.2039 -48.2015 -48.1987
   -48.1927 -48.1912 -48.1873 -48.1864 -48.1780 -48.1754 -48.1729 -48.1711
   -48.1704 -48.1697 -48.1662 -48.1657  -4.3996  -4.3604  -4.0420  -4.0017
    -3.3824  -3.3378  -3.2429  -2.8883  -2.5156  -2.5087  -2.4352  -2.3062
    -2.0930  -1.6438  -1.5770  -1.4468  -1.2435  -0.9283  -0.9083  -0.8281
    -0.5507  -0.5422  -0.4313  -0.2434  -0.0504   0.0118   0.0535   0.1375
     0.5818   0.8927   1.1725   1.2831   1.3621   1.4346   1.4815

          k = 0.2727-0.3199 0.0000 (138859 PWs)   bands (ev):

   -48.9151 -48.9151 -48.9098 -48.9098 -48.7295 -48.7295 -48.7242 -48.7242
   -48.2532 -48.2532 -48.2478 -48.2478 -48.2081 -48.2038 -48.2014 -48.1988
   -48.1927 -48.1912 -48.1873 -48.1864 -48.1780 -48.1753 -48.1729 -48.1711
   -48.1704 -48.1697 -48.1662 -48.1657  -4.5639  -4.2226  -4.1303  -3.8183
    -3.5159  -3.1605  -3.0786  -2.8155  -2.7040  -2.6288  -2.4781  -2.2766
    -2.0286  -1.8583  -1.6750  -1.3267  -1.1303  -1.1257  -1.0158  -0.9203
    -0.7498  -0.5329  -0.3015  -0.1238  -0.0912   0.0124   0.1622   0.2875
     0.8870   0.9002   1.1410   1.1508   1.3824   1.4287   1.5071

          k = 0.2727-0.2308 0.0000 (138770 PWs)   bands (ev):

   -48.9151 -48.9151 -48.9098 -48.9098 -48.7295 -48.7295 -48.7242 -48.7242
   -48.2532 -48.2532 -48.2478 -48.2478 -48.2083 -48.2036 -48.2015 -48.1987
   -48.1927 -48.1912 -48.1873 -48.1864 -48.1780 -48.1753 -48.1729 -48.1712
   -48.1705 -48.1697 -48.1662 -48.1657  -4.7188  -4.3608  -3.8474  -3.7406
    -3.4508  -3.0331  -2.9683  -2.8720  -2.6875  -2.6810  -2.5128  -2.0686
    -2.0555  -1.8347  -1.7585  -1.5881  -1.2637  -1.2148  -1.0706  -0.9865
    -0.9077  -0.6188  -0.3772  -0.2167  -0.0935   0.1343   0.2774   0.3897
     0.6916   0.8820   0.9784   1.1058   1.2318   1.4926   1.6745

          k = 0.2727-0.1417 0.0000 (138798 PWs)   bands (ev):

   -48.9151 -48.9151 -48.9098 -48.9098 -48.7295 -48.7295 -48.7242 -48.7242
   -48.2532 -48.2532 -48.2478 -48.2478 -48.2086 -48.2033 -48.2016 -48.1987
   -48.1927 -48.1911 -48.1873 -48.1864 -48.1780 -48.1751 -48.1729 -48.1712
   -48.1706 -48.1697 -48.1662 -48.1658  -4.8238  -4.4641  -3.8232  -3.5026
    -3.2118  -3.1291  -2.9716  -2.8740  -2.6015  -2.4453  -2.3365  -2.1391
    -2.0864  -2.0419  -1.7315  -1.6351  -1.5578  -1.3083  -1.2254  -1.0315
    -0.7212  -0.6788  -0.4384  -0.2799  -0.0922   0.0414   0.2030   0.2930
     0.4652   0.6795   0.7111   1.1195   1.2690   1.4709   1.5307

          k = 0.2727-0.0526 0.0000 (138765 PWs)   bands (ev):

   -48.9151 -48.9151 -48.9098 -48.9098 -48.7295 -48.7295 -48.7242 -48.7242
   -48.2532 -48.2532 -48.2478 -48.2478 -48.2088 -48.2031 -48.2017 -48.1986
   -48.1927 -48.1911 -48.1872 -48.1864 -48.1780 -48.1750 -48.1729 -48.1713
   -48.1707 -48.1696 -48.1662 -48.1658  -4.8787  -4.5186  -3.8743  -3.3408
    -3.1332  -2.9962  -2.9889  -2.7475  -2.5676  -2.3854  -2.3025  -2.2689
    -2.0673  -1.9944  -1.9122  -1.5901  -1.5785  -1.3211  -1.1739  -1.0958
    -0.6950  -0.6685  -0.4036  -0.3278  -0.2881  -0.1701  -0.0685   0.2400
     0.3078   0.5260   0.7936   0.9333   1.2411   1.4162   1.4598

          k = 0.3636 0.0486 0.0000 (138882 PWs)   bands (ev):

   -48.9141 -48.9141 -48.9108 -48.9108 -48.7285 -48.7285 -48.7252 -48.7252
   -48.2522 -48.2522 -48.2488 -48.2488 -48.2076 -48.2031 -48.2022 -48.1993
   -48.1917 -48.1902 -48.1882 -48.1872 -48.1771 -48.1740 -48.1738 -48.1706
   -48.1704 -48.1698 -48.1672 -48.1668  -4.6967  -4.3369  -3.8181  -3.6916
    -3.4634  -2.9392  -2.8241  -2.7997  -2.5423  -2.3843  -2.2564  -2.0886
    -1.9707  -1.8547  -1.8474  -1.7957  -1.4040  -1.3144  -1.1977  -1.0785
    -1.0327  -0.8789  -0.8597  -0.4689  -0.3882  -0.2001  -0.0966   0.0582
     0.3877   0.4214   0.7304   0.8266   0.9263   1.6124   1.6969

          k = 0.3636 0.1377 0.0000 (138919 PWs)   bands (ev):

   -48.9141 -48.9141 -48.9108 -48.9108 -48.7285 -48.7285 -48.7252 -48.7252
   -48.2522 -48.2522 -48.2488 -48.2488 -48.2074 -48.2031 -48.2024 -48.1993
   -48.1917 -48.1902 -48.1882 -48.1872 -48.1771 -48.1741 -48.1738 -48.1706
   -48.1703 -48.1698 -48.1672 -48.1667  -4.6441  -4.2854  -3.8408  -3.6446
    -3.4843  -3.3066  -2.9269  -2.8400  -2.7886  -2.2315  -2.0250  -1.9009
    -1.8468  -1.8268  -1.7545  -1.5358  -1.4725  -1.4630  -1.3289  -1.0208
    -0.9599  -0.8291  -0.8139  -0.6944  -0.4617  -0.0598  -0.0524   0.0516
     0.2784   0.4709   0.8965   0.9095   1.0062   1.4551   1.6854

          k = 0.3636 0.2268 0.0000 (138906 PWs)   bands (ev):

   -48.9141 -48.9141 -48.9108 -48.9108 -48.7285 -48.7285 -48.7252 -48.7252
   -48.2522 -48.2522 -48.2488 -48.2488 -48.2072 -48.2030 -48.2026 -48.1993
   -48.1917 -48.1903 -48.1883 -48.1872 -48.1770 -48.1742 -48.1739 -48.1706
   -48.1703 -48.1697 -48.1672 -48.1667  -4.5410  -4.1847  -3.8135  -3.6522
    -3.5635  -3.4556  -3.2523  -2.8095  -2.7769  -2.4835  -2.2441  -1.9447
    -1.8763  -1.8572  -1.5522  -1.3934  -1.3682  -1.2084  -1.0900  -1.0567
    -0.8579  -0.8448  -0.7674  -0.4067  -0.3218  -0.3008   0.0027   0.0778
     0.5086   0.6069   0.8476   0.9902   1.1133   1.5385   1.7074

          k = 0.3636 0.3159 0.0000 (138958 PWs)   bands (ev):

   -48.9141 -48.9141 -48.9108 -48.9108 -48.7285 -48.7285 -48.7252 -48.7252
   -48.2522 -48.2522 -48.2488 -48.2488 -48.2069 -48.2029 -48.2029 -48.1994
   -48.1917 -48.1903 -48.1883 -48.1873 -48.1770 -48.1743 -48.1739 -48.1707
   -48.1702 -48.1696 -48.1671 -48.1666  -4.3874  -4.0454  -3.9393  -3.7366
    -3.6228  -3.3780  -3.3409  -2.9546  -2.7378  -2.6127  -2.4528  -2.2406
    -2.0552  -1.9090  -1.5259  -1.4845  -1.0886  -1.0037  -0.9214  -0.8553
    -0.6980  -0.6496  -0.5356  -0.4006  -0.3100  -0.0125   0.1337   0.2788
     0.3404   0.5411   0.9385   1.1729   1.3703   1.3841   1.6095

          k = 0.3636 0.4049 0.0000 (138978 PWs)   bands (ev):

   -48.9141 -48.9141 -48.9108 -48.9108 -48.7285 -48.7285 -48.7252 -48.7252
   -48.2522 -48.2522 -48.2488 -48.2487 -48.2068 -48.2030 -48.2027 -48.1996
   -48.1917 -48.1904 -48.1883 -48.1873 -48.1770 -48.1743 -48.1739 -48.1707
   -48.1702 -48.1696 -48.1671 -48.1666  -4.2070  -4.1845  -3.8457  -3.8287
    -3.6104  -3.2539  -3.1797  -3.1659  -2.9373  -2.6889  -2.4827  -2.3070
    -2.2478  -2.0145  -1.6032  -1.3658  -1.2339  -1.1357  -0.6892  -0.6711
    -0.6207  -0.3524  -0.3294  -0.3144  -0.1005   0.0201   0.2242   0.3156
     0.3686   0.6724   0.7524   1.3795   1.4459   1.4705   1.5674

          k = 0.3636-0.3078 0.0000 (138849 PWs)   bands (ev):

   -48.9141 -48.9141 -48.9108 -48.9108 -48.7285 -48.7285 -48.7252 -48.7252
   -48.2522 -48.2522 -48.2488 -48.2487 -48.2069 -48.2029 -48.2027 -48.1997
   -48.1917 -48.1904 -48.1883 -48.1873 -48.1771 -48.1743 -48.1739 -48.1708
   -48.1702 -48.1696 -48.1671 -48.1666  -4.4043  -4.0544  -3.9142  -3.6043
    -3.4358  -3.3424  -3.2286  -3.0658  -2.9426  -2.8836  -2.4503  -2.3863
    -2.2388  -2.0526  -1.4830  -1.4737  -1.3480  -1.0857  -0.9635  -0.6951
    -0.5871  -0.5060  -0.3040  -0.2872   0.1011   0.1526   0.3673   0.4470
     0.5342   0.5437   0.8960   1.2722   1.2983   1.4654   1.5679

          k = 0.3636-0.2187 0.0000 (138783 PWs)   bands (ev):

   -48.9141 -48.9141 -48.9108 -48.9108 -48.7285 -48.7285 -48.7252 -48.7252
   -48.2522 -48.2522 -48.2488 -48.2487 -48.2072 -48.2027 -48.2026 -48.1996
   -48.1917 -48.1903 -48.1883 -48.1873 -48.1771 -48.1742 -48.1738 -48.1708
   -48.1703 -48.1696 -48.1671 -48.1666  -4.5526  -4.1935  -3.6163  -3.5648
    -3.4476  -3.2252  -3.2202  -3.0887  -2.8591  -2.7698  -2.4701  -2.4367
    -2.1810  -1.8559  -1.5546  -1.5477  -1.4519  -1.2492  -1.0968  -0.8655
    -0.7577  -0.5861  -0.4213  -0.1819  -0.0106   0.2419   0.2951   0.5504
     0.5896   0.6134   0.6648   1.0328   1.1942   1.3043   1.5243

          k = 0.3636-0.1296 0.0000 (138829 PWs)   bands (ev):

   -48.9141 -48.9141 -48.9108 -48.9108 -48.7285 -48.7285 -48.7252 -48.7252
   -48.2522 -48.2522 -48.2488 -48.2488 -48.2074 -48.2028 -48.2024 -48.1995
   -48.1917 -48.1903 -48.1883 -48.1873 -48.1771 -48.1741 -48.1738 -48.1707
   -48.1703 -48.1697 -48.1671 -48.1667  -4.6509  -4.2905  -3.6465  -3.6215
    -3.2744  -3.2636  -2.9318  -2.8904  -2.7873  -2.6992  -2.4892  -2.2074
    -1.9745  -1.9595  -1.8561  -1.6471  -1.5787  -1.3189  -1.0521  -1.0400
    -0.8139  -0.6796  -0.4557  -0.2506  -0.0623  -0.0201   0.1466   0.2041
     0.4515   0.5275   0.8631   0.8779   0.9212   1.4488   1.6762

          k = 0.3636-0.0405 0.0000 (138844 PWs)   bands (ev):

   -48.9141 -48.9141 -48.9108 -48.9108 -48.7285 -48.7285 -48.7252 -48.7252
   -48.2522 -48.2522 -48.2488 -48.2488 -48.2075 -48.2030 -48.2022 -48.1994
   -48.1917 -48.1902 -48.1882 -48.1872 -48.1771 -48.1740 -48.1738 -48.1706
   -48.1704 -48.1698 -48.1672 -48.1667  -4.6990  -4.3386  -3.7450  -3.6922
    -3.3930  -2.9071  -2.7815  -2.7645  -2.6143  -2.5054  -2.4353  -2.2231
    -2.1282  -1.9291  -1.8206  -1.8020  -1.4855  -1.4379  -1.0673  -0.9841
    -0.8802  -0.7980  -0.5470  -0.4721  -0.4131  -0.0926  -0.0204   0.1853
     0.4166   0.4185   0.7104   0.7499   0.9468   1.6120   1.6922

          k = 0.4545 0.0607 0.0000 (138905 PWs)   bands (ev):

   -48.9130 -48.9130 -48.9119 -48.9119 -48.7274 -48.7274 -48.7263 -48.7263
   -48.2511 -48.2511 -48.2499 -48.2499 -48.2061 -48.2046 -48.2013 -48.2003
   -48.1906 -48.1894 -48.1892 -48.1882 -48.1760 -48.1749 -48.1729 -48.1717
   -48.1693 -48.1688 -48.1682 -48.1678  -4.4569  -4.1639  -4.0975  -3.8060
    -3.4516  -3.1615  -2.7497  -2.5691  -2.5207  -2.3573  -2.2880  -2.1270
    -2.0744  -1.8024  -1.7142  -1.6381  -1.5292  -1.4967  -1.3660  -1.2108
    -1.0910  -0.8235  -0.7386  -0.5937  -0.5245  -0.2609  -0.1994   0.1106
     0.1974   0.5447   0.6195   0.7884   1.0108   1.3300   1.8344

          k = 0.4545 0.1498 0.0000 (138899 PWs)   bands (ev):

   -48.9130 -48.9130 -48.9119 -48.9119 -48.7274 -48.7274 -48.7263 -48.7263
   -48.2511 -48.2511 -48.2499 -48.2499 -48.2060 -48.2046 -48.2014 -48.2002
   -48.1906 -48.1894 -48.1892 -48.1882 -48.1760 -48.1749 -48.1730 -48.1717
   -48.1693 -48.1688 -48.1682 -48.1677  -4.3973  -4.1799  -4.0394  -3.8207
    -3.3994  -3.1730  -3.1219  -2.7379  -2.5448  -2.3506  -2.1726  -2.0471
    -2.0278  -1.8509  -1.7189  -1.5972  -1.5738  -1.2661  -1.2306  -1.1809
    -1.0783  -0.9863  -0.7095  -0.5117  -0.3864  -0.2957  -0.2011   0.0323
     0.2339   0.5779   0.6934   0.8184   1.2043   1.2071   1.9293

          k = 0.4545 0.2389 0.0000 (138966 PWs)   bands (ev):

   -48.9130 -48.9130 -48.9119 -48.9119 -48.7274 -48.7274 -48.7263 -48.7263
   -48.2511 -48.2511 -48.2499 -48.2499 -48.2058 -48.2045 -48.2016 -48.2003
   -48.1906 -48.1894 -48.1893 -48.1882 -48.1760 -48.1749 -48.1731 -48.1718
   -48.1692 -48.1687 -48.1682 -48.1677  -4.2871  -4.1456  -3.9322  -3.7856
    -3.4607  -3.3190  -3.1378  -3.0500  -2.6303  -2.5508  -2.2703  -2.2571
    -2.2522  -1.6253  -1.6134  -1.5487  -1.3635  -1.2957  -1.1328  -1.0603
    -0.7340  -0.6689  -0.5774  -0.5598  -0.4754  -0.2231  -0.0997   0.1522
     0.2864   0.5586   0.8028   0.8705   1.3550   1.4136   1.8342

          k = 0.4545 0.3280 0.0000 (138918 PWs)   bands (ev):

   -48.9130 -48.9130 -48.9119 -48.9119 -48.7274 -48.7274 -48.7263 -48.7263
   -48.2511 -48.2511 -48.2499 -48.2499 -48.2056 -48.2043 -48.2018 -48.2005
   -48.1906 -48.1894 -48.1893 -48.1883 -48.1760 -48.1749 -48.1731 -48.1718
   -48.1692 -48.1686 -48.1682 -48.1676  -4.1263  -4.0612  -3.8010  -3.7258
    -3.7013  -3.4164  -3.0876  -3.0623  -2.9962  -2.7451  -2.6153  -2.2367
    -2.1935  -1.8828  -1.8336  -1.3064  -1.2114  -1.0701  -0.9631  -0.8309
    -0.6509  -0.5870  -0.3938  -0.3073  -0.2000  -0.0908  -0.0261   0.0835
     0.4340   0.5789   0.8089   1.0356   1.3579   1.5247   1.7113

          k = 0.4545 0.4171 0.0000 (138912 PWs)   bands (ev):

   -48.9130 -48.9130 -48.9119 -48.9119 -48.7274 -48.7274 -48.7263 -48.7263
   -48.2511 -48.2511 -48.2499 -48.2499 -48.2055 -48.2041 -48.2019 -48.2006
   -48.1906 -48.1894 -48.1894 -48.1883 -48.1760 -48.1749 -48.1732 -48.1719
   -48.1692 -48.1686 -48.1681 -48.1675  -4.0012  -3.9271  -3.9168  -3.6372
    -3.5709  -3.5632  -3.3141  -3.0355  -2.9644  -2.9031  -2.8249  -2.3633
    -2.0703  -1.9921  -1.9328  -1.4679  -1.1099  -0.9572  -0.9414  -0.5428
    -0.4338  -0.4058  -0.3594  -0.1591  -0.0617  -0.0608  -0.0347   0.3398
     0.4730   0.5669   0.6731   1.1396   1.4767   1.5517   1.7340

          k = 0.4545-0.2956 0.0000 (138881 PWs)   bands (ev):

   -48.9130 -48.9130 -48.9119 -48.9119 -48.7274 -48.7274 -48.7263 -48.7263
   -48.2511 -48.2511 -48.2499 -48.2499 -48.2056 -48.2041 -48.2018 -48.2007
   -48.1906 -48.1894 -48.1894 -48.1883 -48.1760 -48.1749 -48.1731 -48.1719
   -48.1692 -48.1686 -48.1681 -48.1675  -4.1919  -3.8378  -3.7438  -3.6408
    -3.5974  -3.3770  -3.3421  -3.2471  -3.1121  -2.6995  -2.6753  -2.5913
    -2.2173  -1.7924  -1.7800  -1.6851  -1.2359  -0.8158  -0.7979  -0.7460
    -0.6305  -0.4108  -0.3786  -0.0863  -0.0120   0.0154   0.2274   0.2724
     0.3349   0.7192   0.8277   1.0285   1.4372   1.4743   1.6243

          k = 0.4545-0.2065 0.0000 (138868 PWs)   bands (ev):

   -48.9130 -48.9130 -48.9119 -48.9119 -48.7274 -48.7274 -48.7263 -48.7263
   -48.2511 -48.2511 -48.2499 -48.2499 -48.2058 -48.2041 -48.2015 -48.2007
   -48.1906 -48.1894 -48.1893 -48.1883 -48.1760 -48.1749 -48.1731 -48.1719
   -48.1692 -48.1686 -48.1681 -48.1676  -4.3333  -3.9735  -3.8127  -3.5273
    -3.4396  -3.3394  -3.3309  -3.1613  -2.9455  -2.7842  -2.5252  -2.4862
    -2.2018  -1.8898  -1.5987  -1.5628  -1.2914  -1.2612  -0.9004  -0.8903
    -0.6047  -0.5242  -0.4585  -0.1927  -0.1783  -0.0354   0.1931   0.2563
     0.2925   0.7558   0.8185   1.1267   1.2097   1.2843   1.5188

          k = 0.4545-0.1174 0.0000 (138912 PWs)   bands (ev):

   -48.9130 -48.9130 -48.9119 -48.9119 -48.7274 -48.7274 -48.7263 -48.7263
   -48.2511 -48.2511 -48.2499 -48.2499 -48.2060 -48.2043 -48.2013 -48.2005
   -48.1906 -48.1894 -48.1893 -48.1882 -48.1760 -48.1749 -48.1730 -48.1719
   -48.1693 -48.1687 -48.1681 -48.1677  -4.4248  -4.0642  -3.9804  -3.6282
    -3.4176  -3.2196  -3.0291  -2.9719  -2.7949  -2.5993  -2.5515  -2.2820
    -1.9696  -1.9201  -1.7844  -1.6259  -1.3782  -1.3500  -1.0179  -0.9954
    -0.8321  -0.6744  -0.5396  -0.3725  -0.2217  -0.1754  -0.1345   0.2192
     0.2619   0.6106   0.6334   1.0951   1.0956   1.5324   1.7031

          k = 0.4545-0.0283 0.0000 (138865 PWs)   bands (ev):

   -48.9130 -48.9130 -48.9119 -48.9119 -48.7274 -48.7274 -48.7263 -48.7263
   -48.2511 -48.2511 -48.2499 -48.2499 -48.2061 -48.2045 -48.2012 -48.2004
   -48.1906 -48.1894 -48.1892 -48.1882 -48.1760 -48.1749 -48.1729 -48.1718
   -48.1693 -48.1688 -48.1682 -48.1677  -4.4660  -4.1058  -4.0975  -3.7415
    -3.4579  -3.1048  -2.8897  -2.6455  -2.5066  -2.5016  -2.2731  -2.2558
    -2.1923  -1.9433  -1.7764  -1.5558  -1.5211  -1.3002  -1.2349  -1.2052
    -0.8944  -0.7631  -0.7530  -0.6089  -0.3628  -0.2324  -0.1510   0.1022
     0.2107   0.5760   0.6237   0.8618   0.9422   1.5439   1.8291

     the Fermi energy is    -1.6689 ev

!    total energy              =    -421.02117304 Ry
     total all-electron energy =      -421.021401 Ry
     estimated scf accuracy    <       0.00000072 Ry
     smearing contrib. (-TS)   =      -0.00051007 Ry
     internal energy E=F+TS    =    -421.02066298 Ry

     The total energy is F=E-TS. E is the sum of the following terms:
     one-electron contribution =   -3336.45479373 Ry
     hartree contribution      =    1625.96143427 Ry
     xc contribution           =    -100.37953946 Ry
     ewald contribution        =    1387.38431410 Ry
     one-center paw contrib.   =       2.46792184 Ry

     convergence has been achieved in  22 iterations

     Forces acting on atoms (cartesian axes, Ry/au):

     atom    1 type  1   force =     0.00000298   -0.00003030   -0.00028528
     atom    2 type  1   force =    -0.00000379    0.00003104    0.00029206
     atom    3 type  1   force =    -0.00004794   -0.00008131    0.00026327
     atom    4 type  1   force =    -0.00004150    0.00007793    0.00012570
     atom    5 type  1   force =     0.00005207    0.00006177    0.00012950
     atom    6 type  1   force =    -0.00007544   -0.00005117   -0.00004478
     atom    7 type  1   force =    -0.00001890    0.00000325   -0.00004339
     atom    8 type  1   force =     0.00004758   -0.00005022    0.00006052
     atom    9 type  1   force =    -0.00004824    0.00005102   -0.00006721
     atom   10 type  1   force =     0.00001701   -0.00000305    0.00003998
     atom   11 type  1   force =     0.00007487    0.00004924    0.00003976
     atom   12 type  1   force =    -0.00005014   -0.00005945   -0.00012965
     atom   13 type  1   force =     0.00004044   -0.00007634   -0.00012250
     atom   14 type  1   force =     0.00004978    0.00008025   -0.00025687
     atom   15 type  1   force =     0.00000449   -0.00002986   -0.00028668
     atom   16 type  1   force =    -0.00000220    0.00002850    0.00029130
     atom   17 type  1   force =    -0.00004850   -0.00007990    0.00026163
     atom   18 type  1   force =    -0.00003944    0.00007698    0.00012278
     atom   19 type  1   force =     0.00005043    0.00006172    0.00013081
     atom   20 type  1   force =    -0.00007453   -0.00005167   -0.00004371
     atom   21 type  1   force =    -0.00001555    0.00000486   -0.00004187
     atom   22 type  1   force =     0.00004582   -0.00005254    0.00006251
     atom   23 type  1   force =    -0.00004826    0.00005087   -0.00006727
     atom   24 type  1   force =     0.00001716   -0.00000371    0.00003680
     atom   25 type  1   force =     0.00007526    0.00005036    0.00004190
     atom   26 type  1   force =    -0.00005292   -0.00006249   -0.00012803
     atom   27 type  1   force =     0.00004045   -0.00007574   -0.00012310
     atom   28 type  1   force =     0.00004902    0.00007996   -0.00025814

     Total force =     0.000954     Total SCF correction =     0.000600
     SCF correction compared to forces is large: reduce conv_thr to get better values

     BFGS Geometry Optimization
     Energy error            =      9.1E-07 Ry
     Gradient error          =      2.9E-04 Ry/Bohr

     bfgs converged in   1 scf cycles and   0 bfgs steps
     (criteria: energy <  1.0E-05 Ry, force <  3.9E-04 Ry/Bohr)

     End of BFGS Geometry Optimization

     Final energy             =    -421.0211730443 Ry
Begin final coordinates

ATOMIC_POSITIONS (angstrom)
Li               0.2575957900       -0.2445065300       25.1176177100
Li              -0.2576134900        5.0150079500       13.4419152000
Li               0.7735283000        2.1557184200       14.1376991800
Li               1.0678692900        7.0233226600       15.2257963600
Li               1.6982159300        4.2295796300       15.9700727400
Li               0.0284746200        1.6876785000       17.0081556500
Li              -0.1537504100        6.3211243100       17.8441615000
Li               1.0632935400        3.7753201700       18.8548786000
Li               1.9116352300        0.9952009600       19.7046525000
Li               2.1370335300        5.8701766200       20.7153701200
Li              -0.0284579700        3.0828289400       21.5513787000
Li               1.2767060900        0.5409216500       22.5894640100
Li               0.9154236100        5.1679615200       23.3337350400
Li               2.2014216000        2.6147770200       24.4218258400
Li               3.2325279200       -0.2445154300       25.1176214300
Li               2.7173190700        5.0149978200       13.4419196100
Li               3.7484606900        2.1557085300       14.1376920400
Li               4.0428014700        7.0233187900       15.2257995200
Li               4.6731483800        4.2295725400       15.9700672400
Li               3.0034063100        1.6876811500       17.0081514300
Li               2.8211822800        6.3211282900       17.8441656400
Li               4.0382260000        3.7753199500       18.8548753400
Li               4.8865678200        0.9952025600       19.7046563500
Li               5.1119653900        5.8701741800       20.7153656000
Li               2.9464739800        3.0828303700       21.5513742000
Li               4.2516389200        0.5409285600       22.5894702500
Li               3.8903561100        5.1679640400       23.3337320200
Li               5.1763530900        2.6147872200       24.4218358300
End final coordinates


     Message from routine punch:
     Nothing written, as per user request (disk_io='none')
 
     init_run     :      6.66s CPU      7.00s WALL (       1 calls)
     electrons    :    149.77s CPU    153.48s WALL (       1 calls)
     forces       :      0.59s CPU      0.60s WALL (       1 calls)

     Called by init_run:
     wfcinit      :      4.22s CPU      4.44s WALL (       1 calls)
     potinit      :      0.27s CPU      0.30s WALL (       1 calls)
     hinit0       :      0.02s CPU      0.05s WALL (       1 calls)

     Called by electrons:
     c_bands      :    124.45s CPU    127.11s WALL (      22 calls)
     sum_band     :     21.45s CPU     22.17s WALL (      22 calls)
     v_of_rho     :      0.76s CPU      0.81s WALL (      23 calls)
     newd         :      0.35s CPU      0.48s WALL (      23 calls)
     PAW_pot      :      0.57s CPU      0.63s WALL (      23 calls)
     mix_rho      :      2.03s CPU      2.09s WALL (      22 calls)

     Called by c_bands:
     init_us_2    :      1.48s CPU      1.53s WALL (    1150 calls)
     cegterg      :    119.81s CPU    122.41s WALL (     550 calls)

     Called by *egterg:
     cdiaghg      :     16.23s CPU     16.33s WALL (    4207 calls)
     h_psi        :     87.61s CPU     90.13s WALL (    4232 calls)
     s_psi        :      4.61s CPU      4.66s WALL (    4232 calls)
     g_psi        :      0.06s CPU      0.06s WALL (    3657 calls)

     Called by h_psi:
     h_psi:calbec :      8.70s CPU      8.99s WALL (    4232 calls)
     vloc_psi     :     72.60s CPU     74.79s WALL (    4232 calls)
                                        0.00s GPU  (    4232 calls)
     add_vuspsi   :      5.89s CPU      5.93s WALL (    4232 calls)

     General routines
     calbec       :     11.38s CPU     11.68s WALL (    4882 calls)
     fft          :      1.04s CPU      1.06s WALL (     299 calls)
     ffts         :      2.31s CPU      2.35s WALL (    2436 calls)
     fftw         :     85.63s CPU     88.10s WALL (  204862 calls)
     interpolate  :      0.09s CPU      0.10s WALL (      23 calls)
 
     Parallel routines
 
     PWSCF        :   2m37.62s CPU   2m42.67s WALL

 
   This run was terminated on:   0:38:37  23Jan2025            

=------------------------------------------------------------------------------=
   JOB DONE.
=------------------------------------------------------------------------------=
