
     Program PWSCF v.7.4 starts on  6Jan2025 at 22: 0:46 
        Git branch: develop
        Last git commit: e877ff360aceba4b8d76ffc2fb1c70545fc5dd57
        Last git commit date: Sat Jan 4 12:56:15 2025 +0000
        Last git commit subject: Merge branch 'orthoU' into 'develop'

     This program is part of the open-source Quantum ESPRESSO suite
     for quantum simulation of materials; please cite
         "P. Giannozzi et al., J. Phys.:Condens. Matter 21 395502 (2009);
         "P. Giannozzi et al., J. Phys.:Condens. Matter 29 465901 (2017);
         "P. Giannozzi et al., J. Chem. Phys. 152 154105 (2020);
          URL http://www.quantum-espresso.org", 
     in publications or presentations arising from this work. More details at
     http://www.quantum-espresso.org/quote

     Parallel version (MPI), running on   360 processors

     MPI processes distributed on     9 nodes
     177388 MiB available memory on the printing compute node when the environment starts
 
     Reading input from espresso.pwi
Warning: card &CELL ignored
Warning: card    PRESS_CONV_THR   = 0.1 ignored
Warning: card    CELL_DOFREE      = 'ALL' ignored
Warning: card / ignored
Warning: card &FCP ignored
Warning: card / ignored
Warning: card &RISM ignored
Warning: card / ignored

     Current dimensions of program PWSCF are:
     Max number of different atomic species (ntypx) = 10
     Max number of k-points (npk) =  40000
     Max angular momentum in pseudopotentials (lmaxx) =  4

     IMPORTANT: XC functional enforced from input :
     Exchange-correlation= PBE
                           (   1   4   3   4   0   0   0)
     Any further DFT definition will be discarded
     Please, verify this is what you really want

 
     Reading input from environ.in:
     * using ionic solvent mode
     * setting boundary derivatives method to SSCS default
     * setting electrolyte-boundary derivatives method to SSCS default

Environ Warning (1001): card EOF ignored

     
 
     K-points division:     npool     =       2
     R & G space division:  proc/nbgrp/npool/nimage =     180
     Subspace diagonalization in iterative solution of the eigenvalue problem:
     a serial algorithm will be used

 
     Parallelization info
     --------------------
     sticks:   dense  smooth     PW     G-vecs:    dense   smooth      PW
     Min          47      18      5                26681     6698     959
     Max          48      19      6                26720     6787     997
     Sum        8497    3389    941              4805333  1215433  176195
 
     Using Slab Decomposition
 


     bravais-lattice index     =           12
     lattice parameter (alat)  =      12.9830  a.u.
     unit-cell volume          =   12574.0527 (a.u.)^3
     number of atoms/cell      =           20
     number of atomic types    =            1
     number of electrons       =        60.00
     number of Kohn-Sham states=           45
     kinetic-energy cutoff     =      80.0000  Ry
     charge density cutoff     =     800.0000  Ry
     scf convergence threshold =      1.0E-06
     mixing beta               =       0.2000
     number of iterations used =            8  local-TF  mixing
     energy convergence thresh.=      1.0E-05
     force convergence thresh. =      3.9E-04
     Exchange-correlation= PBE
                           (   1   4   3   4   0   0   0)
     nstep                     =          999


     ================================================================================
 
                                  Environ Setup Summary

     ================================================================================
 
     Please cite

          O. Andreussi, I. Dabo and N. Marzari, J. Chem. Phys. 136, 064102 (2012)
          F. Nattino, M. Truscott, N. Marzari, and O. Andreussi, J. Chem. Phys. 150, 041722 (2019)

     in publications or presentations arising from this work.

     ================================================================================
 
     Parameters
     ==========

     compensation onset threshold      =               0.1000E+00
     static permittivity               =                    89.90
     surface tension in input (dyn/cm) =                    37.30
     surface tension in internal units =               0.4792E-04

     Solvent Boundary
     ================

     solvent mode                      =                    ionic
     derivatives method                =                   lowmem
     electrolyte derivatives method    =                   lowmem
     numerical core for derivatives    =                      fft
     switching function adopted        =                     SCCS
     density limit for vacuum region   =               0.5000E-02
     density limit for bulk solvent    =               0.1000E-03
     soft-sphere radius mode           =                    bondi
     soft-sphere softness              =                     0.50
     alpha                             =                     1.32

     Electrostatic Setup
     ===================

     electrostatic problem to solve    =                    modpb
     numerical solver adopted          =                   newton
     type of auxiliary density adopted =                     none
     numerical core for poisson        =                      fft
     adopting a nested solver scheme
     inner solver                      =                       cg
     inner core                        =                      fft
     type of pbc corrections           =                parabolic
     numerical core for corrections    =                      1da

     ================================================================================
 

     >>>>> Grand-Canonical SCF is activated <<<<<
     Initial Total Charge  =     0.000000 e
     Target Fermi Energy   =    -4.404000 eV
     Thr. of Fermi Energy  =     0.001000 eV
     Wave-shift of Kerker  =     0.400000 bohr^-1
     Wave-shift of Hartree =     1.500000 bohr^-1
     Mixing Rate of Fermi  =     0.050000

     celldm(1)=  12.983009  celldm(2)=   0.829156  celldm(3)=   7.267908
     celldm(4)=  -0.301511  celldm(5)=   0.000000  celldm(6)=   0.000000

     crystal axes: (cart. coord. in units of alat)
               a(1) = (   1.000000   0.000000   0.000000 )  
               a(2) = (  -0.250000   0.790569   0.000000 )  
               a(3) = (   0.000000   0.000000   7.267908 )  

     reciprocal axes: (cart. coord. in units 2 pi/alat)
               b(1) = (  1.000000  0.316228  0.000000 )  
               b(2) = (  0.000000  1.264912  0.000000 )  
               b(3) = (  0.000000  0.000000  0.137591 )  


     PseudoPot. # 1 for Li read from file:
     /home/mmm1182/Repos/Pseudopotentials/pslibrary/Li.pbe-sl-kjpaw_psl.1.0.0.UPF
     MD5 check sum: f40bb4162937df3f7c561f1969c76545
     Pseudo is Projector augmented-wave, Zval =  3.0
     Generated using 'atomic' code by A. Dal Corso  v.7.3.1
     Shape of augmentation charge: PSQ
     Using radial grid of 1017 points,  4 beta functions with: 
                l(1) =   0
                l(2) =   0
                l(3) =   1
                l(4) =   1
     Q(r) pseudized with 0 coefficients 


     atomic species   valence    mass     pseudopotential
     Li                3.00     6.94000     Li( 1.00)

     No symmetry found


                                    s                        frac. trans.

      isym =  1     identity                                     

 cryst.   s( 1) = (     1          0          0      )
                  (     0          1          0      )
                  (     0          0          1      )

 cart.    s( 1) = (  1.0000000 -0.0000000  0.0000000 )
                  (  0.0000000  1.0000000  0.0000000 )
                  (  0.0000000  0.0000000  1.0000000 )


     point group C_1 (1)    
     there are  1 classes
     the character table:

       E    
A      1.00

     the symmetry operations in each class and the name of the first element:

     E        1
          identity                                               

   Cartesian axes

     site n.     atom                  positions (alat units)
         1        Li     tau(   1) = (   0.2502053   0.3100448   3.0822741  )
         2        Li     tau(   2) = (   0.0002049   0.6539377   3.2339483  )
         3        Li     tau(   3) = (   0.0001586   0.1627168   3.3994374  )
         4        Li     tau(   4) = (   0.2500513   0.4787392   3.5464788  )
         5        Li     tau(   5) = (   0.2499417  -0.0058406   3.7193286  )
         6        Li     tau(   6) = (  -0.0001551   0.3106912   3.8658532  )
         7        Li     tau(   7) = (   0.2497955   0.6106079   4.0346621  )
         8        Li     tau(   8) = (   0.2497982   0.1656697   4.1858496  )
         9        Li     tau(   9) = (  -0.0002359   0.5133590   4.4012227  )
        10        Li     tau(  10) = (   0.5002345  -0.0376574   2.8704843  )
        11        Li     tau(  11) = (   0.7502040   0.3100527   3.0822810  )
        12        Li     tau(  12) = (   0.5001994   0.6539403   3.2339514  )
        13        Li     tau(  13) = (   0.5001521   0.1627237   3.3994421  )
        14        Li     tau(  14) = (   0.7500572   0.4787357   3.5464810  )
        15        Li     tau(  15) = (   0.7499453  -0.0058417   3.7193356  )
        16        Li     tau(  16) = (   0.4998446   0.3106900   3.8658551  )
        17        Li     tau(  17) = (   0.7497998   0.6106077   4.0346618  )
        18        Li     tau(  18) = (   0.7497999   0.1656782   4.1858505  )
        19        Li     tau(  19) = (   0.4997663   0.5133619   4.4012121  )
        20        Li     tau(  20) = (   1.0002327  -0.0376606   2.8704651  )

   Crystallographic axes

     site n.     atom                  positions (cryst. coord.)
         1        Li     tau(   1) = (  0.3482502  0.3921794  0.4240937  )
         2        Li     tau(   2) = (  0.2069983  0.8271735  0.4449627  )
         3        Li     tau(   3) = (  0.0516142  0.2058224  0.4677326  )
         4        Li     tau(   4) = (  0.4014420  0.6055628  0.4879642  )
         5        Li     tau(   5) = (  0.2480947 -0.0073879  0.5117468  )
         6        Li     tau(   6) = (  0.0980942  0.3929970  0.5319073  )
         7        Li     tau(   7) = (  0.4428868  0.7723651  0.5551339  )
         8        Li     tau(   8) = (  0.3021876  0.2095575  0.5759360  )
         9        Li     tau(   9) = (  0.1621025  0.6493538  0.6055694  )
        10        Li     tau(  10) = (  0.4883262 -0.0476333  0.3949533  )
        11        Li     tau(  11) = (  0.8482513  0.3921893  0.4240947  )
        12        Li     tau(  12) = (  0.7069936  0.8271767  0.4449632  )
        13        Li     tau(  13) = (  0.5516099  0.2058311  0.4677332  )
        14        Li     tau(  14) = (  0.9014468  0.6055584  0.4879645  )
        15        Li     tau(  15) = (  0.7480980 -0.0073892  0.5117478  )
        16        Li     tau(  16) = (  0.5980934  0.3929955  0.5319075  )
        17        Li     tau(  17) = (  0.9428911  0.7723649  0.5551339  )
        18        Li     tau(  18) = (  0.8021920  0.2095683  0.5759361  )
        19        Li     tau(  19) = (  0.6621057  0.6493575  0.6055679  )
        20        Li     tau(  20) = (  0.9883233 -0.0476374  0.3949507  )

     number of k points=    62  Marzari-Vanderbilt smearing, width (Ry)=  0.0100
                       cart. coord. in units 2pi/alat
        k(    1) = (   0.0000000   0.0000000   0.0000000), wk =   0.0166667
        k(    2) = (   0.0000000   0.1054093   0.0000000), wk =   0.0333333
        k(    3) = (   0.0000000   0.2108186   0.0000000), wk =   0.0333333
        k(    4) = (   0.0000000   0.3162279   0.0000000), wk =   0.0333333
        k(    5) = (   0.0000000   0.4216372   0.0000000), wk =   0.0333333
        k(    6) = (   0.0000000   0.5270466   0.0000000), wk =   0.0333333
        k(    7) = (   0.0000000  -0.6324559   0.0000000), wk =   0.0166667
        k(    8) = (   0.1000000   0.0316228   0.0000000), wk =   0.0333333
        k(    9) = (   0.1000000   0.1370321   0.0000000), wk =   0.0333333
        k(   10) = (   0.1000000   0.2424414   0.0000000), wk =   0.0333333
        k(   11) = (   0.1000000   0.3478507   0.0000000), wk =   0.0333333
        k(   12) = (   0.1000000   0.4532600   0.0000000), wk =   0.0333333
        k(   13) = (   0.1000000   0.5586693   0.0000000), wk =   0.0333333
        k(   14) = (   0.1000000  -0.6008331   0.0000000), wk =   0.0333333
        k(   15) = (   0.1000000  -0.4954238   0.0000000), wk =   0.0333333
        k(   16) = (   0.1000000  -0.3900144   0.0000000), wk =   0.0333333
        k(   17) = (   0.1000000  -0.2846051   0.0000000), wk =   0.0333333
        k(   18) = (   0.1000000  -0.1791958   0.0000000), wk =   0.0333333
        k(   19) = (   0.1000000  -0.0737865   0.0000000), wk =   0.0333333
        k(   20) = (   0.2000000   0.0632456   0.0000000), wk =   0.0333333
        k(   21) = (   0.2000000   0.1686549   0.0000000), wk =   0.0333333
        k(   22) = (   0.2000000   0.2740642   0.0000000), wk =   0.0333333
        k(   23) = (   0.2000000   0.3794735   0.0000000), wk =   0.0333333
        k(   24) = (   0.2000000   0.4848828   0.0000000), wk =   0.0333333
        k(   25) = (   0.2000000   0.5902921   0.0000000), wk =   0.0333333
        k(   26) = (   0.2000000  -0.5692103   0.0000000), wk =   0.0333333
        k(   27) = (   0.2000000  -0.4638010   0.0000000), wk =   0.0333333
        k(   28) = (   0.2000000  -0.3583917   0.0000000), wk =   0.0333333
        k(   29) = (   0.2000000  -0.2529823   0.0000000), wk =   0.0333333
        k(   30) = (   0.2000000  -0.1475730   0.0000000), wk =   0.0333333
        k(   31) = (   0.2000000  -0.0421637   0.0000000), wk =   0.0333333
        k(   32) = (   0.3000000   0.0948684   0.0000000), wk =   0.0333333
        k(   33) = (   0.3000000   0.2002777   0.0000000), wk =   0.0333333
        k(   34) = (   0.3000000   0.3056870   0.0000000), wk =   0.0333333
        k(   35) = (   0.3000000   0.4110963   0.0000000), wk =   0.0333333
        k(   36) = (   0.3000000   0.5165056   0.0000000), wk =   0.0333333
        k(   37) = (   0.3000000   0.6219149   0.0000000), wk =   0.0333333
        k(   38) = (   0.3000000  -0.5375875   0.0000000), wk =   0.0333333
        k(   39) = (   0.3000000  -0.4321782   0.0000000), wk =   0.0333333
        k(   40) = (   0.3000000  -0.3267689   0.0000000), wk =   0.0333333
        k(   41) = (   0.3000000  -0.2213596   0.0000000), wk =   0.0333333
        k(   42) = (   0.3000000  -0.1159502   0.0000000), wk =   0.0333333
        k(   43) = (   0.3000000  -0.0105409   0.0000000), wk =   0.0333333
        k(   44) = (   0.4000000   0.1264912   0.0000000), wk =   0.0333333
        k(   45) = (   0.4000000   0.2319005   0.0000000), wk =   0.0333333
        k(   46) = (   0.4000000   0.3373098   0.0000000), wk =   0.0333333
        k(   47) = (   0.4000000   0.4427191   0.0000000), wk =   0.0333333
        k(   48) = (   0.4000000   0.5481284   0.0000000), wk =   0.0333333
        k(   49) = (   0.4000000   0.6535377   0.0000000), wk =   0.0333333
        k(   50) = (   0.4000000  -0.5059647   0.0000000), wk =   0.0333333
        k(   51) = (   0.4000000  -0.4005554   0.0000000), wk =   0.0333333
        k(   52) = (   0.4000000  -0.2951461   0.0000000), wk =   0.0333333
        k(   53) = (   0.4000000  -0.1897368   0.0000000), wk =   0.0333333
        k(   54) = (   0.4000000  -0.0843274   0.0000000), wk =   0.0333333
        k(   55) = (   0.4000000   0.0210819   0.0000000), wk =   0.0333333
        k(   56) = (  -0.5000000  -0.1581140   0.0000000), wk =   0.0166667
        k(   57) = (  -0.5000000  -0.0527047   0.0000000), wk =   0.0333333
        k(   58) = (  -0.5000000   0.0527047   0.0000000), wk =   0.0333333
        k(   59) = (  -0.5000000   0.1581140   0.0000000), wk =   0.0333333
        k(   60) = (  -0.5000000   0.2635233   0.0000000), wk =   0.0333333
        k(   61) = (  -0.5000000   0.3689326   0.0000000), wk =   0.0333333
        k(   62) = (  -0.5000000  -0.7905698   0.0000000), wk =   0.0166667

                       cryst. coord.
        k(    1) = (   0.0000000   0.0000000   0.0000000), wk =   0.0166667
        k(    2) = (   0.0000000   0.0833333   0.0000000), wk =   0.0333333
        k(    3) = (   0.0000000   0.1666667   0.0000000), wk =   0.0333333
        k(    4) = (   0.0000000   0.2500000   0.0000000), wk =   0.0333333
        k(    5) = (   0.0000000   0.3333333   0.0000000), wk =   0.0333333
        k(    6) = (   0.0000000   0.4166667   0.0000000), wk =   0.0333333
        k(    7) = (   0.0000000  -0.5000000   0.0000000), wk =   0.0166667
        k(    8) = (   0.1000000  -0.0000000   0.0000000), wk =   0.0333333
        k(    9) = (   0.1000000   0.0833333   0.0000000), wk =   0.0333333
        k(   10) = (   0.1000000   0.1666667   0.0000000), wk =   0.0333333
        k(   11) = (   0.1000000   0.2500000   0.0000000), wk =   0.0333333
        k(   12) = (   0.1000000   0.3333333   0.0000000), wk =   0.0333333
        k(   13) = (   0.1000000   0.4166667   0.0000000), wk =   0.0333333
        k(   14) = (   0.1000000  -0.5000000   0.0000000), wk =   0.0333333
        k(   15) = (   0.1000000  -0.4166667   0.0000000), wk =   0.0333333
        k(   16) = (   0.1000000  -0.3333333   0.0000000), wk =   0.0333333
        k(   17) = (   0.1000000  -0.2500000   0.0000000), wk =   0.0333333
        k(   18) = (   0.1000000  -0.1666667   0.0000000), wk =   0.0333333
        k(   19) = (   0.1000000  -0.0833333   0.0000000), wk =   0.0333333
        k(   20) = (   0.2000000  -0.0000000   0.0000000), wk =   0.0333333
        k(   21) = (   0.2000000   0.0833333   0.0000000), wk =   0.0333333
        k(   22) = (   0.2000000   0.1666667   0.0000000), wk =   0.0333333
        k(   23) = (   0.2000000   0.2500000   0.0000000), wk =   0.0333333
        k(   24) = (   0.2000000   0.3333333   0.0000000), wk =   0.0333333
        k(   25) = (   0.2000000   0.4166667   0.0000000), wk =   0.0333333
        k(   26) = (   0.2000000  -0.5000000   0.0000000), wk =   0.0333333
        k(   27) = (   0.2000000  -0.4166667   0.0000000), wk =   0.0333333
        k(   28) = (   0.2000000  -0.3333333   0.0000000), wk =   0.0333333
        k(   29) = (   0.2000000  -0.2500000   0.0000000), wk =   0.0333333
        k(   30) = (   0.2000000  -0.1666667   0.0000000), wk =   0.0333333
        k(   31) = (   0.2000000  -0.0833333   0.0000000), wk =   0.0333333
        k(   32) = (   0.3000000  -0.0000000   0.0000000), wk =   0.0333333
        k(   33) = (   0.3000000   0.0833333   0.0000000), wk =   0.0333333
        k(   34) = (   0.3000000   0.1666667   0.0000000), wk =   0.0333333
        k(   35) = (   0.3000000   0.2500000   0.0000000), wk =   0.0333333
        k(   36) = (   0.3000000   0.3333333   0.0000000), wk =   0.0333333
        k(   37) = (   0.3000000   0.4166667   0.0000000), wk =   0.0333333
        k(   38) = (   0.3000000  -0.5000000   0.0000000), wk =   0.0333333
        k(   39) = (   0.3000000  -0.4166667   0.0000000), wk =   0.0333333
        k(   40) = (   0.3000000  -0.3333333   0.0000000), wk =   0.0333333
        k(   41) = (   0.3000000  -0.2500000   0.0000000), wk =   0.0333333
        k(   42) = (   0.3000000  -0.1666667   0.0000000), wk =   0.0333333
        k(   43) = (   0.3000000  -0.0833333   0.0000000), wk =   0.0333333
        k(   44) = (   0.4000000  -0.0000000   0.0000000), wk =   0.0333333
        k(   45) = (   0.4000000   0.0833333   0.0000000), wk =   0.0333333
        k(   46) = (   0.4000000   0.1666667   0.0000000), wk =   0.0333333
        k(   47) = (   0.4000000   0.2500000   0.0000000), wk =   0.0333333
        k(   48) = (   0.4000000   0.3333333   0.0000000), wk =   0.0333333
        k(   49) = (   0.4000000   0.4166667   0.0000000), wk =   0.0333333
        k(   50) = (   0.4000000  -0.5000000   0.0000000), wk =   0.0333333
        k(   51) = (   0.4000000  -0.4166667   0.0000000), wk =   0.0333333
        k(   52) = (   0.4000000  -0.3333333   0.0000000), wk =   0.0333333
        k(   53) = (   0.4000000  -0.2500000   0.0000000), wk =   0.0333333
        k(   54) = (   0.4000000  -0.1666667   0.0000000), wk =   0.0333333
        k(   55) = (   0.4000000  -0.0833333   0.0000000), wk =   0.0333333
        k(   56) = (  -0.5000000   0.0000000   0.0000000), wk =   0.0166667
        k(   57) = (  -0.5000000   0.0833333   0.0000000), wk =   0.0333333
        k(   58) = (  -0.5000000   0.1666667   0.0000000), wk =   0.0333333
        k(   59) = (  -0.5000000   0.2500000   0.0000000), wk =   0.0333333
        k(   60) = (  -0.5000000   0.3333333   0.0000000), wk =   0.0333333
        k(   61) = (  -0.5000000   0.4166667   0.0000000), wk =   0.0333333
        k(   62) = (  -0.5000000  -0.5000000   0.0000000), wk =   0.0166667

     Dense  grid:  4805333 G-vectors     FFT dimensions: ( 120, 100, 864)

     Smooth grid:  1215433 G-vectors     FFT dimensions: (  75,  64, 540)

     Dynamical RAM for                 wfc:       0.58 MB

     Dynamical RAM for     wfc (w. buffer):      18.54 MB

     Dynamical RAM for           str. fact:       0.41 MB

     Dynamical RAM for           local pot:       0.00 MB

     Dynamical RAM for          nlocal pot:       2.06 MB

     Dynamical RAM for                qrad:       0.65 MB

     Dynamical RAM for          rho,v,vnew:       2.60 MB

     Dynamical RAM for               rhoin:       0.87 MB

     Dynamical RAM for            rho*nmix:       6.52 MB

     Dynamical RAM for           G-vectors:       1.58 MB

     Dynamical RAM for          h,s,v(r/c):       1.48 MB

     Dynamical RAM for          <psi|beta>:       0.11 MB

     Dynamical RAM for                 psi:       2.32 MB

     Dynamical RAM for                hpsi:       2.32 MB

     Dynamical RAM for                spsi:       2.32 MB

     Dynamical RAM for      wfcinit/wfcrot:       1.21 MB

     Dynamical RAM for           addusdens:      13.04 MB

     Dynamical RAM for          addusforce:      20.81 MB

     Estimated static dynamical RAM per process >      29.81 MB

     Estimated max dynamical RAM per process >      73.32 MB

     Estimated total dynamical RAM >      18.94 GB

     Initial potential from superposition of free atoms

     starting charge      59.9078, renormalised to      60.0000

     negative rho (up, down):  2.075E-03 0.000E+00
     Starting wfcs are random
     Checking if some PAW data can be deallocated... 

     total cpu time spent up to now is        6.6 secs

     per-process dynamical memory:   102.0 Mb

     Self-consistent Calculation

     iteration #  1     ecut=    80.00 Ry     beta= 0.20
     Davidson diagonalization with overlap

---- Real-time Memory Report at c_bands before calling an iterative solver
           281 MiB given to the printing process from OS
            99 MiB allocation reported by mallinfo(arena+hblkhd)
        173948 MiB available memory on the node where the printing process lives
------------------
     c_bands:  1 eigenvalues not converged
     c_bands:  1 eigenvalues not converged
     c_bands:  1 eigenvalues not converged
     ethr =  1.00E-12,  avg # of iterations = 99.4

     negative rho (up, down):  1.549E-03 0.000E+00

     add environment contribution to local potential

     total cpu time spent up to now is      110.3 secs

     total energy              =    -300.68444967 Ry
     estimated scf accuracy    <       0.07896672 Ry

     total charge of GC-SCF    =       0.04926375 e
     the Fermi energy          =      -4.51112847 eV
                        (error :       0.10712847 eV)
     electrostatic embedding   =       0.00000000 Ry
     cavitation energy         =       0.01673583 Ry
     electrolyte free energy   =       0.00541203 Ry
     correction to one-el term =       0.00000000 Ry

     iteration #  2     ecut=    80.00 Ry     beta= 0.20
     Davidson diagonalization with overlap

---- Real-time Memory Report at c_bands before calling an iterative solver
           281 MiB given to the printing process from OS
           134 MiB allocation reported by mallinfo(arena+hblkhd)
        173146 MiB available memory on the node where the printing process lives
------------------
     ethr =  1.00E-05,  avg # of iterations = 14.0

     negative rho (up, down):  1.192E-03 0.000E+00

     add environment contribution to local potential

     total cpu time spent up to now is      128.0 secs

     total energy              =    -300.74291779 Ry
     estimated scf accuracy    <       0.01491067 Ry

     total charge of GC-SCF    =       0.09772052 e
     the Fermi energy          =      -3.52562481 eV
                        (error :       0.87837519 eV)
     electrostatic embedding   =      -0.01961665 Ry
     cavitation energy         =       0.01673583 Ry
     electrolyte free energy   =      -0.00394756 Ry
     correction to one-el term =      -1.79025636 Ry

     iteration #  3     ecut=    80.00 Ry     beta= 0.20
     Davidson diagonalization with overlap

---- Real-time Memory Report at c_bands before calling an iterative solver
           281 MiB given to the printing process from OS
           134 MiB allocation reported by mallinfo(arena+hblkhd)
        173143 MiB available memory on the node where the printing process lives
------------------
     ethr =  1.00E-05,  avg # of iterations =  9.1

     negative rho (up, down):  8.963E-04 0.000E+00

     add environment contribution to local potential

     total cpu time spent up to now is      140.8 secs

     total energy              =    -300.72360084 Ry
     estimated scf accuracy    <       0.00912998 Ry

     total charge of GC-SCF    =       0.26696116 e
     the Fermi energy          =      -3.30045661 eV
                        (error :       1.10354339 eV)
     electrostatic embedding   =      -0.01878914 Ry
     cavitation energy         =       0.01673583 Ry
     electrolyte free energy   =      -0.00352773 Ry
     correction to one-el term =      -3.14492480 Ry

     iteration #  4     ecut=    80.00 Ry     beta= 0.20
     Davidson diagonalization with overlap

---- Real-time Memory Report at c_bands before calling an iterative solver
           281 MiB given to the printing process from OS
           134 MiB allocation reported by mallinfo(arena+hblkhd)
        173144 MiB available memory on the node where the printing process lives
------------------
     ethr =  1.00E-05,  avg # of iterations =  9.5

     negative rho (up, down):  7.218E-04 0.000E+00

     add environment contribution to local potential

     total cpu time spent up to now is      155.6 secs

     total energy              =    -300.73897489 Ry
     estimated scf accuracy    <       0.00232778 Ry

     total charge of GC-SCF    =       0.54478986 e
     the Fermi energy          =      -3.07484947 eV
                        (error :       1.32915053 eV)
     electrostatic embedding   =      -0.02863920 Ry
     cavitation energy         =       0.01673583 Ry
     electrolyte free energy   =      -0.00266683 Ry
     correction to one-el term =      -7.40975732 Ry

     iteration #  5     ecut=    80.00 Ry     beta= 0.20
     Davidson diagonalization with overlap

---- Real-time Memory Report at c_bands before calling an iterative solver
           281 MiB given to the printing process from OS
           134 MiB allocation reported by mallinfo(arena+hblkhd)
        173143 MiB available memory on the node where the printing process lives
------------------
     ethr =  3.92E-06,  avg # of iterations = 12.1

     negative rho (up, down):  6.082E-04 0.000E+00

     add environment contribution to local potential

     total cpu time spent up to now is      172.1 secs

     total energy              =    -300.79188856 Ry
     estimated scf accuracy    <       0.00222539 Ry

     total charge of GC-SCF    =       0.67653597 e
     the Fermi energy          =      -3.10319003 eV
                        (error :       1.30080997 eV)
     electrostatic embedding   =      -0.07924204 Ry
     cavitation energy         =       0.01673583 Ry
     electrolyte free energy   =      -0.00301880 Ry
     correction to one-el term =     -14.51244362 Ry

     iteration #  6     ecut=    80.00 Ry     beta= 0.20
     Davidson diagonalization with overlap

---- Real-time Memory Report at c_bands before calling an iterative solver
           281 MiB given to the printing process from OS
           134 MiB allocation reported by mallinfo(arena+hblkhd)
        173139 MiB available memory on the node where the printing process lives
------------------
     ethr =  3.75E-06,  avg # of iterations =  9.2

     negative rho (up, down):  5.313E-04 0.000E+00

     add environment contribution to local potential

     total cpu time spent up to now is      187.0 secs

     total energy              =    -300.78980373 Ry
     estimated scf accuracy    <       0.00102914 Ry

     total charge of GC-SCF    =       0.84978240 e
     the Fermi energy          =      -3.16792457 eV
                        (error :       1.23607543 eV)
     electrostatic embedding   =      -0.11594728 Ry
     cavitation energy         =       0.01673583 Ry
     electrolyte free energy   =      -0.00361211 Ry
     correction to one-el term =     -18.32018533 Ry

     iteration #  7     ecut=    80.00 Ry     beta= 0.20
     Davidson diagonalization with overlap

---- Real-time Memory Report at c_bands before calling an iterative solver
           281 MiB given to the printing process from OS
           134 MiB allocation reported by mallinfo(arena+hblkhd)
        173140 MiB available memory on the node where the printing process lives
------------------
     ethr =  1.74E-06,  avg # of iterations = 12.7

     negative rho (up, down):  4.898E-04 0.000E+00

     add environment contribution to local potential

     total cpu time spent up to now is      204.5 secs

     total energy              =    -300.79246009 Ry
     estimated scf accuracy    <       0.00120004 Ry

     total charge of GC-SCF    =       1.07701070 e
     the Fermi energy          =      -3.36647874 eV
                        (error :       1.03752126 eV)
     electrostatic embedding   =      -0.17708208 Ry
     cavitation energy         =       0.01673583 Ry
     electrolyte free energy   =      -0.00491711 Ry
     correction to one-el term =     -23.55999371 Ry

     iteration #  8     ecut=    80.00 Ry     beta= 0.20
     Davidson diagonalization with overlap

---- Real-time Memory Report at c_bands before calling an iterative solver
           281 MiB given to the printing process from OS
           134 MiB allocation reported by mallinfo(arena+hblkhd)
        173133 MiB available memory on the node where the printing process lives
------------------
     ethr =  1.74E-06,  avg # of iterations = 14.2

     negative rho (up, down):  5.539E-04 0.000E+00

     add environment contribution to local potential

     total cpu time spent up to now is      221.6 secs

     total energy              =    -300.80193223 Ry
     estimated scf accuracy    <       0.00073765 Ry

     total charge of GC-SCF    =       1.40542771 e
     the Fermi energy          =      -3.49693618 eV
                        (error :       0.90706382 eV)
     electrostatic embedding   =      -0.28456107 Ry
     cavitation energy         =       0.01673583 Ry
     electrolyte free energy   =      -0.00651902 Ry
     correction to one-el term =     -30.36361587 Ry

     iteration #  9     ecut=    80.00 Ry     beta= 0.20
     Davidson diagonalization with overlap

---- Real-time Memory Report at c_bands before calling an iterative solver
           281 MiB given to the printing process from OS
           134 MiB allocation reported by mallinfo(arena+hblkhd)
        173136 MiB available memory on the node where the printing process lives
------------------
     ethr =  1.26E-06,  avg # of iterations = 13.8

     negative rho (up, down):  2.070E-03 0.000E+00

     add environment contribution to local potential

     total cpu time spent up to now is      240.6 secs

     total energy              =    -300.82504836 Ry
     estimated scf accuracy    <       0.00060543 Ry

     total charge of GC-SCF    =       1.72211493 e
     the Fermi energy          =      -3.51608947 eV
                        (error :       0.88791053 eV)
     electrostatic embedding   =      -0.49862812 Ry
     cavitation energy         =       0.01673583 Ry
     electrolyte free energy   =      -0.00917916 Ry
     correction to one-el term =     -40.47799932 Ry

     iteration # 10     ecut=    80.00 Ry     beta= 0.20
     Davidson diagonalization with overlap

---- Real-time Memory Report at c_bands before calling an iterative solver
           281 MiB given to the printing process from OS
           134 MiB allocation reported by mallinfo(arena+hblkhd)
        173135 MiB available memory on the node where the printing process lives
------------------
     ethr =  1.04E-06,  avg # of iterations = 20.7

     negative rho (up, down):  1.410E-03 0.000E+00

     add environment contribution to local potential

     total cpu time spent up to now is      262.2 secs

     total energy              =    -300.86318551 Ry
     estimated scf accuracy    <       0.00018617 Ry

     total charge of GC-SCF    =       1.76680449 e
     the Fermi energy          =      -3.89581759 eV
                        (error :       0.50818241 eV)
     electrostatic embedding   =      -0.76044158 Ry
     cavitation energy         =       0.01673583 Ry
     electrolyte free energy   =      -0.01339001 Ry
     correction to one-el term =     -50.31267339 Ry

     iteration # 11     ecut=    80.00 Ry     beta= 0.20
     Davidson diagonalization with overlap

---- Real-time Memory Report at c_bands before calling an iterative solver
           281 MiB given to the printing process from OS
           134 MiB allocation reported by mallinfo(arena+hblkhd)
        173127 MiB available memory on the node where the printing process lives
------------------
     ethr =  3.20E-07,  avg # of iterations = 10.5

     negative rho (up, down):  3.793E-04 0.000E+00

     add environment contribution to local potential

     total cpu time spent up to now is      279.8 secs

     total energy              =    -300.86048288 Ry
     estimated scf accuracy    <       0.00008899 Ry

     total charge of GC-SCF    =       1.85240061 e
     the Fermi energy          =      -3.99921518 eV
                        (error :       0.40478482 eV)
     electrostatic embedding   =      -0.80350712 Ry
     cavitation energy         =       0.01673583 Ry
     electrolyte free energy   =      -0.01409293 Ry
     correction to one-el term =     -51.79382495 Ry

     iteration # 12     ecut=    80.00 Ry     beta= 0.20
     Davidson diagonalization with overlap

---- Real-time Memory Report at c_bands before calling an iterative solver
           281 MiB given to the printing process from OS
           134 MiB allocation reported by mallinfo(arena+hblkhd)
        173127 MiB available memory on the node where the printing process lives
------------------
     ethr =  1.53E-07,  avg # of iterations = 17.5

     negative rho (up, down):  3.129E-04 0.000E+00

     add environment contribution to local potential

     total cpu time spent up to now is      300.0 secs

     total energy              =    -300.86351845 Ry
     estimated scf accuracy    <       0.00005555 Ry

     total charge of GC-SCF    =       1.93657106 e
     the Fermi energy          =      -4.18690907 eV
                        (error :       0.21709093 eV)
     electrostatic embedding   =      -0.88816770 Ry
     cavitation energy         =       0.01673583 Ry
     electrolyte free energy   =      -0.01546175 Ry
     correction to one-el term =     -54.48084060 Ry

     iteration # 13     ecut=    80.00 Ry     beta= 0.20
     Davidson diagonalization with overlap

---- Real-time Memory Report at c_bands before calling an iterative solver
           281 MiB given to the printing process from OS
           134 MiB allocation reported by mallinfo(arena+hblkhd)
        173118 MiB available memory on the node where the printing process lives
------------------
     ethr =  9.57E-08,  avg # of iterations = 12.3

     negative rho (up, down):  2.966E-04 0.000E+00

     add environment contribution to local potential

     total cpu time spent up to now is      317.6 secs

     total energy              =    -300.86486569 Ry
     estimated scf accuracy    <       0.00002464 Ry

     total charge of GC-SCF    =       1.98629744 e
     the Fermi energy          =      -4.25641324 eV
                        (error :       0.14758676 eV)
     electrostatic embedding   =      -0.97667427 Ry
     cavitation energy         =       0.01673583 Ry
     electrolyte free energy   =      -0.01681643 Ry
     correction to one-el term =     -57.07404001 Ry

     iteration # 14     ecut=    80.00 Ry     beta= 0.20
     Davidson diagonalization with overlap

---- Real-time Memory Report at c_bands before calling an iterative solver
           281 MiB given to the printing process from OS
           134 MiB allocation reported by mallinfo(arena+hblkhd)
        173121 MiB available memory on the node where the printing process lives
------------------
     ethr =  4.25E-08,  avg # of iterations = 19.5

     negative rho (up, down):  3.873E-04 0.000E+00

     add environment contribution to local potential

     total cpu time spent up to now is      339.3 secs

     total energy              =    -300.86540313 Ry
     estimated scf accuracy    <       0.00000710 Ry

     total charge of GC-SCF    =       2.03310519 e
     the Fermi energy          =      -4.35364713 eV
                        (error :       0.05035287 eV)
     electrostatic embedding   =      -1.02913490 Ry
     cavitation energy         =       0.01673583 Ry
     electrolyte free energy   =      -0.01767212 Ry
     correction to one-el term =     -58.57087683 Ry

     iteration # 15     ecut=    80.00 Ry     beta= 0.20
     Davidson diagonalization with overlap

---- Real-time Memory Report at c_bands before calling an iterative solver
           281 MiB given to the printing process from OS
           134 MiB allocation reported by mallinfo(arena+hblkhd)
        173123 MiB available memory on the node where the printing process lives
------------------
     ethr =  1.22E-08,  avg # of iterations = 26.5

     negative rho (up, down):  3.707E-04 0.000E+00

     add environment contribution to local potential

     total cpu time spent up to now is      367.8 secs

     total energy              =    -300.86505047 Ry
     estimated scf accuracy    <       0.00000254 Ry

     total charge of GC-SCF    =       2.03436180 e
     the Fermi energy          =      -4.40639026 eV
                        (error :       0.00239026 eV)
     electrostatic embedding   =      -1.07661513 Ry
     cavitation energy         =       0.01673583 Ry
     electrolyte free energy   =      -0.01846949 Ry
     correction to one-el term =     -59.82287729 Ry

     iteration # 16     ecut=    80.00 Ry     beta= 0.20
     Davidson diagonalization with overlap

---- Real-time Memory Report at c_bands before calling an iterative solver
           281 MiB given to the printing process from OS
           134 MiB allocation reported by mallinfo(arena+hblkhd)
        173119 MiB available memory on the node where the printing process lives
------------------
     ethr =  4.38E-09,  avg # of iterations =  8.9

     negative rho (up, down):  4.627E-04 0.000E+00

     add environment contribution to local potential

     total cpu time spent up to now is      381.3 secs

     total energy              =    -300.86504470 Ry
     estimated scf accuracy    <       0.00000183 Ry

     total charge of GC-SCF    =       2.02205893 e
     the Fermi energy          =      -4.41200245 eV
                        (error :       0.00800245 eV)
     electrostatic embedding   =      -1.07803945 Ry
     cavitation energy         =       0.01673583 Ry
     electrolyte free energy   =      -0.01849396 Ry
     correction to one-el term =     -59.86302099 Ry

     iteration # 17     ecut=    80.00 Ry     beta= 0.20
     Davidson diagonalization with overlap

---- Real-time Memory Report at c_bands before calling an iterative solver
           281 MiB given to the printing process from OS
           134 MiB allocation reported by mallinfo(arena+hblkhd)
        173120 MiB available memory on the node where the printing process lives
------------------
     ethr =  3.16E-09,  avg # of iterations = 11.1

     negative rho (up, down):  3.466E-04 0.000E+00

     add environment contribution to local potential

     total cpu time spent up to now is      399.3 secs

     total energy              =    -300.86510747 Ry
     estimated scf accuracy    <       0.00000125 Ry

     total charge of GC-SCF    =       2.03159207 e
     the Fermi energy          =      -4.40174442 eV
                        (error :       0.00225558 eV)
     electrostatic embedding   =      -1.06368566 Ry
     cavitation energy         =       0.01673583 Ry
     electrolyte free energy   =      -0.01826939 Ry
     correction to one-el term =     -59.46241654 Ry

     iteration # 18     ecut=    80.00 Ry     beta= 0.20
     Davidson diagonalization with overlap

---- Real-time Memory Report at c_bands before calling an iterative solver
           281 MiB given to the printing process from OS
           134 MiB allocation reported by mallinfo(arena+hblkhd)
        173120 MiB available memory on the node where the printing process lives
------------------
     ethr =  2.16E-09,  avg # of iterations = 10.2

     negative rho (up, down):  3.091E-04 0.000E+00

     add environment contribution to local potential

     total cpu time spent up to now is      415.3 secs

     total energy              =    -300.86504316 Ry
     estimated scf accuracy    <       0.00000039 Ry

     total charge of GC-SCF    =       2.03078455 e
     the Fermi energy          =      -4.40872476 eV
                        (error :       0.00472476 eV)
     electrostatic embedding   =      -1.07479177 Ry
     cavitation energy         =       0.01673583 Ry
     electrolyte free energy   =      -0.01844168 Ry
     correction to one-el term =     -59.76804730 Ry

     iteration # 19     ecut=    80.00 Ry     beta= 0.20
     Davidson diagonalization with overlap

---- Real-time Memory Report at c_bands before calling an iterative solver
           281 MiB given to the printing process from OS
           134 MiB allocation reported by mallinfo(arena+hblkhd)
        173118 MiB available memory on the node where the printing process lives
------------------
     ethr =  6.72E-10,  avg # of iterations = 11.2

     negative rho (up, down):  2.941E-04 0.000E+00

     add environment contribution to local potential

     total cpu time spent up to now is      431.3 secs

     total energy              =    -300.86503613 Ry
     estimated scf accuracy    <       0.00000020 Ry

     total charge of GC-SCF    =       2.02862813 e
     the Fermi energy          =      -4.41035175 eV
                        (error :       0.00635175 eV)
     electrostatic embedding   =      -1.07405008 Ry
     cavitation energy         =       0.01673583 Ry
     electrolyte free energy   =      -0.01842928 Ry
     correction to one-el term =     -59.75219983 Ry

     iteration # 20     ecut=    80.00 Ry     beta= 0.20
     Davidson diagonalization with overlap

---- Real-time Memory Report at c_bands before calling an iterative solver
           281 MiB given to the printing process from OS
           134 MiB allocation reported by mallinfo(arena+hblkhd)
        173115 MiB available memory on the node where the printing process lives
------------------
     ethr =  3.44E-10,  avg # of iterations = 14.6

     negative rho (up, down):  2.903E-04 0.000E+00

     add environment contribution to local potential

     total cpu time spent up to now is      449.4 secs

     total energy              =    -300.86505951 Ry
     estimated scf accuracy    <       0.00000007 Ry

     total charge of GC-SCF    =       2.02732411 e
     the Fermi energy          =      -4.40566190 eV
                        (error :       0.00166190 eV)
     electrostatic embedding   =      -1.07181293 Ry
     cavitation energy         =       0.01673583 Ry
     electrolyte free energy   =      -0.01839120 Ry
     correction to one-el term =     -59.69356905 Ry

     iteration # 21     ecut=    80.00 Ry     beta= 0.20
     Davidson diagonalization with overlap

---- Real-time Memory Report at c_bands before calling an iterative solver
           281 MiB given to the printing process from OS
           134 MiB allocation reported by mallinfo(arena+hblkhd)
        173113 MiB available memory on the node where the printing process lives
------------------
     ethr =  1.29E-10,  avg # of iterations = 11.5

     negative rho (up, down):  2.732E-04 0.000E+00

     total cpu time spent up to now is      461.3 secs

     End of self-consistent calculation

          k = 0.0000 0.0000 0.0000 (152015 PWs)   bands (ev):

   -52.2780 -52.2767 -52.2617 -52.2603 -51.5335 -51.5321 -51.5251 -51.5236
   -50.9583 -50.9544 -50.9489 -50.9452 -50.9393 -50.9393 -50.9269 -50.9267
   -50.9007 -50.8979 -50.8938 -50.8921  -7.7573  -7.1628  -6.2177  -5.1420
    -5.1106  -4.9953  -4.5884  -4.5784  -4.0970  -4.0371  -3.9373  -3.9097
    -3.7615  -3.4984  -3.4384  -3.2798  -3.0577  -2.8163  -2.6207  -2.0792
    -1.9414  -1.1859  -1.1322  -0.9490  -0.8584

     occupation numbers 
     1.0000   1.0000   1.0000   1.0000   1.0000   1.0000   1.0000   1.0000
     1.0000   1.0000   1.0000   1.0000   1.0000   1.0000   1.0000   1.0000
     1.0000   1.0000   1.0000   1.0000   1.0000   1.0000   1.0000   1.0000
     1.0000   1.0000   1.0825   1.0788   0.0001   0.0000   0.0000   0.0000
     0.0000   0.0000   0.0000   0.0000   0.0000   0.0000   0.0000   0.0000
     0.0000   0.0000   0.0000   0.0000   0.0000

          k = 0.0000 0.1054 0.0000 (152006 PWs)   bands (ev):

   -52.2780 -52.2767 -52.2617 -52.2603 -51.5335 -51.5321 -51.5251 -51.5236
   -50.9583 -50.9544 -50.9488 -50.9452 -50.9393 -50.9393 -50.9270 -50.9267
   -50.9008 -50.8979 -50.8938 -50.8920  -7.7309  -7.1364  -6.1924  -5.2479
    -4.9821  -4.9599  -4.6946  -4.5534  -4.4330  -4.1342  -4.0287  -3.9158
    -3.6200  -3.4355  -3.4301  -3.3823  -2.9457  -2.8785  -2.3953  -2.0630
    -1.8440  -1.1985  -1.0555  -0.9725  -0.8522

     occupation numbers 
     1.0000   1.0000   1.0000   1.0000   1.0000   1.0000   1.0000   1.0000
     1.0000   1.0000   1.0000   1.0000   1.0000   1.0000   1.0000   1.0000
     1.0000   1.0000   1.0000   1.0000   1.0000   1.0000   1.0000   1.0000
     1.0000   1.0000   1.0299   1.0529   0.5570   0.0004   0.0000   0.0000
     0.0000   0.0000   0.0000   0.0000   0.0000   0.0000   0.0000   0.0000
     0.0000   0.0000   0.0000   0.0000   0.0000

          k = 0.0000 0.2108 0.0000 (151950 PWs)   bands (ev):

   -52.2780 -52.2767 -52.2617 -52.2603 -51.5335 -51.5321 -51.5251 -51.5236
   -50.9582 -50.9544 -50.9487 -50.9452 -50.9394 -50.9393 -50.9271 -50.9267
   -50.9009 -50.8979 -50.8938 -50.8919  -7.6515  -7.0573  -6.1172  -5.3206
    -5.1286  -4.8853  -4.7824  -4.7337  -4.5514  -4.2977  -4.2009  -3.9291
    -3.7292  -3.6240  -3.3934  -3.3190  -2.8829  -2.7314  -2.0935  -1.9623
    -1.6020  -1.1716  -1.0079  -0.9485  -0.7997

     occupation numbers 
     1.0000   1.0000   1.0000   1.0000   1.0000   1.0000   1.0000   1.0000
     1.0000   1.0000   1.0000   1.0000   1.0000   1.0000   1.0000   1.0000
     1.0000   1.0000   1.0000   1.0000   1.0000   1.0000   1.0000   1.0000
     1.0000   1.0001   1.0037   1.0133   1.0497   0.0617   0.0041   0.0000
     0.0000   0.0000   0.0000   0.0000   0.0000   0.0000   0.0000   0.0000
     0.0000   0.0000   0.0000   0.0000   0.0000

          k = 0.0000 0.3162 0.0000 (151992 PWs)   bands (ev):

   -52.2780 -52.2767 -52.2617 -52.2603 -51.5335 -51.5321 -51.5251 -51.5236
   -50.9580 -50.9544 -50.9486 -50.9452 -50.9396 -50.9393 -50.9273 -50.9267
   -50.9010 -50.8979 -50.8938 -50.8918  -7.5192  -6.9258  -5.9956  -5.6048
    -5.3450  -5.0264  -4.8100  -4.7909  -4.5288  -4.4908  -4.1188  -3.9974
    -3.9392  -3.7644  -3.3784  -3.2475  -2.8797  -2.7759  -1.9616  -1.7899
    -1.3350  -1.0135  -0.9972  -0.8916  -0.7951

     occupation numbers 
     1.0000   1.0000   1.0000   1.0000   1.0000   1.0000   1.0000   1.0000
     1.0000   1.0000   1.0000   1.0000   1.0000   1.0000   1.0000   1.0000
     1.0000   1.0000   1.0000   1.0000   1.0000   1.0000   1.0000   1.0000
     1.0000   1.0000   1.0016   1.0029   0.9995   0.8600   0.0002   0.0000
     0.0000   0.0000   0.0000   0.0000   0.0000   0.0000   0.0000   0.0000
     0.0000   0.0000   0.0000   0.0000   0.0000

          k = 0.0000 0.4216 0.0000 (151948 PWs)   bands (ev):

   -52.2780 -52.2767 -52.2617 -52.2603 -51.5335 -51.5321 -51.5251 -51.5236
   -50.9578 -50.9544 -50.9484 -50.9452 -50.9397 -50.9393 -50.9274 -50.9267
   -50.9012 -50.8979 -50.8938 -50.8917  -7.3337  -6.7428  -6.0540  -5.8442
    -5.4184  -5.3206  -4.8258  -4.7822  -4.7338  -4.2985  -4.2044  -4.2015
    -3.9282  -3.6240  -3.3929  -3.2539  -2.9053  -2.8825  -2.0926  -1.7787
    -1.2162  -1.1715  -1.0074  -0.8011  -0.5830

     occupation numbers 
     1.0000   1.0000   1.0000   1.0000   1.0000   1.0000   1.0000   1.0000
     1.0000   1.0000   1.0000   1.0000   1.0000   1.0000   1.0000   1.0000
     1.0000   1.0000   1.0000   1.0000   1.0000   1.0000   1.0000   1.0000
     1.0000   1.0000   1.0009   1.0037   1.0132   0.0629   0.0047   0.0042
     0.0000   0.0000   0.0000   0.0000   0.0000   0.0000   0.0000   0.0000
     0.0000   0.0000   0.0000   0.0000   0.0000

          k = 0.0000 0.5270 0.0000 (152033 PWs)   bands (ev):

   -52.2780 -52.2767 -52.2617 -52.2603 -51.5335 -51.5321 -51.5251 -51.5236
   -50.9576 -50.9544 -50.9483 -50.9452 -50.9398 -50.9393 -50.9276 -50.9267
   -50.9013 -50.8979 -50.8938 -50.8916  -7.0950  -6.5298  -6.4291  -5.9111
    -5.5177  -5.2479  -5.0150  -4.9598  -4.6949  -4.4337  -4.1931  -4.0295
    -3.9154  -3.4546  -3.4351  -3.3815  -2.8777  -2.8346  -2.3939  -1.9163
    -1.1990  -1.1540  -1.0560  -0.9729  -0.5122

     occupation numbers 
     1.0000   1.0000   1.0000   1.0000   1.0000   1.0000   1.0000   1.0000
     1.0000   1.0000   1.0000   1.0000   1.0000   1.0000   1.0000   1.0000
     1.0000   1.0000   1.0000   1.0000   1.0000   1.0000   1.0000   1.0000
     1.0000   1.0000   1.0000   1.0000   1.0298   0.5608   0.0032   0.0000
     0.0000   0.0000   0.0000   0.0000   0.0000   0.0000   0.0000   0.0000
     0.0000   0.0000   0.0000   0.0000   0.0000

          k = 0.0000-0.6325 0.0000 (151994 PWs)   bands (ev):

   -52.2780 -52.2767 -52.2617 -52.2603 -51.5335 -51.5321 -51.5251 -51.5236
   -50.9576 -50.9544 -50.9483 -50.9452 -50.9399 -50.9393 -50.9276 -50.9267
   -50.9013 -50.8979 -50.8938 -50.8916  -6.8100  -6.7976  -6.2318  -6.2033
    -5.3299  -5.2408  -5.1420  -5.1105  -4.5879  -4.5798  -4.1296  -3.9384
    -3.9094  -3.5795  -3.4375  -3.2794  -2.8149  -2.7702  -2.6194  -2.0064
    -1.1865  -1.1332  -1.1029  -0.9489  -0.5904

     occupation numbers 
     1.0000   1.0000   1.0000   1.0000   1.0000   1.0000   1.0000   1.0000
     1.0000   1.0000   1.0000   1.0000   1.0000   1.0000   1.0000   1.0000
     1.0000   1.0000   1.0000   1.0000   1.0000   1.0000   1.0000   1.0000
     1.0000   1.0000   1.0000   1.0000   1.0824   1.0795   0.0003   0.0000
     0.0000   0.0000   0.0000   0.0000   0.0000   0.0000   0.0000   0.0000
     0.0000   0.0000   0.0000   0.0000   0.0000

          k = 0.1000 0.0316 0.0000 (152067 PWs)   bands (ev):

   -52.2779 -52.2767 -52.2616 -52.2604 -51.5335 -51.5321 -51.5251 -51.5237
   -50.9582 -50.9545 -50.9488 -50.9453 -50.9393 -50.9393 -50.9269 -50.9267
   -50.9007 -50.8980 -50.8937 -50.8921  -7.7311  -7.1364  -6.1912  -5.6237
    -5.0477  -4.9698  -4.5818  -4.2985  -4.1730  -3.9815  -3.9669  -3.9303
    -3.7132  -3.4714  -3.3338  -3.3007  -3.0229  -2.7875  -2.5908  -2.0549
    -1.9116  -1.2034  -1.1230  -0.9489  -0.8494

     occupation numbers 
     1.0000   1.0000   1.0000   1.0000   1.0000   1.0000   1.0000   1.0000
     1.0000   1.0000   1.0000   1.0000   1.0000   1.0000   1.0000   1.0000
     1.0000   1.0000   1.0000   1.0000   1.0000   1.0000   1.0000   1.0000
     1.0000   1.0000   1.0804   0.0629   0.0016   0.0000   0.0000   0.0000
     0.0000   0.0000   0.0000   0.0000   0.0000   0.0000   0.0000   0.0000
     0.0000   0.0000   0.0000   0.0000   0.0000

          k = 0.1000 0.1370 0.0000 (152026 PWs)   bands (ev):

   -52.2779 -52.2767 -52.2616 -52.2604 -51.5335 -51.5321 -51.5250 -51.5237
   -50.9582 -50.9545 -50.9487 -50.9453 -50.9393 -50.9393 -50.9270 -50.9267
   -50.9008 -50.8980 -50.8937 -50.8920  -7.6888  -7.0941  -6.1507  -5.7339
    -5.1565  -4.9545  -4.6804  -4.4208  -4.3326  -4.2231  -3.8950  -3.8150
    -3.5976  -3.3573  -3.3324  -3.2374  -2.8564  -2.7697  -2.3711  -2.0238
    -1.7570  -1.2323  -1.0667  -0.9929  -0.9085

     occupation numbers 
     1.0000   1.0000   1.0000   1.0000   1.0000   1.0000   1.0000   1.0000
     1.0000   1.0000   1.0000   1.0000   1.0000   1.0000   1.0000   1.0000
     1.0000   1.0000   1.0000   1.0000   1.0000   1.0000   1.0000   1.0000
     1.0000   1.0000   1.0383   0.4907   0.1293   0.0084   0.0000   0.0000
     0.0000   0.0000   0.0000   0.0000   0.0000   0.0000   0.0000   0.0000
     0.0000   0.0000   0.0000   0.0000   0.0000

          k = 0.1000 0.2424 0.0000 (151998 PWs)   bands (ev):

   -52.2779 -52.2767 -52.2616 -52.2604 -51.5335 -51.5321 -51.5250 -51.5237
   -50.9580 -50.9545 -50.9486 -50.9453 -50.9395 -50.9393 -50.9271 -50.9267
   -50.9009 -50.8981 -50.8936 -50.8919  -7.5936  -6.9993  -6.0609  -5.7943
    -5.2460  -5.2162  -4.8588  -4.6553  -4.3763  -4.2148  -3.9550  -3.7751
    -3.6968  -3.4058  -3.2965  -3.2730  -2.6836  -2.6607  -2.0256  -1.8854
    -1.5111  -1.3114  -1.0595  -0.9533  -0.8931

     occupation numbers 
     1.0000   1.0000   1.0000   1.0000   1.0000   1.0000   1.0000   1.0000
     1.0000   1.0000   1.0000   1.0000   1.0000   1.0000   1.0000   1.0000
     1.0000   1.0000   1.0000   1.0000   1.0000   1.0000   1.0000   1.0000
     1.0000   1.0000   1.0003   1.0551   0.2748   0.0065   0.0000   0.0000
     0.0000   0.0000   0.0000   0.0000   0.0000   0.0000   0.0000   0.0000
     0.0000   0.0000   0.0000   0.0000   0.0000

          k = 0.1000 0.3479 0.0000 (151987 PWs)   bands (ev):

   -52.2779 -52.2767 -52.2616 -52.2604 -51.5335 -51.5321 -51.5250 -51.5237
   -50.9578 -50.9545 -50.9485 -50.9453 -50.9396 -50.9393 -50.9273 -50.9267
   -50.9010 -50.8981 -50.8936 -50.8918  -7.4454  -6.8521  -5.9278  -5.8043
    -5.7193  -5.2262  -5.1245  -4.7784  -4.3812  -4.1364  -4.0514  -4.0190
    -3.6497  -3.4546  -3.2986  -3.2033  -2.8044  -2.6308  -1.9261  -1.7446
    -1.3621  -1.2477  -1.0721  -0.8800  -0.7801

     occupation numbers 
     1.0000   1.0000   1.0000   1.0000   1.0000   1.0000   1.0000   1.0000
     1.0000   1.0000   1.0000   1.0000   1.0000   1.0000   1.0000   1.0000
     1.0000   1.0000   1.0000   1.0000   1.0000   1.0000   1.0000   1.0000
     1.0000   1.0000   1.0000   1.0041   0.2952   0.0004   0.0000   0.0000
     0.0000   0.0000   0.0000   0.0000   0.0000   0.0000   0.0000   0.0000
     0.0000   0.0000   0.0000   0.0000   0.0000

          k = 0.1000 0.4533 0.0000 (151932 PWs)   bands (ev):

   -52.2779 -52.2767 -52.2616 -52.2604 -51.5335 -51.5321 -51.5250 -51.5237
   -50.9576 -50.9545 -50.9483 -50.9453 -50.9398 -50.9393 -50.9275 -50.9267
   -50.9011 -50.8981 -50.8937 -50.8917  -7.2439  -6.6544  -6.1536  -5.7904
    -5.7641  -5.4824  -5.1864  -4.8390  -4.3726  -4.3211  -4.1982  -3.8963
    -3.7741  -3.3426  -3.2761  -3.2701  -2.8771  -2.7295  -2.2287  -1.7917
    -1.2498  -1.1829  -1.0488  -1.0065  -0.6889

     occupation numbers 
     1.0000   1.0000   1.0000   1.0000   1.0000   1.0000   1.0000   1.0000
     1.0000   1.0000   1.0000   1.0000   1.0000   1.0000   1.0000   1.0000
     1.0000   1.0000   1.0000   1.0000   1.0000   1.0000   1.0000   1.0000
     1.0000   1.0000   1.0000   1.0006   0.2595   0.1027   0.0038   0.0000
     0.0000   0.0000   0.0000   0.0000   0.0000   0.0000   0.0000   0.0000
     0.0000   0.0000   0.0000   0.0000   0.0000

          k = 0.1000 0.5587 0.0000 (151966 PWs)   bands (ev):

   -52.2779 -52.2767 -52.2616 -52.2604 -51.5335 -51.5321 -51.5250 -51.5237
   -50.9575 -50.9545 -50.9482 -50.9453 -50.9398 -50.9393 -50.9276 -50.9267
   -50.9012 -50.8980 -50.8937 -50.8917  -6.9894  -6.5526  -6.3876  -5.9761
    -5.6737  -5.4369  -5.0972  -5.0664  -4.5203  -4.3131  -4.1421  -3.9383
    -3.8786  -3.4878  -3.3288  -3.2441  -2.7809  -2.7758  -2.5486  -1.9426
    -1.2141  -1.1113  -1.1033  -0.9685  -0.6100

     occupation numbers 
     1.0000   1.0000   1.0000   1.0000   1.0000   1.0000   1.0000   1.0000
     1.0000   1.0000   1.0000   1.0000   1.0000   1.0000   1.0000   1.0000
     1.0000   1.0000   1.0000   1.0000   1.0000   1.0000   1.0000   1.0000
     1.0000   1.0000   1.0000   1.0000   0.9744   0.0869   0.0005   0.0000
     0.0000   0.0000   0.0000   0.0000   0.0000   0.0000   0.0000   0.0000
     0.0000   0.0000   0.0000   0.0000   0.0000

          k = 0.1000-0.6008 0.0000 (151997 PWs)   bands (ev):

   -52.2779 -52.2767 -52.2616 -52.2604 -51.5335 -51.5321 -51.5250 -51.5237
   -50.9575 -50.9545 -50.9482 -50.9453 -50.9399 -50.9393 -50.9276 -50.9268
   -50.9012 -50.8980 -50.8937 -50.8916  -6.8730  -6.6832  -6.2823  -6.1003
    -5.5340  -5.3494  -5.1679  -4.9599  -4.6621  -4.2902  -4.1126  -4.1092
    -3.9592  -3.5418  -3.4513  -3.3327  -2.8878  -2.7523  -2.4899  -1.9819
    -1.2100  -1.1290  -1.0890  -0.8869  -0.5466

     occupation numbers 
     1.0000   1.0000   1.0000   1.0000   1.0000   1.0000   1.0000   1.0000
     1.0000   1.0000   1.0000   1.0000   1.0000   1.0000   1.0000   1.0000
     1.0000   1.0000   1.0000   1.0000   1.0000   1.0000   1.0000   1.0000
     1.0000   1.0000   1.0000   1.0000   1.0503   0.0519   0.0001   0.0001
     0.0000   0.0000   0.0000   0.0000   0.0000   0.0000   0.0000   0.0000
     0.0000   0.0000   0.0000   0.0000   0.0000

          k = 0.1000-0.4954 0.0000 (151985 PWs)   bands (ev):

   -52.2779 -52.2767 -52.2616 -52.2604 -51.5335 -51.5321 -51.5250 -51.5237
   -50.9576 -50.9544 -50.9483 -50.9453 -50.9398 -50.9393 -50.9275 -50.9268
   -50.9012 -50.8980 -50.8938 -50.8917  -7.1484  -6.5640  -6.3089  -5.8147
    -5.5243  -5.3464  -4.9174  -4.7962  -4.7439  -4.4060  -4.2971  -4.1903
    -3.9477  -3.7092  -3.3761  -3.3627  -3.0519  -2.8433  -2.2475  -1.8515
    -1.2681  -1.1579  -1.0562  -0.7074  -0.4687

     occupation numbers 
     1.0000   1.0000   1.0000   1.0000   1.0000   1.0000   1.0000   1.0000
     1.0000   1.0000   1.0000   1.0000   1.0000   1.0000   1.0000   1.0000
     1.0000   1.0000   1.0000   1.0000   1.0000   1.0000   1.0000   1.0000
     1.0000   1.0000   1.0000   1.0024   1.0104   0.4129   0.0609   0.0029
     0.0000   0.0000   0.0000   0.0000   0.0000   0.0000   0.0000   0.0000
     0.0000   0.0000   0.0000   0.0000   0.0000

          k = 0.1000-0.3900 0.0000 (151942 PWs)   bands (ev):

   -52.2779 -52.2767 -52.2616 -52.2604 -51.5335 -51.5321 -51.5250 -51.5237
   -50.9577 -50.9544 -50.9484 -50.9452 -50.9397 -50.9393 -50.9274 -50.9268
   -50.9011 -50.8979 -50.8938 -50.8918  -7.3712  -6.7788  -5.9079  -5.8567
    -5.2844  -5.1144  -4.8255  -4.7804  -4.7296  -4.5185  -4.3239  -4.1424
    -4.1381  -3.7024  -3.4749  -3.2001  -3.1446  -2.8649  -2.0746  -1.7407
    -1.3403  -1.2062  -0.8945  -0.6099  -0.5857

     occupation numbers 
     1.0000   1.0000   1.0000   1.0000   1.0000   1.0000   1.0000   1.0000
     1.0000   1.0000   1.0000   1.0000   1.0000   1.0000   1.0000   1.0000
     1.0000   1.0000   1.0000   1.0000   1.0000   1.0000   1.0000   1.0000
     1.0000   1.0000   1.0009   1.0039   1.0146   0.9686   0.1087   0.0005
     0.0004   0.0000   0.0000   0.0000   0.0000   0.0000   0.0000   0.0000
     0.0000   0.0000   0.0000   0.0000   0.0000

          k = 0.1000-0.2846 0.0000 (151938 PWs)   bands (ev):

   -52.2779 -52.2767 -52.2616 -52.2604 -51.5335 -51.5321 -51.5250 -51.5237
   -50.9579 -50.9544 -50.9485 -50.9452 -50.9395 -50.9393 -50.9272 -50.9268
   -50.9009 -50.8979 -50.8938 -50.8919  -7.5407  -6.9466  -6.0120  -5.4390
    -5.0116  -4.8944  -4.8512  -4.8227  -4.7770  -4.4226  -4.3292  -4.2529
    -3.8861  -3.6584  -3.5215  -3.2435  -3.1590  -2.7064  -2.0427  -1.8095
    -1.4030  -1.3567  -0.8549  -0.8285  -0.6374

     occupation numbers 
     1.0000   1.0000   1.0000   1.0000   1.0000   1.0000   1.0000   1.0000
     1.0000   1.0000   1.0000   1.0000   1.0000   1.0000   1.0000   1.0000
     1.0000   1.0000   1.0000   1.0000   1.0000   1.0000   1.0000   1.0000
     1.0000   1.0001   1.0004   1.0010   1.0043   0.5005   0.1208   0.0200
     0.0000   0.0000   0.0000   0.0000   0.0000   0.0000   0.0000   0.0000
     0.0000   0.0000   0.0000   0.0000   0.0000

          k = 0.1000-0.1792 0.0000 (151999 PWs)   bands (ev):

   -52.2779 -52.2767 -52.2616 -52.2604 -51.5335 -51.5321 -51.5250 -51.5237
   -50.9581 -50.9544 -50.9487 -50.9453 -50.9394 -50.9393 -50.9270 -50.9268
   -50.9008 -50.8980 -50.8938 -50.8920  -7.6571  -7.0625  -6.1205  -5.2587
    -4.9925  -4.8340  -4.8001  -4.6892  -4.5176  -4.3937  -4.3094  -3.9943
    -3.7448  -3.6436  -3.4096  -3.3151  -3.0991  -2.7598  -2.1658  -1.9864
    -1.6567  -1.2985  -0.9951  -0.9521  -0.7689

     occupation numbers 
     1.0000   1.0000   1.0000   1.0000   1.0000   1.0000   1.0000   1.0000
     1.0000   1.0000   1.0000   1.0000   1.0000   1.0000   1.0000   1.0000
     1.0000   1.0000   1.0000   1.0000   1.0000   1.0000   1.0000   1.0000
     1.0000   1.0007   1.0022   1.0330   0.9654   0.3522   0.0802   0.0000
     0.0000   0.0000   0.0000   0.0000   0.0000   0.0000   0.0000   0.0000
     0.0000   0.0000   0.0000   0.0000   0.0000

          k = 0.1000-0.0738 0.0000 (152043 PWs)   bands (ev):

   -52.2779 -52.2767 -52.2616 -52.2604 -51.5335 -51.5321 -51.5251 -51.5237
   -50.9582 -50.9544 -50.9488 -50.9453 -50.9393 -50.9393 -50.9269 -50.9268
   -50.9007 -50.8980 -50.8938 -50.8921  -7.7205  -7.1258  -6.1810  -5.4646
    -4.9640  -4.8926  -4.7065  -4.3732  -4.2953  -4.2152  -4.0141  -3.9551
    -3.6269  -3.5620  -3.4496  -3.3454  -2.9758  -2.9609  -2.3930  -2.0505
    -1.8731  -1.2268  -1.1160  -0.8333  -0.8161

     occupation numbers 
     1.0000   1.0000   1.0000   1.0000   1.0000   1.0000   1.0000   1.0000
     1.0000   1.0000   1.0000   1.0000   1.0000   1.0000   1.0000   1.0000
     1.0000   1.0000   1.0000   1.0000   1.0000   1.0000   1.0000   1.0000
     1.0000   1.0001   1.0239   0.2621   0.0584   0.0066   0.0000   0.0000
     0.0000   0.0000   0.0000   0.0000   0.0000   0.0000   0.0000   0.0000
     0.0000   0.0000   0.0000   0.0000   0.0000

          k = 0.2000 0.0632 0.0000 (151969 PWs)   bands (ev):

   -52.2779 -52.2768 -52.2615 -52.2605 -51.5334 -51.5322 -51.5249 -51.5238
   -50.9580 -50.9547 -50.9485 -50.9455 -50.9393 -50.9393 -50.9269 -50.9268
   -50.9006 -50.8983 -50.8935 -50.8921  -7.6525  -7.0571  -6.1116  -6.0715
    -5.4815  -4.8937  -4.5963  -4.2471  -4.0566  -4.0075  -3.9091  -3.6686
    -3.5724  -3.3943  -3.3869  -3.2225  -2.9244  -2.6136  -2.5225  -1.9854
    -1.8260  -1.3006  -1.2340  -0.8184  -0.8121

     occupation numbers 
     1.0000   1.0000   1.0000   1.0000   1.0000   1.0000   1.0000   1.0000
     1.0000   1.0000   1.0000   1.0000   1.0000   1.0000   1.0000   1.0000
     1.0000   1.0000   1.0000   1.0000   1.0000   1.0000   1.0000   1.0000
     1.0000   1.0001   1.0833   0.0170   0.0000   0.0000   0.0000   0.0000
     0.0000   0.0000   0.0000   0.0000   0.0000   0.0000   0.0000   0.0000
     0.0000   0.0000   0.0000   0.0000   0.0000

          k = 0.2000 0.1687 0.0000 (151968 PWs)   bands (ev):

   -52.2779 -52.2768 -52.2615 -52.2605 -51.5334 -51.5322 -51.5249 -51.5238
   -50.9579 -50.9548 -50.9485 -50.9456 -50.9393 -50.9393 -50.9270 -50.9267
   -50.9006 -50.8984 -50.8934 -50.8921  -7.5944  -6.9990  -6.1688  -6.0560
    -5.5791  -4.8998  -4.7360  -4.6820  -4.2731  -3.8730  -3.7813  -3.6251
    -3.5462  -3.2475  -3.2191  -3.0932  -2.7131  -2.6437  -2.2490  -1.9399
    -1.6243  -1.4848  -1.1870  -0.9359  -0.8911

     occupation numbers 
     1.0000   1.0000   1.0000   1.0000   1.0000   1.0000   1.0000   1.0000
     1.0000   1.0000   1.0000   1.0000   1.0000   1.0000   1.0000   1.0000
     1.0000   1.0000   1.0000   1.0000   1.0000   1.0000   1.0000   1.0000
     1.0000   1.0001   1.0126   1.0373   0.0340   0.0000   0.0000   0.0000
     0.0000   0.0000   0.0000   0.0000   0.0000   0.0000   0.0000   0.0000
     0.0000   0.0000   0.0000   0.0000   0.0000

          k = 0.2000 0.2741 0.0000 (152020 PWs)   bands (ev):

   -52.2779 -52.2768 -52.2615 -52.2605 -51.5334 -51.5322 -51.5249 -51.5238
   -50.9577 -50.9548 -50.9483 -50.9456 -50.9395 -50.9392 -50.9271 -50.9267
   -50.9007 -50.8984 -50.8934 -50.8920  -7.4833  -6.8883  -6.2149  -5.9518
    -5.6255  -5.3204  -4.7996  -4.7234  -4.6851  -3.7781  -3.7652  -3.6946
    -3.5709  -3.1755  -3.1346  -3.0738  -2.6172  -2.5800  -1.9344  -1.7681
    -1.7105  -1.3915  -1.1274  -0.9908  -0.8089

     occupation numbers 
     1.0000   1.0000   1.0000   1.0000   1.0000   1.0000   1.0000   1.0000
     1.0000   1.0000   1.0000   1.0000   1.0000   1.0000   1.0000   1.0000
     1.0000   1.0000   1.0000   1.0000   1.0000   1.0000   1.0000   1.0000
     1.0000   1.0000   1.0022   1.0167   1.0354   0.0000   0.0000   0.0000
     0.0000   0.0000   0.0000   0.0000   0.0000   0.0000   0.0000   0.0000
     0.0000   0.0000   0.0000   0.0000   0.0000

          k = 0.2000 0.3795 0.0000 (151962 PWs)   bands (ev):

   -52.2779 -52.2768 -52.2615 -52.2605 -51.5334 -51.5322 -51.5249 -51.5238
   -50.9575 -50.9548 -50.9482 -50.9456 -50.9396 -50.9392 -50.9273 -50.9267
   -50.9009 -50.8984 -50.8934 -50.8919  -7.3192  -6.7256  -6.2098  -5.8174
    -5.7745  -5.6203  -5.1720  -4.7188  -4.7019  -4.0450  -3.7793  -3.7027
    -3.5776  -3.1487  -3.1153  -3.0666  -2.7870  -2.5966  -1.9854  -1.6786
    -1.6717  -1.1467  -1.1425  -0.9543  -0.7953

     occupation numbers 
     1.0000   1.0000   1.0000   1.0000   1.0000   1.0000   1.0000   1.0000
     1.0000   1.0000   1.0000   1.0000   1.0000   1.0000   1.0000   1.0000
     1.0000   1.0000   1.0000   1.0000   1.0000   1.0000   1.0000   1.0000
     1.0000   1.0000   1.0000   1.0185   1.0261   0.0000   0.0000   0.0000
     0.0000   0.0000   0.0000   0.0000   0.0000   0.0000   0.0000   0.0000
     0.0000   0.0000   0.0000   0.0000   0.0000

          k = 0.2000 0.4849 0.0000 (151925 PWs)   bands (ev):

   -52.2779 -52.2768 -52.2615 -52.2605 -51.5334 -51.5322 -51.5249 -51.5238
   -50.9574 -50.9548 -50.9481 -50.9456 -50.9397 -50.9393 -50.9274 -50.9268
   -50.9010 -50.8984 -50.8934 -50.8918  -7.1019  -6.5143  -6.2006  -6.1534
    -5.7257  -5.5637  -5.4512  -4.8181  -4.6685  -4.1232  -3.9018  -3.8216
    -3.6356  -3.2613  -3.2392  -3.1200  -2.7876  -2.6344  -2.3182  -1.7844
    -1.4394  -1.1960  -1.1140  -0.8841  -0.6903

     occupation numbers 
     1.0000   1.0000   1.0000   1.0000   1.0000   1.0000   1.0000   1.0000
     1.0000   1.0000   1.0000   1.0000   1.0000   1.0000   1.0000   1.0000
     1.0000   1.0000   1.0000   1.0000   1.0000   1.0000   1.0000   1.0000
     1.0000   1.0000   1.0000   1.0012   1.0460   0.0002   0.0000   0.0000
     0.0000   0.0000   0.0000   0.0000   0.0000   0.0000   0.0000   0.0000
     0.0000   0.0000   0.0000   0.0000   0.0000

          k = 0.2000 0.5903 0.0000 (151971 PWs)   bands (ev):

   -52.2779 -52.2768 -52.2615 -52.2605 -51.5334 -51.5322 -51.5249 -51.5238
   -50.9573 -50.9547 -50.9480 -50.9455 -50.9398 -50.9393 -50.9275 -50.9268
   -50.9010 -50.8983 -50.8935 -50.8918  -6.8318  -6.5794  -6.2375  -6.0459
    -5.9965  -5.4559  -5.2974  -5.0670  -4.5745  -4.1236  -4.0448  -4.0364
    -3.6785  -3.4592  -3.4528  -3.2326  -2.6847  -2.6782  -2.4925  -1.9330
    -1.2730  -1.2498  -1.0464  -0.7913  -0.6000

     occupation numbers 
     1.0000   1.0000   1.0000   1.0000   1.0000   1.0000   1.0000   1.0000
     1.0000   1.0000   1.0000   1.0000   1.0000   1.0000   1.0000   1.0000
     1.0000   1.0000   1.0000   1.0000   1.0000   1.0000   1.0000   1.0000
     1.0000   1.0000   1.0000   1.0000   1.0764   0.0002   0.0000   0.0000
     0.0000   0.0000   0.0000   0.0000   0.0000   0.0000   0.0000   0.0000
     0.0000   0.0000   0.0000   0.0000   0.0000

          k = 0.2000-0.5692 0.0000 (151945 PWs)   bands (ev):

   -52.2779 -52.2768 -52.2615 -52.2605 -51.5334 -51.5322 -51.5249 -51.5238
   -50.9573 -50.9547 -50.9480 -50.9455 -50.9398 -50.9393 -50.9275 -50.9268
   -50.9010 -50.8983 -50.8935 -50.8918  -6.8899  -6.5136  -6.2908  -5.9341
    -5.8878  -5.3417  -5.2978  -5.0158  -4.4933  -4.4359  -4.1532  -4.0602
    -3.8589  -3.6573  -3.4310  -3.2450  -3.0179  -2.7003  -2.3376  -1.9117
    -1.3752  -1.1232  -1.0573  -0.6248  -0.4394

     occupation numbers 
     1.0000   1.0000   1.0000   1.0000   1.0000   1.0000   1.0000   1.0000
     1.0000   1.0000   1.0000   1.0000   1.0000   1.0000   1.0000   1.0000
     1.0000   1.0000   1.0000   1.0000   1.0000   1.0000   1.0000   1.0000
     1.0000   1.0000   1.0000   1.0000   0.8710   0.5731   0.0008   0.0000
     0.0000   0.0000   0.0000   0.0000   0.0000   0.0000   0.0000   0.0000
     0.0000   0.0000   0.0000   0.0000   0.0000

          k = 0.2000-0.4638 0.0000 (151886 PWs)   bands (ev):

   -52.2779 -52.2768 -52.2615 -52.2605 -51.5334 -51.5322 -51.5249 -51.5238
   -50.9574 -50.9547 -50.9481 -50.9455 -50.9397 -50.9393 -50.9274 -50.9268
   -50.9010 -50.8982 -50.8936 -50.8918  -7.1496  -6.5597  -6.1229  -5.7138
    -5.6801  -5.4300  -5.0951  -4.8422  -4.7787  -4.3544  -4.2237  -4.1344
    -4.1274  -3.7032  -3.3430  -3.2158  -3.2141  -2.8065  -2.2319  -1.7520
    -1.5199  -1.1246  -0.9104  -0.5428  -0.3110

     occupation numbers 
     1.0000   1.0000   1.0000   1.0000   1.0000   1.0000   1.0000   1.0000
     1.0000   1.0000   1.0000   1.0000   1.0000   1.0000   1.0000   1.0000
     1.0000   1.0000   1.0000   1.0000   1.0000   1.0000   1.0000   1.0000
     1.0000   1.0000   1.0000   1.0005   1.0041   0.1926   0.0085   0.0004
     0.0003   0.0000   0.0000   0.0000   0.0000   0.0000   0.0000   0.0000
     0.0000   0.0000   0.0000   0.0000   0.0000

          k = 0.2000-0.3584 0.0000 (151888 PWs)   bands (ev):

   -52.2779 -52.2768 -52.2615 -52.2605 -51.5334 -51.5322 -51.5249 -51.5238
   -50.9576 -50.9547 -50.9482 -50.9455 -50.9396 -50.9394 -50.9273 -50.9268
   -50.9008 -50.8982 -50.8936 -50.8919  -7.3562  -6.7622  -5.8399  -5.6936
    -5.4252  -5.1897  -5.0917  -4.8247  -4.7017  -4.5942  -4.2665  -4.0596
    -4.0003  -3.7294  -3.5640  -3.2002  -3.1191  -2.7531  -2.1820  -1.6796
    -1.6109  -1.1677  -0.7365  -0.6995  -0.5274

     occupation numbers 
     1.0000   1.0000   1.0000   1.0000   1.0000   1.0000   1.0000   1.0000
     1.0000   1.0000   1.0000   1.0000   1.0000   1.0000   1.0000   1.0000
     1.0000   1.0000   1.0000   1.0000   1.0000   1.0000   1.0000   1.0000
     1.0000   1.0000   1.0000   1.0010   1.0262   1.0833   0.0287   0.0000
     0.0000   0.0000   0.0000   0.0000   0.0000   0.0000   0.0000   0.0000
     0.0000   0.0000   0.0000   0.0000   0.0000

          k = 0.2000-0.2530 0.0000 (151943 PWs)   bands (ev):

   -52.2779 -52.2768 -52.2615 -52.2605 -51.5334 -51.5322 -51.5249 -51.5238
   -50.9577 -50.9547 -50.9484 -50.9455 -50.9394 -50.9393 -50.9271 -50.9268
   -50.9007 -50.8982 -50.8936 -50.8920  -7.5098  -6.9147  -5.9763  -5.4798
    -5.2237  -5.1290  -4.8759  -4.7860  -4.6202  -4.5357  -4.2615  -4.0810
    -3.7259  -3.7214  -3.5329  -3.2026  -3.1907  -2.6048  -2.1879  -1.8086
    -1.5998  -1.4436  -0.8369  -0.7337  -0.7029

     occupation numbers 
     1.0000   1.0000   1.0000   1.0000   1.0000   1.0000   1.0000   1.0000
     1.0000   1.0000   1.0000   1.0000   1.0000   1.0000   1.0000   1.0000
     1.0000   1.0000   1.0000   1.0000   1.0000   1.0000   1.0000   1.0000
     1.0000   1.0000   1.0001   1.0033   1.0769   1.0176   0.0252   0.0000
     0.0000   0.0000   0.0000   0.0000   0.0000   0.0000   0.0000   0.0000
     0.0000   0.0000   0.0000   0.0000   0.0000

          k = 0.2000-0.1476 0.0000 (151949 PWs)   bands (ev):

   -52.2779 -52.2768 -52.2615 -52.2605 -51.5334 -51.5322 -51.5249 -51.5238
   -50.9579 -50.9547 -50.9485 -50.9455 -50.9393 -50.9393 -50.9270 -50.9268
   -50.9006 -50.8982 -50.8936 -50.8921  -7.6102  -7.0149  -6.0711  -5.7256
    -5.1378  -4.8837  -4.7743  -4.6562  -4.3506  -4.2142  -4.1868  -4.1003
    -3.6969  -3.5232  -3.2902  -3.2684  -3.2136  -2.7647  -2.2491  -1.9562
    -1.6738  -1.4930  -0.9573  -0.9137  -0.7621

     occupation numbers 
     1.0000   1.0000   1.0000   1.0000   1.0000   1.0000   1.0000   1.0000
     1.0000   1.0000   1.0000   1.0000   1.0000   1.0000   1.0000   1.0000
     1.0000   1.0000   1.0000   1.0000   1.0000   1.0000   1.0000   1.0000
     1.0000   1.0001   1.0046   1.0544   0.1803   0.0064   0.0026   0.0001
     0.0000   0.0000   0.0000   0.0000   0.0000   0.0000   0.0000   0.0000
     0.0000   0.0000   0.0000   0.0000   0.0000

          k = 0.2000-0.0422 0.0000 (151969 PWs)   bands (ev):

   -52.2779 -52.2768 -52.2615 -52.2605 -51.5334 -51.5322 -51.5249 -51.5238
   -50.9580 -50.9547 -50.9485 -50.9455 -50.9393 -50.9393 -50.9269 -50.9268
   -50.9006 -50.8983 -50.8935 -50.8921  -7.6578  -7.0624  -6.1167  -5.9235
    -5.3332  -4.8967  -4.4763  -4.4065  -4.1447  -4.1324  -3.8827  -3.7992
    -3.6392  -3.6227  -3.3962  -3.2464  -2.9524  -2.9481  -2.3667  -1.9860
    -1.8453  -1.3459  -1.1586  -0.8276  -0.7352

     occupation numbers 
     1.0000   1.0000   1.0000   1.0000   1.0000   1.0000   1.0000   1.0000
     1.0000   1.0000   1.0000   1.0000   1.0000   1.0000   1.0000   1.0000
     1.0000   1.0000   1.0000   1.0000   1.0000   1.0000   1.0000   1.0000
     1.0000   1.0001   0.7909   0.4152   0.0006   0.0003   0.0000   0.0000
     0.0000   0.0000   0.0000   0.0000   0.0000   0.0000   0.0000   0.0000
     0.0000   0.0000   0.0000   0.0000   0.0000

          k = 0.3000 0.0949 0.0000 (151964 PWs)   bands (ev):

   -52.2777 -52.2769 -52.2614 -52.2606 -51.5333 -51.5324 -51.5248 -51.5239
   -50.9575 -50.9552 -50.9481 -50.9460 -50.9393 -50.9393 -50.9269 -50.9268
   -50.9003 -50.8988 -50.8931 -50.8922  -7.5214  -6.9250  -6.4675  -5.9794
    -5.8717  -4.9509  -4.7688  -4.2862  -4.1473  -3.8614  -3.8539  -3.5055
    -3.3876  -3.3597  -3.2339  -2.8881  -2.7772  -2.5559  -2.3725  -1.8871
    -1.6974  -1.5020  -1.2685  -0.7984  -0.7482

     occupation numbers 
     1.0000   1.0000   1.0000   1.0000   1.0000   1.0000   1.0000   1.0000
     1.0000   1.0000   1.0000   1.0000   1.0000   1.0000   1.0000   1.0000
     1.0000   1.0000   1.0000   1.0000   1.0000   1.0000   1.0000   1.0000
     1.0000   1.0000   1.0054   0.0471   0.0006   0.0000   0.0000   0.0000
     0.0000   0.0000   0.0000   0.0000   0.0000   0.0000   0.0000   0.0000
     0.0000   0.0000   0.0000   0.0000   0.0000

          k = 0.3000 0.2003 0.0000 (152028 PWs)   bands (ev):

   -52.2777 -52.2769 -52.2614 -52.2606 -51.5332 -51.5324 -51.5248 -51.5239
   -50.9574 -50.9552 -50.9480 -50.9460 -50.9394 -50.9392 -50.9270 -50.9268
   -50.9004 -50.8988 -50.8931 -50.8922  -7.4474  -6.8511  -6.5505  -5.9553
    -5.9086  -5.0296  -4.8726  -4.6682  -4.2806  -3.9240  -3.6969  -3.4637
    -3.2777  -3.1319  -3.1033  -2.8562  -2.5673  -2.5281  -2.1650  -1.8352
    -1.7161  -1.4845  -1.1636  -0.9470  -0.8959

     occupation numbers 
     1.0000   1.0000   1.0000   1.0000   1.0000   1.0000   1.0000   1.0000
     1.0000   1.0000   1.0000   1.0000   1.0000   1.0000   1.0000   1.0000
     1.0000   1.0000   1.0000   1.0000   1.0000   1.0000   1.0000   1.0000
     1.0000   1.0000   1.0002   1.0462   0.0411   0.0000   0.0000   0.0000
     0.0000   0.0000   0.0000   0.0000   0.0000   0.0000   0.0000   0.0000
     0.0000   0.0000   0.0000   0.0000   0.0000

          k = 0.3000 0.3057 0.0000 (152004 PWs)   bands (ev):

   -52.2777 -52.2769 -52.2614 -52.2606 -51.5332 -51.5324 -51.5248 -51.5239
   -50.9573 -50.9553 -50.9479 -50.9460 -50.9395 -50.9392 -50.9271 -50.9267
   -50.9005 -50.8988 -50.8931 -50.8921  -7.3205  -6.7246  -6.5817  -5.9867
    -5.7906  -5.3471  -5.0594  -4.7664  -4.5895  -3.9340  -3.7372  -3.3977
    -3.3153  -3.0292  -2.8839  -2.8589  -2.7250  -2.5334  -1.9745  -1.8516
    -1.6401  -1.2769  -1.0984  -1.0685  -0.8781

     occupation numbers 
     1.0000   1.0000   1.0000   1.0000   1.0000   1.0000   1.0000   1.0000
     1.0000   1.0000   1.0000   1.0000   1.0000   1.0000   1.0000   1.0000
     1.0000   1.0000   1.0000   1.0000   1.0000   1.0000   1.0000   1.0000
     1.0000   1.0000   1.0000   1.0058   1.0827   0.0000   0.0000   0.0000
     0.0000   0.0000   0.0000   0.0000   0.0000   0.0000   0.0000   0.0000
     0.0000   0.0000   0.0000   0.0000   0.0000

          k = 0.3000 0.4111 0.0000 (151987 PWs)   bands (ev):

   -52.2777 -52.2769 -52.2614 -52.2606 -51.5332 -51.5324 -51.5248 -51.5239
   -50.9571 -50.9552 -50.9478 -50.9460 -50.9396 -50.9392 -50.9273 -50.9268
   -50.9006 -50.8988 -50.8931 -50.8920  -7.1406  -6.5609  -6.5464  -5.9658
    -5.8008  -5.6371  -5.1646  -5.0396  -4.5882  -3.9760  -3.9261  -3.6253
    -3.2708  -3.0685  -2.9941  -2.8532  -2.7193  -2.6020  -2.1079  -1.7573
    -1.6137  -1.1429  -1.0818  -0.9456  -0.8010

     occupation numbers 
     1.0000   1.0000   1.0000   1.0000   1.0000   1.0000   1.0000   1.0000
     1.0000   1.0000   1.0000   1.0000   1.0000   1.0000   1.0000   1.0000
     1.0000   1.0000   1.0000   1.0000   1.0000   1.0000   1.0000   1.0000
     1.0000   1.0000   1.0000   1.0000   1.0825   0.0000   0.0000   0.0000
     0.0000   0.0000   0.0000   0.0000   0.0000   0.0000   0.0000   0.0000
     0.0000   0.0000   0.0000   0.0000   0.0000

          k = 0.3000 0.5165 0.0000 (151948 PWs)   bands (ev):

   -52.2777 -52.2769 -52.2614 -52.2606 -51.5332 -51.5324 -51.5248 -51.5239
   -50.9570 -50.9552 -50.9477 -50.9460 -50.9397 -50.9393 -50.9274 -50.9268
   -50.9007 -50.8988 -50.8931 -50.8920  -6.9077  -6.4882  -6.3287  -6.1889
    -5.8926  -5.6642  -5.3122  -4.9706  -4.7599  -4.0664  -3.9868  -3.8578
    -3.4266  -3.3392  -3.2067  -2.8787  -2.6459  -2.5010  -2.3782  -1.7731
    -1.5285  -1.2622  -1.0985  -0.7571  -0.6407

     occupation numbers 
     1.0000   1.0000   1.0000   1.0000   1.0000   1.0000   1.0000   1.0000
     1.0000   1.0000   1.0000   1.0000   1.0000   1.0000   1.0000   1.0000
     1.0000   1.0000   1.0000   1.0000   1.0000   1.0000   1.0000   1.0000
     1.0000   1.0000   1.0000   1.0000   1.0069   0.0000   0.0000   0.0000
     0.0000   0.0000   0.0000   0.0000   0.0000   0.0000   0.0000   0.0000
     0.0000   0.0000   0.0000   0.0000   0.0000

          k = 0.3000 0.6219 0.0000 (151942 PWs)   bands (ev):

   -52.2777 -52.2769 -52.2614 -52.2606 -51.5332 -51.5324 -51.5248 -51.5239
   -50.9569 -50.9551 -50.9476 -50.9459 -50.9397 -50.9393 -50.9274 -50.9268
   -50.9007 -50.8987 -50.8932 -50.8920  -6.6230  -6.5583  -6.3638  -6.0323
    -5.9659  -5.7676  -5.1176  -5.0030  -4.8550  -4.4885  -3.9110  -3.8935
    -3.7552  -3.4372  -3.3653  -2.9569  -2.8288  -2.5531  -2.2913  -1.9009
    -1.5777  -1.1198  -1.0663  -0.6374  -0.4254

     occupation numbers 
     1.0000   1.0000   1.0000   1.0000   1.0000   1.0000   1.0000   1.0000
     1.0000   1.0000   1.0000   1.0000   1.0000   1.0000   1.0000   1.0000
     1.0000   1.0000   1.0000   1.0000   1.0000   1.0000   1.0000   1.0000
     1.0000   1.0000   1.0000   1.0000   1.0003   0.8497   0.0000   0.0000
     0.0000   0.0000   0.0000   0.0000   0.0000   0.0000   0.0000   0.0000
     0.0000   0.0000   0.0000   0.0000   0.0000

          k = 0.3000-0.5376 0.0000 (151892 PWs)   bands (ev):

[...]
     1.0000   1.0000   1.0000   1.0000   1.0000   1.0000   1.0000   1.0000
     1.0000   1.0000   1.0000   1.0000   1.0000   1.0000   1.0000   1.0000
     1.0000   1.0000   1.0000   1.0000   1.0000   1.0000   0.0337   0.0337
     0.0000   0.0000   0.0000   0.0000   0.0000   0.0000   0.0000   0.0000
     0.0000   0.0000   0.0000   0.0000   0.0000

     the Fermi energy is    -4.4040 ev

!    total energy              =    -300.86649216 Ry
     total all-electron energy =      -300.866655 Ry
     estimated scf accuracy    <          7.4E-13 Ry

!    total charge of GC-SCF    =       2.11779687 e
     smearing contrib. (-TS)   =       0.00021102 Ry
     internal energy E=F+TS    =    -300.86670318 Ry

     The total energy is F=E-TS. E is the sum of the following terms:
     one-electron contribution =   -3251.97450897 Ry
     hartree contribution      =    1589.28127540 Ry
     xc contribution           =     -70.77192065 Ry
     ewald contribution        =    1493.66556886 Ry
     one-center paw contrib.   =       1.76902980 Ry
      -> PAW hartree energy AE =       7.29492992 Ry
      -> PAW hartree energy PS =      -7.07158569 Ry
      -> PAW xc energy AE      =      -3.45968293 Ry
      -> PAW xc energy PS      =       3.32480821 Ry
      -> total E_H with PAW    =    1589.50461963 Ry
      -> total E_XC with PAW   =     -70.90679537 Ry
     pot.stat. contrib. (-muN) =      -0.68550550 Ry
     electrostatic embedding   =      -1.14295458 Ry
     cavitation energy         =       0.01739753 Ry
     electrolyte free energy   =      -0.02047712 Ry
     correction to one-el term =     -61.00460795 Ry

     WARNING: you are using the parabolic pbc correction;
              the potential shift above must be added to 
              band and Fermi energies.

     convergence has been achieved in  14 iterations
     The dielectric solvent contribution to forces
     atom    1 type  1   force =    -0.00000130    0.00880348   -0.08019068
     atom    2 type  1   force =     0.00000035   -0.00535522   -0.05936998
     atom    3 type  1   force =    -0.00000004    0.00129892   -0.03452812
     atom    4 type  1   force =    -0.00000009   -0.00026561   -0.01494233
     atom    5 type  1   force =     0.00000004    0.00026479    0.01430151
     atom    6 type  1   force =     0.00000008   -0.00129850    0.03393887
     atom    7 type  1   force =    -0.00000023    0.00531886    0.05870267
     atom    8 type  1   force =     0.00000180   -0.00873482    0.07959037
     atom    9 type  1   force =    -0.00000017    0.00456906   -0.00750635
     atom   10 type  1   force =     0.00000113   -0.00459473    0.00751910
     atom   11 type  1   force =    -0.00000245    0.00880298   -0.08019161
     atom   12 type  1   force =     0.00000042   -0.00535515   -0.05937050
     atom   13 type  1   force =    -0.00000004    0.00129898   -0.03452877
     atom   14 type  1   force =    -0.00000000   -0.00026552   -0.01494209
     atom   15 type  1   force =     0.00000006    0.00026477    0.01430181
     atom   16 type  1   force =    -0.00000000   -0.00129846    0.03393857
     atom   17 type  1   force =    -0.00000053    0.00531863    0.05870254
     atom   18 type  1   force =     0.00000186   -0.00873434    0.07959113
     atom   19 type  1   force =     0.00000092    0.00456896   -0.00750043
     atom   20 type  1   force =    -0.00000193   -0.00459538    0.00752458
 

     Forces acting on atoms (cartesian axes, Ry/au):

     atom    1 type  1   force =    -0.00000258    0.00004100   -0.00031623
     atom    2 type  1   force =    -0.00000160   -0.00009945   -0.00014835
     atom    3 type  1   force =    -0.00000148   -0.00014842   -0.00006167
     atom    4 type  1   force =    -0.00000159    0.00002583   -0.00005953
     atom    5 type  1   force =     0.00000005   -0.00003866    0.00005446
     atom    6 type  1   force =     0.00000476    0.00014321    0.00004201
     atom    7 type  1   force =     0.00000148    0.00010445    0.00017162
     atom    8 type  1   force =     0.00000254   -0.00001094    0.00025576
     atom    9 type  1   force =     0.00000302   -0.00000916    0.00031649
     atom   10 type  1   force =    -0.00000278   -0.00000861   -0.00025515
     atom   11 type  1   force =    -0.00000233    0.00004166   -0.00031796
     atom   12 type  1   force =    -0.00000203   -0.00009966   -0.00015073
     atom   13 type  1   force =    -0.00000471   -0.00015180   -0.00006154
     atom   14 type  1   force =     0.00000099    0.00002898   -0.00005940
     atom   15 type  1   force =     0.00000060   -0.00003835    0.00005450
     atom   16 type  1   force =     0.00000149    0.00014131    0.00004361
     atom   17 type  1   force =     0.00000207    0.00010739    0.00017235
     atom   18 type  1   force =     0.00000242   -0.00001114    0.00025769
     atom   19 type  1   force =     0.00000347   -0.00000881    0.00031672
     atom   20 type  1   force =    -0.00000376   -0.00000883   -0.00025465
     The non-local contrib.  to forces
     atom    1 type  1   force =     0.00002912    0.01469377   -0.05651761
     atom    2 type  1   force =    -0.00001185   -0.00159023   -0.00008223
     atom    3 type  1   force =     0.00002460    0.00044887   -0.00614318
     atom    4 type  1   force =     0.00003418   -0.00127314   -0.00396778
     atom    5 type  1   force =    -0.00003613    0.00127546    0.00390753
     atom    6 type  1   force =    -0.00002014   -0.00042731    0.00617045
     atom    7 type  1   force =     0.00001178    0.00151043   -0.00003186
     atom    8 type  1   force =    -0.00002904   -0.01458113    0.05663946
     atom    9 type  1   force =    -0.00000548    0.00756973    0.08565090
     atom   10 type  1   force =     0.00000749   -0.00758476   -0.08547581
     atom   11 type  1   force =     0.00002892    0.01469324   -0.05651973
     atom   12 type  1   force =    -0.00001169   -0.00158906   -0.00008667
     atom   13 type  1   force =     0.00002056    0.00044789   -0.00614217
     atom   14 type  1   force =     0.00003762   -0.00127272   -0.00396684
     atom   15 type  1   force =    -0.00003551    0.00127450    0.00390812
     atom   16 type  1   force =    -0.00002503   -0.00042754    0.00617142
     atom   17 type  1   force =     0.00001206    0.00151096   -0.00003138
     atom   18 type  1   force =    -0.00002918   -0.01458100    0.05664046
     atom   19 type  1   force =    -0.00000265    0.00756945    0.08565179
     atom   20 type  1   force =     0.00000068   -0.00758568   -0.08547434
     The ionic contribution  to forces
     atom    1 type  1   force =     0.00000830    0.12007874   -8.94872502
     atom    2 type  1   force =    -0.00001646   -0.11074687   -6.74234578
     atom    3 type  1   force =    -0.00005711    0.01615899   -3.75945545
     atom    4 type  1   force =    -0.00002760    0.01134351   -1.55742572
     atom    5 type  1   force =    -0.00000787   -0.01138943    1.55485881
     atom    6 type  1   force =     0.00014436   -0.01629917    3.76257017
     atom    7 type  1   force =     0.00001433    0.11008765    6.73658028
     atom    8 type  1   force =    -0.00000591   -0.11868932    8.95371234
     atom    9 type  1   force =     0.00003091    0.04224175   11.23582037
     atom   10 type  1   force =    -0.00001350   -0.04278590  -11.23555711
     atom   11 type  1   force =     0.00000769    0.12007535   -8.94870482
     atom   12 type  1   force =    -0.00002848   -0.11074572   -6.74231236
     atom   13 type  1   force =    -0.00014490    0.01611318   -3.75950879
     atom   14 type  1   force =     0.00004270    0.01139500   -1.55739353
     atom   15 type  1   force =    -0.00000795   -0.01139832    1.55489504
     atom   16 type  1   force =     0.00005777   -0.01632358    3.76256213
     atom   17 type  1   force =     0.00003021    0.11012511    6.73656942
     atom   18 type  1   force =    -0.00000668   -0.11868943    8.95367778
     atom   19 type  1   force =     0.00005363    0.04224411   11.23577599
     atom   20 type  1   force =    -0.00007344   -0.04279563  -11.23559377
     The local contribution  to forces
     atom    1 type  1   force =    -0.00003874   -0.14353328    9.08512289
     atom    2 type  1   force =     0.00002638    0.11759119    6.80169051
     atom    3 type  1   force =     0.00003103   -0.01805562    3.80006871
     atom    4 type  1   force =    -0.00000807   -0.00977843    1.57627592
     atom    5 type  1   force =     0.00004398    0.00981091   -1.57301187
     atom    6 type  1   force =    -0.00011958    0.01816942   -3.80263928
     atom    7 type  1   force =    -0.00002443   -0.11681018   -6.79511741
     atom    8 type  1   force =     0.00003578    0.14199316   -9.08969286
     atom    9 type  1   force =    -0.00002229   -0.05438521  -11.31364465
     atom   10 type  1   force =     0.00000208    0.05494938   11.31326081
     atom   11 type  1   force =    -0.00003656   -0.14352825    9.08510399
     atom   12 type  1   force =     0.00003778    0.11758859    6.80165968
     atom   13 type  1   force =     0.00011972   -0.01801226    3.80012184
     atom   14 type  1   force =    -0.00007938   -0.00982732    1.57624267
     atom   15 type  1   force =     0.00004397    0.00982109   -1.57304896
     atom   16 type  1   force =    -0.00003122    0.01819215   -3.80263031
     atom   17 type  1   force =    -0.00003973   -0.11684500   -6.79510620
     atom   18 type  1   force =     0.00003647    0.14199246   -9.08965809
     atom   19 type  1   force =    -0.00004839   -0.05438683  -11.31360690
     atom   20 type  1   force =     0.00007071    0.05496044   11.31329099
     The core correction contribution to forces
     atom    1 type  1   force =     0.00000000    0.00000000    0.00000000
     atom    2 type  1   force =     0.00000000    0.00000000    0.00000000
     atom    3 type  1   force =     0.00000000    0.00000000    0.00000000
     atom    4 type  1   force =     0.00000000    0.00000000    0.00000000
     atom    5 type  1   force =     0.00000000    0.00000000    0.00000000
     atom    6 type  1   force =     0.00000000    0.00000000    0.00000000
     atom    7 type  1   force =     0.00000000    0.00000000    0.00000000
     atom    8 type  1   force =     0.00000000    0.00000000    0.00000000
     atom    9 type  1   force =     0.00000000    0.00000000    0.00000000
     atom   10 type  1   force =     0.00000000    0.00000000    0.00000000
     atom   11 type  1   force =     0.00000000    0.00000000    0.00000000
     atom   12 type  1   force =     0.00000000    0.00000000    0.00000000
     atom   13 type  1   force =     0.00000000    0.00000000    0.00000000
     atom   14 type  1   force =     0.00000000    0.00000000    0.00000000
     atom   15 type  1   force =     0.00000000    0.00000000    0.00000000
     atom   16 type  1   force =     0.00000000    0.00000000    0.00000000
     atom   17 type  1   force =     0.00000000    0.00000000    0.00000000
     atom   18 type  1   force =     0.00000000    0.00000000    0.00000000
     atom   19 type  1   force =     0.00000000    0.00000000    0.00000000
     atom   20 type  1   force =     0.00000000    0.00000000    0.00000000
     The Hubbard contrib.    to forces
     atom    1 type  1   force =     0.00000000    0.00000000    0.00000000
     atom    2 type  1   force =     0.00000000    0.00000000    0.00000000
     atom    3 type  1   force =     0.00000000    0.00000000    0.00000000
     atom    4 type  1   force =     0.00000000    0.00000000    0.00000000
     atom    5 type  1   force =     0.00000000    0.00000000    0.00000000
     atom    6 type  1   force =     0.00000000    0.00000000    0.00000000
     atom    7 type  1   force =     0.00000000    0.00000000    0.00000000
     atom    8 type  1   force =     0.00000000    0.00000000    0.00000000
     atom    9 type  1   force =     0.00000000    0.00000000    0.00000000
     atom   10 type  1   force =     0.00000000    0.00000000    0.00000000
     atom   11 type  1   force =     0.00000000    0.00000000    0.00000000
     atom   12 type  1   force =     0.00000000    0.00000000    0.00000000
     atom   13 type  1   force =     0.00000000    0.00000000    0.00000000
     atom   14 type  1   force =     0.00000000    0.00000000    0.00000000
     atom   15 type  1   force =     0.00000000    0.00000000    0.00000000
     atom   16 type  1   force =     0.00000000    0.00000000    0.00000000
     atom   17 type  1   force =     0.00000000    0.00000000    0.00000000
     atom   18 type  1   force =     0.00000000    0.00000000    0.00000000
     atom   19 type  1   force =     0.00000000    0.00000000    0.00000000
     atom   20 type  1   force =     0.00000000    0.00000000    0.00000000
     The SCF correction term to forces
     atom    1 type  1   force =     0.00000002   -0.00000128   -0.00000500
     atom    2 type  1   force =    -0.00000003    0.00000211   -0.00004006
     atom    3 type  1   force =     0.00000003    0.00000085   -0.00000282
     atom    4 type  1   force =    -0.00000002   -0.00000007    0.00000120
     atom    5 type  1   force =     0.00000002    0.00000002   -0.00000071
     atom    6 type  1   force =     0.00000003   -0.00000083    0.00000262
     atom    7 type  1   force =     0.00000002   -0.00000189    0.00003875
     atom    8 type  1   force =    -0.00000009    0.00000160    0.00000725
     atom    9 type  1   force =     0.00000004   -0.00000408   -0.00000296
     atom   10 type  1   force =     0.00000001    0.00000781   -0.00000132
     atom   11 type  1   force =     0.00000007   -0.00000124   -0.00000497
     atom   12 type  1   force =    -0.00000007    0.00000209   -0.00004007
     atom   13 type  1   force =    -0.00000006    0.00000082   -0.00000284
     atom   14 type  1   force =     0.00000004   -0.00000005    0.00000120
     atom   15 type  1   force =     0.00000001    0.00000002   -0.00000070
     atom   16 type  1   force =    -0.00000004   -0.00000084    0.00000262
     atom   17 type  1   force =     0.00000005   -0.00000188    0.00003878
     atom   18 type  1   force =    -0.00000006    0.00000159    0.00000723
     atom   19 type  1   force =    -0.00000005   -0.00000409   -0.00000291
     atom   20 type  1   force =     0.00000021    0.00000786   -0.00000130

     Total force =     0.000963     Total SCF correction =     0.000081
     Energy error            =      4.5E-06 Ry
     Gradient error          =      3.2E-04 Ry/Bohr

     bfgs converged in  41 scf cycles and  40 bfgs steps
     (criteria: energy <  1.0E-05 Ry, force <  3.9E-04 Ry/Bohr)

     End of BFGS Geometry Optimization

     Final energy             =    -300.8664921585 Ry

     File ./Li/Lithium.bfgs deleted, as requested
Begin final coordinates

ATOMIC_POSITIONS (angstrom)
Li               1.7183194396        2.0905917472       21.1957069219
Li               0.0006858066        4.5257234254       22.1651414780
Li               0.0006272093        1.1112198940       23.4089773632
Li               1.7177003314        3.3170787053       24.3316003197
Li               1.7174649016       -0.0570188957       25.6026279665
Li              -0.0006620736        2.1477669206       26.5272235294
Li               1.7168701973        4.1649640952       27.7659920626
Li               1.7168075582        1.1660295053       28.7394610006
Li              -0.0011044709        3.5301267794       30.3850902562
Li               3.4362593133       -0.2706025273       19.5422062308
Li               5.1535046337        2.0905805686       21.1957397269
Li               3.4358495123        4.5256979027       22.1651841141
Li               3.4358209830        1.1112930132       23.4089578124
Li               5.1528632615        3.3170358103       24.3316140568
Li               5.1525969497       -0.0570402170       25.6026382602
Li               3.4345209817        2.1478209957       26.5272108648
Li               5.1520644008        4.1649192261       27.7659791610
Li               5.1519775668        1.1660038184       28.7394215840
Li               3.4340414185        3.5301039224       30.3850299337
Li               6.8714506825       -0.2706169150       19.5421522418
End final coordinates



     Writing all to output data dir ./Li/Lithium.save/ :
     XML data file
     init_run     :      6.02s CPU      6.43s WALL (       1 calls)
     electrons    :  11011.02s CPU  11093.99s WALL (      41 calls)
     update_pot   :      4.11s CPU      4.20s WALL (      40 calls)
     forces       :    289.34s CPU    290.55s WALL (      41 calls)

     Called by init_run:
     wfcinit      :      2.10s CPU      2.18s WALL (       1 calls)
     wfcinit:wfcr :      2.00s CPU      2.07s WALL (      31 calls)
     potinit      :      0.12s CPU      0.22s WALL (       1 calls)
     hinit0       :      1.30s CPU      1.47s WALL (       1 calls)

     Called by electrons:
     c_bands      :   7574.50s CPU   7634.25s WALL (     643 calls)
     sum_band     :    621.34s CPU    626.57s WALL (     643 calls)
     v_of_rho     :     37.93s CPU     38.37s WALL (     644 calls)
     v_h          :      3.01s CPU      3.03s WALL (     644 calls)
     v_xc         :     34.91s CPU     35.33s WALL (     644 calls)
     newd         :     12.30s CPU     12.45s WALL (     644 calls)
     PAW_pot      :     18.25s CPU     18.65s WALL (     684 calls)
     mix_rho      :     92.47s CPU     93.14s WALL (     643 calls)

     Called by c_bands:
     init_us_2    :     67.20s CPU     68.28s WALL (   42408 calls)
     cegterg      :   6778.05s CPU   6827.13s WALL (   22799 calls)

     Called by sum_band:
     sum_band:wei :      3.10s CPU      3.13s WALL (     643 calls)
     sum_band:loo :    598.24s CPU    602.79s WALL (     643 calls)
     sum_band:buf :      5.82s CPU      5.92s WALL (   19933 calls)
     sum_band:ini :     32.15s CPU     32.39s WALL (   19933 calls)
     sum_band:cal :     59.91s CPU     60.43s WALL (   21173 calls)
     sum_band:bec :      2.27s CPU      2.36s WALL (   21173 calls)
     addusdens    :      8.56s CPU      9.00s WALL (     643 calls)
                                        0.00s GPU  (     643 calls)
     addusd:skk   :      1.13s CPU      1.13s WALL (     643 calls)
                                        0.00s GPU  (     643 calls)

     Called by *egterg:
     cdiaghg      :   1292.78s CPU   1299.55s WALL (  283569 calls)
     cegterg:over :    504.66s CPU    509.22s WALL (  263679 calls)
     cegterg:upda :    253.63s CPU    255.61s WALL (  263679 calls)
     cegterg:last :     46.96s CPU     47.23s WALL (   27905 calls)
     h_psi        :   4306.53s CPU   4340.59s WALL (  286509 calls)
     s_psi        :    172.98s CPU    174.78s WALL (  286509 calls)
     g_psi        :      8.68s CPU      8.78s WALL (  263679 calls)

     Called by h_psi:
     h_psi:calbec :    349.46s CPU    353.02s WALL (  286509 calls)
     vloc_psi     :   3743.35s CPU   3772.26s WALL (  286509 calls)
                                        0.00s GPU  (  286509 calls)
     add_vuspsi   :    197.56s CPU    199.41s WALL (  286509 calls)

     General routines
     calbec       :    420.91s CPU    425.39s WALL (  312766 calls)
     fft          :     38.92s CPU     39.20s WALL (    8452 calls)
     ffts         :     51.00s CPU     51.41s WALL (   70413 calls)
     fftw         :   4075.87s CPU   4107.32s WALL ( 8200073 calls)
     interpolate  :      2.59s CPU      2.69s WALL (     644 calls)
 
     Parallel routines

     PAW routines
     PAW_pot      :     18.25s CPU     18.65s WALL (     684 calls)
 
     Environ routines
 
     PWSCF        :      3h12m CPU      3h14m WALL

 
   This run was terminated on:   1:15: 9   7Jan2025            

=------------------------------------------------------------------------------=
   JOB DONE.
=------------------------------------------------------------------------------=
