
     Program PWSCF v.7.4 starts on  3Jan2025 at 12: 0: 7 

     This program is part of the open-source Quantum ESPRESSO suite
     for quantum simulation of materials; please cite
         "P. Giannozzi et al., J. Phys.:Condens. Matter 21 395502 (2009);
         "P. Giannozzi et al., J. Phys.:Condens. Matter 29 465901 (2017);
         "P. Giannozzi et al., J. Chem. Phys. 152 154105 (2020);
          URL http://www.quantum-espresso.org", 
     in publications or presentations arising from this work. More details at
     http://www.quantum-espresso.org/quote

     Parallel version (MPI & OpenMP), running on     512 processor cores
     Number of MPI processes:               512
     Threads/MPI process:                     1

     MPI processes distributed on     4 nodes
     230789 MiB available memory on the printing compute node when the environment starts

     Reading input from espresso.pwi
Warning: card &CELL ignored
Warning: card    PRESS_CONV_THR   = 0.1 ignored
Warning: card    CELL_DOFREE      = 'ALL' ignored
Warning: card / ignored
Warning: card &FCP ignored
Warning: card / ignored
Warning: card &RISM ignored
Warning: card / ignored

     Current dimensions of program PWSCF are:
     Max number of different atomic species (ntypx) = 10
     Max number of k-points (npk) =  40000
     Max angular momentum in pseudopotentials (lmaxx) =  4

     IMPORTANT: XC functional enforced from input :
     Exchange-correlation= PBE
                           (   1   4   3   4   0   0   0)
     Any further DFT definition will be discarded
     Please, verify this is what you really want


     Reading input from environ.in:
     * using ionic solvent mode
     * setting boundary derivatives method to SSCS default
     * setting electrolyte-boundary derivatives method to SSCS default

Environ Warning (1001): card EOF ignored

     

     K-points division:     npool     =       2
     R & G space division:  proc/nbgrp/npool/nimage =     256
     Subspace diagonalization in iterative solution of the eigenvalue problem:
     a serial algorithm will be used


     Parallelization info
     --------------------
     sticks:   dense  smooth     PW     G-vecs:    dense   smooth      PW
     Min          49      19      5                30863     7773    1061
     Max          50      20      6                30904     7852    1116
     Sum       12597    5037   1349              7904519  1999739  278317

     Using Slab Decomposition



     bravais-lattice index     =            8
     lattice parameter (alat)  =      18.3607  a.u.
     unit-cell volume          =   20684.8735 (a.u.)^3
     number of atoms/cell      =           44
     number of atomic types    =            1
     number of electrons       =       132.00
     number of Kohn-Sham states=           99
     kinetic-energy cutoff     =      80.0000  Ry
     charge density cutoff     =     800.0000  Ry
     scf convergence threshold =      1.0E-06
     mixing beta               =       0.2000
     number of iterations used =            8  local-TF  mixing
     energy convergence thresh.=      1.0E-05
     force convergence thresh. =      3.9E-04
     Exchange-correlation= PBE
                           (   1   4   3   4   0   0   0)
     nstep                     =          999


     ================================================================================

                                  Environ Setup Summary

     ================================================================================

     Please cite

          O. Andreussi, I. Dabo and N. Marzari, J. Chem. Phys. 136, 064102 (2012)
          F. Nattino, M. Truscott, N. Marzari, and O. Andreussi, J. Chem. Phys. 150, 041722 (2019)

     in publications or presentations arising from this work.

     ================================================================================

     Parameters
     ==========

     compensation onset threshold      =               0.1000E+00
     static permittivity               =                    89.90
     surface tension in input (dyn/cm) =                    37.30
     surface tension in internal units =               0.4792E-04

     Solvent Boundary
     ================

     solvent mode                      =                    ionic
     derivatives method                =                   lowmem
     electrolyte derivatives method    =                   lowmem
     numerical core for derivatives    =                      fft
     switching function adopted        =                     SCCS
     density limit for vacuum region   =               0.5000E-02
     density limit for bulk solvent    =               0.1000E-03
     soft-sphere radius mode           =                    bondi
     soft-sphere softness              =                     0.50
     alpha                             =                     1.32

     Electrostatic Setup
     ===================

     electrostatic problem to solve    =                    modpb
     numerical solver adopted          =                   newton
     type of auxiliary density adopted =                     none
     numerical core for poisson        =                      fft
     adopting a nested solver scheme
     inner solver                      =                       cg
     inner core                        =                      fft
     type of pbc corrections           =                parabolic
     numerical core for corrections    =                      1da

     ================================================================================


     >>>>> Grand-Canonical SCF is activated <<<<<
     Initial Total Charge  =     0.000000 e
     Target Fermi Energy   =    -2.404000 eV
     Thr. of Fermi Energy  =     0.001000 eV
     Wave-shift of Kerker  =     0.400000 bohr^-1
     Wave-shift of Hartree =     1.500000 bohr^-1
     Mixing Rate of Fermi  =     0.050000

     celldm(1)=  18.360747  celldm(2)=   0.586302  celldm(3)=   5.699811
     celldm(4)=   0.000000  celldm(5)=   0.000000  celldm(6)=   0.000000

     crystal axes: (cart. coord. in units of alat)
               a(1) = (   1.000000   0.000000   0.000000 )  
               a(2) = (   0.000000   0.586302   0.000000 )  
               a(3) = (   0.000000   0.000000   5.699811 )  

     reciprocal axes: (cart. coord. in units 2 pi/alat)
               b(1) = (  1.000000  0.000000  0.000000 )  
               b(2) = (  0.000000  1.705606  0.000000 )  
               b(3) = (  0.000000  0.000000  0.175444 )  


     PseudoPot. # 1 for Li read from file:
     /work/e89/e89/ba3g18/Repos/Pseudopotentials/Pslibrary/Li.pbe-sl-kjpaw_psl.1.0.0.UPF
     MD5 check sum: 3f4d2cafebb47c6c3aa8ed472e6f074d
     Pseudo is Projector augmented-wave, Zval =  3.0
     Generated using 'atomic' code by A. Dal Corso  v.7.4
     Shape of augmentation charge: PSQ
     Using radial grid of 1017 points,  4 beta functions with: 
                l(1) =   0
                l(2) =   0
                l(3) =   1
                l(4) =   1
     Q(r) pseudized with 0 coefficients 


     atomic species   valence    mass     pseudopotential
     Li                3.00     6.94000     Li( 1.00)

      2 Sym. Ops. (no inversion) found


                                    s                        frac. trans.

      isym =  1     identity                                     

 cryst.   s( 1) = (     1          0          0      )
                  (     0          1          0      )
                  (     0          0          1      )

 cart.    s( 1) = (  1.0000000  0.0000000  0.0000000 )
                  (  0.0000000  1.0000000  0.0000000 )
                  (  0.0000000  0.0000000  1.0000000 )


      isym =  2     inv. 180 deg rotation - cart. axis [1,0,0]   

 cryst.   s( 2) = (    -1          0          0      )
                  (     0          1          0      )
                  (     0          0          1      )

 cart.    s( 2) = ( -1.0000000  0.0000000  0.0000000 )
                  (  0.0000000  1.0000000  0.0000000 )
                  (  0.0000000  0.0000000  1.0000000 )


     point group C_s (m)    
     there are  2 classes
     the character table:

       E     s    
A'     1.00  1.00
A''    1.00 -1.00

     the symmetry operations in each class and the name of the first element:

     E        1
          identity                                               
     s        2
          inv. 180 deg rotation - cart. axis [1,0,0]             

   Cartesian axes

     site n.     atom                  positions (alat units)
         1        Li     tau(   1) = (   0.5000000   0.5618724   3.6507372  )
         2        Li     tau(   2) = (   0.2499936   0.4507442   2.0490878  )
         3        Li     tau(   3) = (   0.2500015   0.1052602   2.2448329  )
         4        Li     tau(   4) = (   0.5000000   0.2252523   2.1126330  )
         5        Li     tau(   5) = (  -0.0000000   0.5103250   2.2559235  )
         6        Li     tau(   6) = (   0.5000000   0.1954453   2.4247784  )
         7        Li     tau(   7) = (   0.2500023   0.3234104   2.6569176  )
         8        Li     tau(   8) = (   0.2499992   0.5872216   2.8351222  )
         9        Li     tau(   9) = (   0.2500015   0.3788434   2.3503586  )
        10        Li     tau(  10) = (   0.2499985   0.0476525   2.5362266  )
        11        Li     tau(  11) = (  -0.0000000   0.4699670   2.5632914  )
        12        Li     tau(  12) = (   0.5000000   0.1498795   2.7345249  )
        13        Li     tau(  13) = (   0.5000000   0.4254853   2.8646647  )
        14        Li     tau(  14) = (   0.5000000   0.1029886   3.0428934  )
        15        Li     tau(  15) = (   0.2499967   0.5427349   3.1365276  )
        16        Li     tau(  16) = (   0.2500004   0.2309547   3.2750291  )
        17        Li     tau(  17) = (   0.2500022   0.2765192   2.9652846  )
        18        Li     tau(  18) = (  -0.0000000   0.3787443   3.1636120  )
        19        Li     tau(  19) = (   0.5000000   0.0475613   3.3494621  )
        20        Li     tau(  20) = (   0.5000000   0.3211676   3.4549041  )
        21        Li     tau(  21) = (   0.2499812   0.5023788   3.4438921  )
        22        Li     tau(  22) = (   0.2500852   0.2011526   3.5871733  )
        23        Li     tau(  23) = (   1.0000000   0.5620440   3.6507028  )
        24        Li     tau(  24) = (   0.7500064   0.4507442   2.0490878  )
        25        Li     tau(  25) = (   0.7499985   0.1052602   2.2448329  )
        26        Li     tau(  26) = (   1.0000000   0.2252477   2.1126364  )
        27        Li     tau(  27) = (   0.5000000   0.5103250   2.2559080  )
        28        Li     tau(  28) = (   1.0000000   0.1954494   2.4247787  )
        29        Li     tau(  29) = (   0.7499977   0.3234104   2.6569176  )
        30        Li     tau(  30) = (   0.7500008   0.5872216   2.8351222  )
        31        Li     tau(  31) = (   0.7499985   0.3788434   2.3503586  )
        32        Li     tau(  32) = (   0.7500015   0.0476525   2.5362266  )
        33        Li     tau(  33) = (   0.5000000   0.4699701   2.5632692  )
        34        Li     tau(  34) = (   1.0000000   0.1498848   2.7345216  )
        35        Li     tau(  35) = (   1.0000000   0.4254778   2.8647058  )
        36        Li     tau(  36) = (   1.0000000   0.1029929   3.0428864  )
        37        Li     tau(  37) = (   0.7500033   0.5427349   3.1365276  )
        38        Li     tau(  38) = (   0.7499996   0.2309547   3.2750291  )
        39        Li     tau(  39) = (   0.7499978   0.2765192   2.9652846  )
        40        Li     tau(  40) = (   0.5000000   0.3787534   3.1635492  )
        41        Li     tau(  41) = (   1.0000000   0.0475542   3.3494358  )
        42        Li     tau(  42) = (   1.0000000   0.3211147   3.4550445  )
        43        Li     tau(  43) = (   0.7500188   0.5023788   3.4438921  )
        44        Li     tau(  44) = (   0.7499148   0.2011526   3.5871733  )

   Crystallographic axes

     site n.     atom                  positions (cryst. coord.)
         1        Li     tau(   1) = (  0.5000000  0.9583328  0.6405015  )
         2        Li     tau(   2) = (  0.2499936  0.7687919  0.3595010  )
         3        Li     tau(   3) = (  0.2500015  0.1795324  0.3938434  )
         4        Li     tau(   4) = (  0.5000000  0.3841916  0.3706497  )
         5        Li     tau(   5) = (  0.0000000  0.8704132  0.3957892  )
         6        Li     tau(   6) = (  0.5000000  0.3333527  0.4254138  )
         7        Li     tau(   7) = (  0.2500023  0.5516106  0.4661414  )
         8        Li     tau(   8) = (  0.2499992  1.0015685  0.4974064  )
         9        Li     tau(   9) = (  0.2500015  0.6461575  0.4123573  )
        10        Li     tau(  10) = (  0.2499985  0.0812764  0.4449668  )
        11        Li     tau(  11) = (  0.0000000  0.8015784  0.4497152  )
        12        Li     tau(  12) = (  0.5000000  0.2556353  0.4797571  )
        13        Li     tau(  13) = (  0.5000000  0.7257101  0.5025894  )
        14        Li     tau(  14) = (  0.5000000  0.1756579  0.5338587  )
        15        Li     tau(  15) = (  0.2499967  0.9256917  0.5502862  )
        16        Li     tau(  16) = (  0.2500004  0.3939177  0.5745856  )
        17        Li     tau(  17) = (  0.2500022  0.4716326  0.5202426  )
        18        Li     tau(  18) = (  0.0000000  0.6459885  0.5550381  )
        19        Li     tau(  19) = (  0.5000000  0.0811208  0.5876444  )
        20        Li     tau(  20) = (  0.5000000  0.5477852  0.6061436  )
        21        Li     tau(  21) = (  0.2499812  0.8568601  0.6042116  )
        22        Li     tau(  22) = (  0.2500852  0.3430870  0.6293495  )
        23        Li     tau(  23) = (  1.0000000  0.9586254  0.6404954  )
        24        Li     tau(  24) = (  0.7500064  0.7687919  0.3595010  )
        25        Li     tau(  25) = (  0.7499985  0.1795324  0.3938434  )
        26        Li     tau(  26) = (  1.0000000  0.3841838  0.3706503  )
        27        Li     tau(  27) = (  0.5000000  0.8704132  0.3957864  )
        28        Li     tau(  28) = (  1.0000000  0.3333596  0.4254139  )
        29        Li     tau(  29) = (  0.7499977  0.5516106  0.4661414  )
        30        Li     tau(  30) = (  0.7500008  1.0015685  0.4974064  )
        31        Li     tau(  31) = (  0.7499985  0.6461575  0.4123573  )
        32        Li     tau(  32) = (  0.7500015  0.0812764  0.4449668  )
        33        Li     tau(  33) = (  0.5000000  0.8015836  0.4497113  )
        34        Li     tau(  34) = (  1.0000000  0.2556443  0.4797565  )
        35        Li     tau(  35) = (  1.0000000  0.7256974  0.5025966  )
        36        Li     tau(  36) = (  1.0000000  0.1756653  0.5338574  )
        37        Li     tau(  37) = (  0.7500033  0.9256917  0.5502862  )
        38        Li     tau(  38) = (  0.7499996  0.3939177  0.5745856  )
        39        Li     tau(  39) = (  0.7499978  0.4716326  0.5202426  )
        40        Li     tau(  40) = (  0.5000000  0.6460039  0.5550270  )
        41        Li     tau(  41) = (  1.0000000  0.0811087  0.5876398  )
        42        Li     tau(  42) = (  1.0000000  0.5476950  0.6061683  )
        43        Li     tau(  43) = (  0.7500188  0.8568601  0.6042116  )
        44        Li     tau(  44) = (  0.7499148  0.3430870  0.6293495  )

     number of k points=    28  Marzari-Vanderbilt smearing, width (Ry)=  0.0100
                       cart. coord. in units 2pi/alat
        k(    1) = (   0.0000000   0.0000000   0.0000000), wk =   0.0238095
        k(    2) = (   0.0000000   0.1421338   0.0000000), wk =   0.0476190
        k(    3) = (   0.0000000   0.2842676   0.0000000), wk =   0.0476190
        k(    4) = (   0.0000000   0.4264014   0.0000000), wk =   0.0476190
        k(    5) = (   0.0000000   0.5685352   0.0000000), wk =   0.0476190
        k(    6) = (   0.0000000   0.7106690   0.0000000), wk =   0.0476190
        k(    7) = (   0.0000000  -0.8528028   0.0000000), wk =   0.0238095
        k(    8) = (   0.1428571   0.0000000   0.0000000), wk =   0.0476190
        k(    9) = (   0.1428571   0.1421338   0.0000000), wk =   0.0952381
        k(   10) = (   0.1428571   0.2842676   0.0000000), wk =   0.0952381
        k(   11) = (   0.1428571   0.4264014   0.0000000), wk =   0.0952381
        k(   12) = (   0.1428571   0.5685352   0.0000000), wk =   0.0952381
        k(   13) = (   0.1428571   0.7106690   0.0000000), wk =   0.0952381
        k(   14) = (   0.1428571  -0.8528028   0.0000000), wk =   0.0476190
        k(   15) = (   0.2857143   0.0000000   0.0000000), wk =   0.0476190
        k(   16) = (   0.2857143   0.1421338   0.0000000), wk =   0.0952381
        k(   17) = (   0.2857143   0.2842676   0.0000000), wk =   0.0952381
        k(   18) = (   0.2857143   0.4264014   0.0000000), wk =   0.0952381
        k(   19) = (   0.2857143   0.5685352   0.0000000), wk =   0.0952381
        k(   20) = (   0.2857143   0.7106690   0.0000000), wk =   0.0952381
        k(   21) = (   0.2857143  -0.8528028   0.0000000), wk =   0.0476190
        k(   22) = (   0.4285714   0.0000000   0.0000000), wk =   0.0476190
        k(   23) = (   0.4285714   0.1421338   0.0000000), wk =   0.0952381
        k(   24) = (   0.4285714   0.2842676   0.0000000), wk =   0.0952381
        k(   25) = (   0.4285714   0.4264014   0.0000000), wk =   0.0952381
        k(   26) = (   0.4285714   0.5685352   0.0000000), wk =   0.0952381
        k(   27) = (   0.4285714   0.7106690   0.0000000), wk =   0.0952381
        k(   28) = (   0.4285714  -0.8528028   0.0000000), wk =   0.0476190

                       cryst. coord.
        k(    1) = (   0.0000000   0.0000000   0.0000000), wk =   0.0238095
        k(    2) = (   0.0000000   0.0833333   0.0000000), wk =   0.0476190
        k(    3) = (   0.0000000   0.1666667   0.0000000), wk =   0.0476190
        k(    4) = (   0.0000000   0.2500000   0.0000000), wk =   0.0476190
        k(    5) = (   0.0000000   0.3333333   0.0000000), wk =   0.0476190
        k(    6) = (   0.0000000   0.4166667   0.0000000), wk =   0.0476190
        k(    7) = (   0.0000000  -0.5000000   0.0000000), wk =   0.0238095
        k(    8) = (   0.1428571   0.0000000   0.0000000), wk =   0.0476190
        k(    9) = (   0.1428571   0.0833333   0.0000000), wk =   0.0952381
        k(   10) = (   0.1428571   0.1666667   0.0000000), wk =   0.0952381
        k(   11) = (   0.1428571   0.2500000   0.0000000), wk =   0.0952381
        k(   12) = (   0.1428571   0.3333333   0.0000000), wk =   0.0952381
        k(   13) = (   0.1428571   0.4166667   0.0000000), wk =   0.0952381
        k(   14) = (   0.1428571  -0.5000000   0.0000000), wk =   0.0476190
        k(   15) = (   0.2857143   0.0000000   0.0000000), wk =   0.0476190
        k(   16) = (   0.2857143   0.0833333   0.0000000), wk =   0.0952381
        k(   17) = (   0.2857143   0.1666667   0.0000000), wk =   0.0952381
        k(   18) = (   0.2857143   0.2500000   0.0000000), wk =   0.0952381
        k(   19) = (   0.2857143   0.3333333   0.0000000), wk =   0.0952381
        k(   20) = (   0.2857143   0.4166667   0.0000000), wk =   0.0952381
        k(   21) = (   0.2857143  -0.5000000   0.0000000), wk =   0.0476190
        k(   22) = (   0.4285714   0.0000000   0.0000000), wk =   0.0476190
        k(   23) = (   0.4285714   0.0833333   0.0000000), wk =   0.0952381
        k(   24) = (   0.4285714   0.1666667   0.0000000), wk =   0.0952381
        k(   25) = (   0.4285714   0.2500000   0.0000000), wk =   0.0952381
        k(   26) = (   0.4285714   0.3333333   0.0000000), wk =   0.0952381
        k(   27) = (   0.4285714   0.4166667   0.0000000), wk =   0.0952381
        k(   28) = (   0.4285714  -0.5000000   0.0000000), wk =   0.0476190

     Dense  grid:  7904519 G-vectors     FFT dimensions: ( 180, 100, 960)

     Smooth grid:  1999739 G-vectors     FFT dimensions: ( 108,  64, 600)

     Dynamical RAM for                 wfc:       1.47 MB

     Dynamical RAM for     wfc (w. buffer):      22.12 MB

     Dynamical RAM for           str. fact:       0.47 MB

     Dynamical RAM for           local pot:       0.00 MB

     Dynamical RAM for          nlocal pot:       5.24 MB

     Dynamical RAM for                qrad:       0.65 MB

     Dynamical RAM for          rho,v,vnew:       3.06 MB

     Dynamical RAM for               rhoin:       1.02 MB

     Dynamical RAM for            rho*nmix:       7.54 MB

     Dynamical RAM for           G-vectors:       1.83 MB

     Dynamical RAM for          h,s,v(r/c):       7.18 MB

     Dynamical RAM for          <psi|beta>:       0.53 MB

     Dynamical RAM for                 psi:       5.90 MB

     Dynamical RAM for                hpsi:       5.90 MB

     Dynamical RAM for                spsi:       5.90 MB

     Dynamical RAM for      wfcinit/wfcrot:       3.17 MB

     Dynamical RAM for           addusdens:      20.73 MB

     Dynamical RAM for          addusforce:      41.02 MB

     Estimated static dynamical RAM per process >      38.07 MB

     Estimated max dynamical RAM per process >     120.61 MB

     Estimated total dynamical RAM >      41.43 GB

     Initial potential from superposition of free atoms

     starting charge     131.7972, renormalised to     132.0000

     negative rho (up, down):  3.395E-03 0.000E+00
     Starting wfcs are random
     Checking if some PAW data can be deallocated... 

     total cpu time spent up to now is       27.6 secs

     Self-consistent Calculation

     iteration #  1     ecut=    80.00 Ry     beta= 0.20
     Davidson diagonalization with overlap

---- Real-time Memory Report at c_bands before calling an iterative solver
           541 MiB given to the printing process from OS
             0 MiB allocation reported by mallinfo(arena+hblkhd)
        217294 MiB available memory on the node where the printing process lives
------------------
     c_bands:  1 eigenvalues not converged
     c_bands:  1 eigenvalues not converged
     c_bands:  1 eigenvalues not converged
     ethr =  1.00E-12,  avg # of iterations =112.1

     negative rho (up, down):  2.539E-03 0.000E+00

     total cpu time spent up to now is      268.9 secs

     total energy              =    -661.39390563 Ry
     estimated scf accuracy    <       0.11919414 Ry

     total charge of GC-SCF    =      -0.02067291 e
     the Fermi energy          =      -4.10104679 eV
                        (error :       1.69704679 eV)
     electrostatic embedding   =       0.00000000 Ry
     cavitation energy         =       0.02464122 Ry
     electrolyte free energy   =       0.00890302 Ry
     correction to one-el term =      -0.00000000 Ry

     iteration #  2     ecut=    80.00 Ry     beta= 0.20
     Davidson diagonalization with overlap

---- Real-time Memory Report at c_bands before calling an iterative solver
           541 MiB given to the printing process from OS
             0 MiB allocation reported by mallinfo(arena+hblkhd)
        215757 MiB available memory on the node where the printing process lives
------------------
     ethr =  1.00E-05,  avg # of iterations = 13.5

     negative rho (up, down):  2.025E-03 0.000E+00

     add environment contribution to local potential

     total cpu time spent up to now is      302.5 secs

     total energy              =    -661.70628548 Ry
     estimated scf accuracy    <       0.09612876 Ry

     total charge of GC-SCF    =      -0.01344032 e
     the Fermi energy          =      -2.63672183 eV
                        (error :       0.23272183 eV)
     electrostatic embedding   =      -0.00020723 Ry
     cavitation energy         =       0.02464122 Ry
     electrolyte free energy   =       0.00890302 Ry
     correction to one-el term =      -0.00000000 Ry

     iteration #  3     ecut=    80.00 Ry     beta= 0.20
     Davidson diagonalization with overlap

---- Real-time Memory Report at c_bands before calling an iterative solver
           541 MiB given to the printing process from OS
             0 MiB allocation reported by mallinfo(arena+hblkhd)
        215609 MiB available memory on the node where the printing process lives
------------------
     ethr =  1.00E-05,  avg # of iterations = 30.1

     negative rho (up, down):  1.623E-03 0.000E+00

     add environment contribution to local potential

     total cpu time spent up to now is      356.2 secs

     total energy              =    -661.59706992 Ry
     estimated scf accuracy    <       0.05229925 Ry

     total charge of GC-SCF    =      -0.07558914 e
     the Fermi energy          =      -2.91411674 eV
                        (error :       0.51011674 eV)
     electrostatic embedding   =      -0.02705883 Ry
     cavitation energy         =       0.02464122 Ry
     electrolyte free energy   =      -0.00305530 Ry
     correction to one-el term =       2.43371743 Ry

     iteration #  4     ecut=    80.00 Ry     beta= 0.20
     Davidson diagonalization with overlap

---- Real-time Memory Report at c_bands before calling an iterative solver
           541 MiB given to the printing process from OS
             0 MiB allocation reported by mallinfo(arena+hblkhd)
        215627 MiB available memory on the node where the printing process lives
------------------
     ethr =  1.00E-05,  avg # of iterations = 13.4

     negative rho (up, down):  1.284E-03 0.000E+00

     add environment contribution to local potential

     total cpu time spent up to now is      392.1 secs

     total energy              =    -661.63579058 Ry
     estimated scf accuracy    <       0.01168578 Ry

     total charge of GC-SCF    =      -0.12945826 e
     the Fermi energy          =      -3.08742786 eV
                        (error :       0.68342786 eV)
     electrostatic embedding   =      -0.03115288 Ry
     cavitation energy         =       0.02464122 Ry
     electrolyte free energy   =      -0.00353535 Ry
     correction to one-el term =       5.72244147 Ry

     iteration #  5     ecut=    80.00 Ry     beta= 0.20
     Davidson diagonalization with overlap

---- Real-time Memory Report at c_bands before calling an iterative solver
           541 MiB given to the printing process from OS
             0 MiB allocation reported by mallinfo(arena+hblkhd)
        215602 MiB available memory on the node where the printing process lives
------------------
     ethr =  8.84E-06,  avg # of iterations = 19.0

     negative rho (up, down):  1.072E-03 0.000E+00

     add environment contribution to local potential

     total cpu time spent up to now is      433.0 secs

     total energy              =    -661.66292798 Ry
     estimated scf accuracy    <       0.00439995 Ry

     total charge of GC-SCF    =      -0.17842300 e
     the Fermi energy          =      -2.68458832 eV
                        (error :       0.28058832 eV)
     electrostatic embedding   =      -0.03444712 Ry
     cavitation energy         =       0.02464122 Ry
     electrolyte free energy   =      -0.00092057 Ry
     correction to one-el term =      10.05287143 Ry

     iteration #  6     ecut=    80.00 Ry     beta= 0.20
     Davidson diagonalization with overlap

---- Real-time Memory Report at c_bands before calling an iterative solver
           541 MiB given to the printing process from OS
             0 MiB allocation reported by mallinfo(arena+hblkhd)
        215575 MiB available memory on the node where the printing process lives
------------------
     ethr =  3.33E-06,  avg # of iterations = 17.8

     negative rho (up, down):  9.778E-04 0.000E+00

     add environment contribution to local potential

     total cpu time spent up to now is      473.9 secs

     total energy              =    -661.68534516 Ry
     estimated scf accuracy    <       0.00625586 Ry

     total charge of GC-SCF    =      -0.25731444 e
     the Fermi energy          =      -2.38109431 eV
                        (error :       0.02290569 eV)
     electrostatic embedding   =      -0.04392455 Ry
     cavitation energy         =       0.02464122 Ry
     electrolyte free energy   =      -0.00083156 Ry
     correction to one-el term =      16.12532307 Ry

     iteration #  7     ecut=    80.00 Ry     beta= 0.20
     Davidson diagonalization with overlap

---- Real-time Memory Report at c_bands before calling an iterative solver
           541 MiB given to the printing process from OS
             0 MiB allocation reported by mallinfo(arena+hblkhd)
        215543 MiB available memory on the node where the printing process lives
------------------
     ethr =  3.33E-06,  avg # of iterations = 10.6

     negative rho (up, down):  9.110E-04 0.000E+00

     add environment contribution to local potential

     total cpu time spent up to now is      502.6 secs

     total energy              =    -661.65788110 Ry
     estimated scf accuracy    <       0.00330065 Ry

     total charge of GC-SCF    =      -0.32343742 e
     the Fermi energy          =      -2.39850064 eV
                        (error :       0.00549936 eV)
     electrostatic embedding   =      -0.06478037 Ry
     cavitation energy         =       0.02464122 Ry
     electrolyte free energy   =      -0.00107161 Ry
     correction to one-el term =      21.15607625 Ry

     iteration #  8     ecut=    80.00 Ry     beta= 0.20
     Davidson diagonalization with overlap

---- Real-time Memory Report at c_bands before calling an iterative solver
           541 MiB given to the printing process from OS
             0 MiB allocation reported by mallinfo(arena+hblkhd)
        215488 MiB available memory on the node where the printing process lives
------------------
     ethr =  2.49E-06,  avg # of iterations = 15.9

     negative rho (up, down):  8.194E-04 0.000E+00

     add environment contribution to local potential

     total cpu time spent up to now is      538.7 secs

     total energy              =    -661.67916978 Ry
     estimated scf accuracy    <       0.00098379 Ry

     total charge of GC-SCF    =      -0.35789242 e
     the Fermi energy          =      -2.54661431 eV
                        (error :       0.14261431 eV)
     electrostatic embedding   =      -0.08248727 Ry
     cavitation energy         =       0.02464122 Ry
     electrolyte free energy   =      -0.00112482 Ry
     correction to one-el term =      23.52526193 Ry

     iteration #  9     ecut=    80.00 Ry     beta= 0.20
     Davidson diagonalization with overlap

---- Real-time Memory Report at c_bands before calling an iterative solver
           541 MiB given to the printing process from OS
             0 MiB allocation reported by mallinfo(arena+hblkhd)
        215356 MiB available memory on the node where the printing process lives
------------------
     ethr =  7.43E-07,  avg # of iterations = 16.2

     negative rho (up, down):  7.729E-04 0.000E+00

     add environment contribution to local potential

     total cpu time spent up to now is      576.2 secs

     total energy              =    -661.68539791 Ry
     estimated scf accuracy    <       0.00049897 Ry

     total charge of GC-SCF    =      -0.41871815 e
     the Fermi energy          =      -2.44146780 eV
                        (error :       0.03746780 eV)
     electrostatic embedding   =      -0.08742167 Ry
     cavitation energy         =       0.02464122 Ry
     electrolyte free energy   =      -0.00118393 Ry
     correction to one-el term =      25.20280947 Ry

     iteration # 10     ecut=    80.00 Ry     beta= 0.20
     Davidson diagonalization with overlap

---- Real-time Memory Report at c_bands before calling an iterative solver
           541 MiB given to the printing process from OS
             0 MiB allocation reported by mallinfo(arena+hblkhd)
        215347 MiB available memory on the node where the printing process lives
------------------
     ethr =  3.77E-07,  avg # of iterations = 12.6

     negative rho (up, down):  7.517E-04 0.000E+00

     add environment contribution to local potential

     total cpu time spent up to now is      606.9 secs

     total energy              =    -661.68115700 Ry
     estimated scf accuracy    <       0.00075481 Ry

     total charge of GC-SCF    =      -0.47269971 e
     the Fermi energy          =      -2.41752577 eV
                        (error :       0.01352577 eV)
     electrostatic embedding   =      -0.10007295 Ry
     cavitation energy         =       0.02464122 Ry
     electrolyte free energy   =      -0.00129014 Ry
     correction to one-el term =      27.44737460 Ry

     iteration # 11     ecut=    80.00 Ry     beta= 0.20
     Davidson diagonalization with overlap

---- Real-time Memory Report at c_bands before calling an iterative solver
           541 MiB given to the printing process from OS
             0 MiB allocation reported by mallinfo(arena+hblkhd)
        215316 MiB available memory on the node where the printing process lives
------------------
     ethr =  3.77E-07,  avg # of iterations = 13.0

     negative rho (up, down):  6.802E-04 0.000E+00

     add environment contribution to local potential

     total cpu time spent up to now is      636.0 secs

     total energy              =    -661.68397206 Ry
     estimated scf accuracy    <       0.00013347 Ry

     total charge of GC-SCF    =      -0.51220801 e
     the Fermi energy          =      -2.46064044 eV
                        (error :       0.05664044 eV)
     electrostatic embedding   =      -0.11273068 Ry
     cavitation energy         =       0.02464122 Ry
     electrolyte free energy   =      -0.00127773 Ry
     correction to one-el term =      28.99550265 Ry

     iteration # 12     ecut=    80.00 Ry     beta= 0.20
     Davidson diagonalization with overlap

---- Real-time Memory Report at c_bands before calling an iterative solver
           541 MiB given to the printing process from OS
             0 MiB allocation reported by mallinfo(arena+hblkhd)
        215313 MiB available memory on the node where the printing process lives
------------------
     ethr =  1.01E-07,  avg # of iterations = 32.5

     negative rho (up, down):  5.880E-04 0.000E+00

     add environment contribution to local potential

     total cpu time spent up to now is      699.4 secs

     total energy              =    -661.68708027 Ry
     estimated scf accuracy    <       0.00006791 Ry

     total charge of GC-SCF    =      -0.51605637 e
     the Fermi energy          =      -2.51431291 eV
                        (error :       0.11031291 eV)
     electrostatic embedding   =      -0.12144059 Ry
     cavitation energy         =       0.02464122 Ry
     electrolyte free energy   =      -0.00124306 Ry
     correction to one-el term =      29.69451008 Ry

     iteration # 13     ecut=    80.00 Ry     beta= 0.20
     Davidson diagonalization with overlap

---- Real-time Memory Report at c_bands before calling an iterative solver
           541 MiB given to the printing process from OS
             0 MiB allocation reported by mallinfo(arena+hblkhd)
        215303 MiB available memory on the node where the printing process lives
------------------
     ethr =  5.12E-08,  avg # of iterations = 15.4

     negative rho (up, down):  5.337E-04 0.000E+00

     add environment contribution to local potential

     total cpu time spent up to now is      736.2 secs

     total energy              =    -661.68611850 Ry
     estimated scf accuracy    <       0.00001382 Ry

     total charge of GC-SCF    =      -0.57639334 e
     the Fermi energy          =      -2.50266584 eV
                        (error :       0.09866584 eV)
     electrostatic embedding   =      -0.12051318 Ry
     cavitation energy         =       0.02464122 Ry
     electrolyte free energy   =      -0.00120994 Ry
     correction to one-el term =      29.58975106 Ry

     iteration # 14     ecut=    80.00 Ry     beta= 0.20
     Davidson diagonalization with overlap

---- Real-time Memory Report at c_bands before calling an iterative solver
           541 MiB given to the printing process from OS
             0 MiB allocation reported by mallinfo(arena+hblkhd)
        215285 MiB available memory on the node where the printing process lives
------------------
     c_bands:  1 eigenvalues not converged
     ethr =  1.04E-08,  avg # of iterations = 34.2

     negative rho (up, down):  5.014E-04 0.000E+00

     add environment contribution to local potential

     total cpu time spent up to now is      798.7 secs

     total energy              =    -661.68672260 Ry
     estimated scf accuracy    <       0.00002144 Ry

     total charge of GC-SCF    =      -0.61108391 e
     the Fermi energy          =      -2.48728745 eV
                        (error :       0.08328745 eV)
     electrostatic embedding   =      -0.13456324 Ry
     cavitation energy         =       0.02464122 Ry
     electrolyte free energy   =      -0.00127381 Ry
     correction to one-el term =      31.44000756 Ry

     iteration # 15     ecut=    80.00 Ry     beta= 0.20
     Davidson diagonalization with overlap

---- Real-time Memory Report at c_bands before calling an iterative solver
           541 MiB given to the printing process from OS
             0 MiB allocation reported by mallinfo(arena+hblkhd)
        215311 MiB available memory on the node where the printing process lives
------------------
     c_bands:  1 eigenvalues not converged
     ethr =  1.04E-08,  avg # of iterations = 19.9

     negative rho (up, down):  4.764E-04 0.000E+00

     add environment contribution to local potential

     total cpu time spent up to now is      844.6 secs

     total energy              =    -661.68697513 Ry
     estimated scf accuracy    <       0.00001805 Ry

     total charge of GC-SCF    =      -0.64675689 e
     the Fermi energy          =      -2.48195007 eV
                        (error :       0.07795007 eV)
     electrostatic embedding   =      -0.14373275 Ry
     cavitation energy         =       0.02464122 Ry
     electrolyte free energy   =      -0.00132805 Ry
     correction to one-el term =      32.57408067 Ry

     iteration # 16     ecut=    80.00 Ry     beta= 0.20
     Davidson diagonalization with overlap

---- Real-time Memory Report at c_bands before calling an iterative solver
           541 MiB given to the printing process from OS
             0 MiB allocation reported by mallinfo(arena+hblkhd)
        215254 MiB available memory on the node where the printing process lives
------------------
     ethr =  1.04E-08,  avg # of iterations = 14.4

     negative rho (up, down):  4.524E-04 0.000E+00

     add environment contribution to local potential

     total cpu time spent up to now is      880.8 secs

     total energy              =    -661.68801184 Ry
     estimated scf accuracy    <       0.00001580 Ry

     total charge of GC-SCF    =      -0.81300810 e
     the Fermi energy          =      -2.47679251 eV
                        (error :       0.07279251 eV)
     electrostatic embedding   =      -0.15355199 Ry
     cavitation energy         =       0.02464122 Ry
     electrolyte free energy   =      -0.00138519 Ry
     correction to one-el term =      33.74018131 Ry

     iteration # 17     ecut=    80.00 Ry     beta= 0.20
     Davidson diagonalization with overlap

---- Real-time Memory Report at c_bands before calling an iterative solver
           541 MiB given to the printing process from OS
             0 MiB allocation reported by mallinfo(arena+hblkhd)
        215266 MiB available memory on the node where the printing process lives
------------------
     ethr =  1.04E-08,  avg # of iterations = 27.0

     negative rho (up, down):  4.369E-04 0.000E+00

     add environment contribution to local potential

     total cpu time spent up to now is      933.6 secs

     total energy              =    -661.68821574 Ry
     estimated scf accuracy    <       0.00000422 Ry

     total charge of GC-SCF    =      -0.86113741 e
     the Fermi energy          =      -2.44972232 eV
                        (error :       0.04572232 eV)
     electrostatic embedding   =      -0.20560944 Ry
     cavitation energy         =       0.02464122 Ry
     electrolyte free energy   =      -0.00173559 Ry
     correction to one-el term =      39.36516861 Ry

     iteration # 18     ecut=    80.00 Ry     beta= 0.20
     Davidson diagonalization with overlap

---- Real-time Memory Report at c_bands before calling an iterative solver
           541 MiB given to the printing process from OS
             0 MiB allocation reported by mallinfo(arena+hblkhd)
        215239 MiB available memory on the node where the printing process lives
------------------
     ethr =  3.18E-09,  avg # of iterations = 21.5

     negative rho (up, down):  4.208E-04 0.000E+00

     add environment contribution to local potential

     total cpu time spent up to now is      975.5 secs

     total energy              =    -661.68939721 Ry
     estimated scf accuracy    <       0.00000322 Ry

     total charge of GC-SCF    =      -0.97862537 e
     the Fermi energy          =      -2.43971156 eV
                        (error :       0.03571156 eV)
     electrostatic embedding   =      -0.22226087 Ry
     cavitation energy         =       0.02464122 Ry
     electrolyte free energy   =      -0.00185925 Ry
     correction to one-el term =      41.00044379 Ry

     iteration # 19     ecut=    80.00 Ry     beta= 0.20
     Davidson diagonalization with overlap

---- Real-time Memory Report at c_bands before calling an iterative solver
           541 MiB given to the printing process from OS
             0 MiB allocation reported by mallinfo(arena+hblkhd)
        215270 MiB available memory on the node where the printing process lives
------------------
     ethr =  2.42E-09,  avg # of iterations = 29.1

     negative rho (up, down):  4.095E-04 0.000E+00

     add environment contribution to local potential

     total cpu time spent up to now is     1034.1 secs

     total energy              =    -661.68893796 Ry
     estimated scf accuracy    <       0.00000122 Ry

     total charge of GC-SCF    =      -1.01865208 e
     the Fermi energy          =      -2.42033511 eV
                        (error :       0.01633511 eV)
     electrostatic embedding   =      -0.26573533 Ry
     cavitation energy         =       0.02464122 Ry
     electrolyte free energy   =      -0.00218373 Ry
     correction to one-el term =      44.89283890 Ry

     iteration # 20     ecut=    80.00 Ry     beta= 0.20
     Davidson diagonalization with overlap

---- Real-time Memory Report at c_bands before calling an iterative solver
           541 MiB given to the printing process from OS
             0 MiB allocation reported by mallinfo(arena+hblkhd)
        215279 MiB available memory on the node where the printing process lives
------------------
     ethr =  9.14E-10,  avg # of iterations = 29.0

     negative rho (up, down):  3.983E-04 0.000E+00

     add environment contribution to local potential

     total cpu time spent up to now is     1087.8 secs

     total energy              =    -661.68924095 Ry
     estimated scf accuracy    <       0.00000090 Ry

     total charge of GC-SCF    =      -1.07733222 e
     the Fermi energy          =      -2.41512291 eV
                        (error :       0.01112291 eV)
     electrostatic embedding   =      -0.28128855 Ry
     cavitation energy         =       0.02464122 Ry
     electrolyte free energy   =      -0.00229668 Ry
     correction to one-el term =      46.16784372 Ry

     iteration # 21     ecut=    80.00 Ry     beta= 0.20
     Davidson diagonalization with overlap

---- Real-time Memory Report at c_bands before calling an iterative solver
           541 MiB given to the printing process from OS
             0 MiB allocation reported by mallinfo(arena+hblkhd)
        215269 MiB available memory on the node where the printing process lives
------------------
     ethr =  6.73E-10,  avg # of iterations = 28.1

     negative rho (up, down):  3.905E-04 0.000E+00

     add environment contribution to local potential

     total cpu time spent up to now is     1144.1 secs

     total energy              =    -661.68907596 Ry
     estimated scf accuracy    <       0.00000030 Ry

     total charge of GC-SCF    =      -1.10323003 e
     the Fermi energy          =      -2.40899977 eV
                        (error :       0.00499977 eV)
     electrostatic embedding   =      -0.30494388 Ry
     cavitation energy         =       0.02464122 Ry
     electrolyte free energy   =      -0.00247064 Ry
     correction to one-el term =      48.00609853 Ry

     iteration # 22     ecut=    80.00 Ry     beta= 0.20
     Davidson diagonalization with overlap

---- Real-time Memory Report at c_bands before calling an iterative solver
           541 MiB given to the printing process from OS
             0 MiB allocation reported by mallinfo(arena+hblkhd)
        215214 MiB available memory on the node where the printing process lives
------------------
     ethr =  2.23E-10,  avg # of iterations = 28.5

     negative rho (up, down):  3.858E-04 0.000E+00

     add environment contribution to local potential

     total cpu time spent up to now is     1197.6 secs

     total energy              =    -661.68905064 Ry
     estimated scf accuracy    <       0.00000011 Ry

     total charge of GC-SCF    =      -1.11833791 e
     the Fermi energy          =      -2.40670129 eV
                        (error :       0.00270129 eV)
     electrostatic embedding   =      -0.31555051 Ry
     cavitation energy         =       0.02464122 Ry
     electrolyte free energy   =      -0.00254666 Ry
     correction to one-el term =      48.78632583 Ry

     iteration # 23     ecut=    80.00 Ry     beta= 0.20
     Davidson diagonalization with overlap

---- Real-time Memory Report at c_bands before calling an iterative solver
           541 MiB given to the printing process from OS
             0 MiB allocation reported by mallinfo(arena+hblkhd)
        215225 MiB available memory on the node where the printing process lives
------------------
     ethr =  7.93E-11,  avg # of iterations = 29.0

     negative rho (up, down):  3.695E-04 0.000E+00

     total cpu time spent up to now is     1248.1 secs

     End of self-consistent calculation

          k = 0.0000 0.0000 0.0000 (250151 PWs)   bands (ev):

   -49.8950 -49.8948 -49.8948 -49.8947 -49.5611 -49.5610 -49.5610 -49.5610
   -49.0187 -49.0186 -49.0183 -49.0183 -48.9622 -48.9621 -48.9616 -48.9615
   -48.9530 -48.9489 -48.9465 -48.9465 -48.9434 -48.9399 -48.9399 -48.9373
   -48.9351 -48.9351 -48.9340 -48.9330 -48.9324 -48.9324 -48.9297 -48.9296
   -48.9266 -48.9266 -48.9265 -48.9263 -48.9245 -48.9244 -48.9238 -48.9237
   -48.9098 -48.9097 -48.9090 -48.9089  -5.8908  -5.6442  -5.2380  -4.7003
    -4.7003  -4.6821  -4.4454  -4.4454  -4.0312  -4.0244  -4.0244  -3.4480
    -3.4480  -3.3166  -2.7757  -2.7757  -2.5640  -2.4440  -2.4433  -2.1506
    -2.1076  -2.0835  -2.0835  -2.0509  -2.0509  -2.0387  -1.8460  -1.7424
    -1.7424  -1.7174  -1.6630  -1.6113  -1.3366  -1.3366  -1.1715  -1.1432
    -1.1432  -1.1336  -1.0121  -0.9726  -0.7737  -0.7737  -0.5827  -0.4319
    -0.4319  -0.3987  -0.2225  -0.1881  -0.0776   0.0465   0.1755   0.2801
     0.2801   0.3600   0.4547

     occupation numbers 
     1.0000   1.0000   1.0000   1.0000   1.0000   1.0000   1.0000   1.0000
     1.0000   1.0000   1.0000   1.0000   1.0000   1.0000   1.0000   1.0000
     1.0000   1.0000   1.0000   1.0000   1.0000   1.0000   1.0000   1.0000
     1.0000   1.0000   1.0000   1.0000   1.0000   1.0000   1.0000   1.0000
     1.0000   1.0000   1.0000   1.0000   1.0000   1.0000   1.0000   1.0000
     1.0000   1.0000   1.0000   1.0000   1.0000   1.0000   1.0000   1.0000
     1.0000   1.0000   1.0000   1.0000   1.0000   1.0000   1.0000   1.0000
     1.0000   1.0000   1.0046   1.0046   1.0663   0.6144   0.6105   0.0007
     0.0001   0.0000   0.0000   0.0000   0.0000   0.0000   0.0000   0.0000
     0.0000   0.0000   0.0000   0.0000   0.0000   0.0000   0.0000   0.0000
     0.0000   0.0000   0.0000   0.0000   0.0000   0.0000   0.0000   0.0000
     0.0000   0.0000   0.0000   0.0000   0.0000   0.0000   0.0000   0.0000
     0.0000   0.0000   0.0000

          k = 0.0000 0.1421 0.0000 (249995 PWs)   bands (ev):

   -49.8950 -49.8948 -49.8948 -49.8947 -49.5611 -49.5610 -49.5610 -49.5610
   -49.0187 -49.0186 -49.0183 -49.0183 -48.9622 -48.9621 -48.9616 -48.9615
   -48.9528 -48.9488 -48.9464 -48.9464 -48.9434 -48.9398 -48.9398 -48.9375
   -48.9351 -48.9351 -48.9344 -48.9328 -48.9324 -48.9324 -48.9297 -48.9296
   -48.9268 -48.9266 -48.9266 -48.9262 -48.9245 -48.9243 -48.9238 -48.9237
   -48.9098 -48.9097 -48.9090 -48.9089  -5.8668  -5.6200  -5.2136  -4.6760
    -4.6760  -4.6574  -4.4211  -4.4211  -4.0063  -4.0002  -4.0002  -3.4245
    -3.4245  -3.2928  -2.9864  -2.7543  -2.7543  -2.7383  -2.4251  -2.3164
    -2.1790  -2.1790  -2.0668  -2.0668  -2.0071  -1.8783  -1.8783  -1.8510
    -1.7917  -1.6859  -1.6782  -1.4492  -1.4384  -1.4384  -1.2509  -1.2509
    -1.1628  -1.1402  -1.0101  -0.7907  -0.7907  -0.7306  -0.5933  -0.3676
    -0.3466  -0.3466  -0.1951  -0.1463  -0.0350   0.0705   0.1832   0.1832
     0.1921   0.3735   0.4978

     occupation numbers 
     1.0000   1.0000   1.0000   1.0000   1.0000   1.0000   1.0000   1.0000
     1.0000   1.0000   1.0000   1.0000   1.0000   1.0000   1.0000   1.0000
     1.0000   1.0000   1.0000   1.0000   1.0000   1.0000   1.0000   1.0000
     1.0000   1.0000   1.0000   1.0000   1.0000   1.0000   1.0000   1.0000
     1.0000   1.0000   1.0000   1.0000   1.0000   1.0000   1.0000   1.0000
     1.0000   1.0000   1.0000   1.0000   1.0000   1.0000   1.0000   1.0000
     1.0000   1.0000   1.0000   1.0000   1.0000   1.0000   1.0000   1.0000
     1.0000   1.0000   1.0000   1.0081   1.0081   1.0121   0.5098   0.0917
     0.0019   0.0019   0.0000   0.0000   0.0000   0.0000   0.0000   0.0000
     0.0000   0.0000   0.0000   0.0000   0.0000   0.0000   0.0000   0.0000
     0.0000   0.0000   0.0000   0.0000   0.0000   0.0000   0.0000   0.0000
     0.0000   0.0000   0.0000   0.0000   0.0000   0.0000   0.0000   0.0000
     0.0000   0.0000   0.0000

          k = 0.0000 0.2843 0.0000 (249899 PWs)   bands (ev):

   -49.8950 -49.8948 -49.8948 -49.8947 -49.5611 -49.5610 -49.5610 -49.5610
   -49.0187 -49.0185 -49.0182 -49.0182 -48.9622 -48.9621 -48.9616 -48.9615
   -48.9523 -48.9486 -48.9463 -48.9463 -48.9433 -48.9397 -48.9397 -48.9380
   -48.9353 -48.9352 -48.9352 -48.9325 -48.9323 -48.9323 -48.9299 -48.9296
   -48.9271 -48.9270 -48.9267 -48.9260 -48.9243 -48.9242 -48.9239 -48.9237
   -48.9098 -48.9097 -48.9089 -48.9088  -5.7946  -5.5475  -5.1404  -4.6031
    -4.6031  -4.5834  -4.3482  -4.3482  -3.9319  -3.9278  -3.9278  -3.4798
    -3.3541  -3.3541  -3.2323  -3.2115  -2.7968  -2.6911  -2.6911  -2.4746
    -2.4746  -2.3707  -2.2115  -2.1957  -2.1957  -2.0328  -2.0328  -1.9123
    -1.7585  -1.7541  -1.7541  -1.5914  -1.5130  -1.4031  -1.4031  -1.1966
    -1.0461  -0.9469  -0.8685  -0.8685  -0.8628  -0.5678  -0.4191  -0.2765
    -0.2765  -0.2744  -0.1027  -0.0334  -0.0334  -0.0333   0.1047   0.1572
     0.3447   0.3897   0.5335

     occupation numbers 
     1.0000   1.0000   1.0000   1.0000   1.0000   1.0000   1.0000   1.0000
     1.0000   1.0000   1.0000   1.0000   1.0000   1.0000   1.0000   1.0000
     1.0000   1.0000   1.0000   1.0000   1.0000   1.0000   1.0000   1.0000
     1.0000   1.0000   1.0000   1.0000   1.0000   1.0000   1.0000   1.0000
     1.0000   1.0000   1.0000   1.0000   1.0000   1.0000   1.0000   1.0000
     1.0000   1.0000   1.0000   1.0000   1.0000   1.0000   1.0000   1.0000
     1.0000   1.0000   1.0000   1.0000   1.0000   1.0000   1.0000   1.0000
     1.0000   1.0000   1.0000   1.0000   1.0024   1.0323   1.0323   0.7788
     0.7787   0.2493   0.0057   0.0034   0.0034   0.0000   0.0000   0.0000
     0.0000   0.0000   0.0000   0.0000   0.0000   0.0000   0.0000   0.0000
     0.0000   0.0000   0.0000   0.0000   0.0000   0.0000   0.0000   0.0000
     0.0000   0.0000   0.0000   0.0000   0.0000   0.0000   0.0000   0.0000
     0.0000   0.0000   0.0000

          k = 0.0000 0.4264 0.0000 (249905 PWs)   bands (ev):

   -49.8950 -49.8948 -49.8948 -49.8947 -49.5611 -49.5610 -49.5610 -49.5610
   -49.0187 -49.0185 -49.0182 -49.0182 -48.9622 -48.9622 -48.9616 -48.9615
   -48.9515 -48.9482 -48.9461 -48.9461 -48.9432 -48.9395 -48.9395 -48.9390
   -48.9359 -48.9355 -48.9355 -48.9322 -48.9322 -48.9321 -48.9301 -48.9296
   -48.9275 -48.9274 -48.9267 -48.9257 -48.9242 -48.9241 -48.9239 -48.9237
   -48.9098 -48.9097 -48.9089 -48.9087  -5.6742  -5.4265  -5.0184  -4.4819
    -4.4819  -4.4601  -4.2270  -4.2270  -3.9351  -3.8102  -3.8076  -3.8076
    -3.6753  -3.2566  -3.2377  -3.2377  -3.1002  -2.8338  -2.8338  -2.6821
    -2.5996  -2.5996  -2.5524  -2.5524  -2.2830  -2.1628  -2.1628  -1.9867
    -1.9689  -1.9689  -1.7544  -1.6571  -1.6291  -1.6291  -1.4340  -1.1686
    -0.9718  -0.9718  -0.8895  -0.6694  -0.5743  -0.3434  -0.3434  -0.2880
    -0.1608  -0.1606  -0.1606  -0.1194   0.0900   0.1525   0.2841   0.3018
     0.3805   0.5142   0.5501

     occupation numbers 
     1.0000   1.0000   1.0000   1.0000   1.0000   1.0000   1.0000   1.0000
     1.0000   1.0000   1.0000   1.0000   1.0000   1.0000   1.0000   1.0000
     1.0000   1.0000   1.0000   1.0000   1.0000   1.0000   1.0000   1.0000
     1.0000   1.0000   1.0000   1.0000   1.0000   1.0000   1.0000   1.0000
     1.0000   1.0000   1.0000   1.0000   1.0000   1.0000   1.0000   1.0000
     1.0000   1.0000   1.0000   1.0000   1.0000   1.0000   1.0000   1.0000
     1.0000   1.0000   1.0000   1.0000   1.0000   1.0000   1.0000   1.0000
     1.0000   1.0000   1.0000   1.0000   1.0000   1.0007   1.0007   1.0376
     1.0832   1.0832   1.0500   1.0500   0.0429   0.0011   0.0011   0.0000
     0.0000   0.0000   0.0000   0.0000   0.0000   0.0000   0.0000   0.0000
     0.0000   0.0000   0.0000   0.0000   0.0000   0.0000   0.0000   0.0000
     0.0000   0.0000   0.0000   0.0000   0.0000   0.0000   0.0000   0.0000
     0.0000   0.0000   0.0000

          k = 0.0000 0.5685 0.0000 (249832 PWs)   bands (ev):

   -49.8950 -49.8948 -49.8948 -49.8947 -49.5611 -49.5610 -49.5610 -49.5610
   -49.0186 -49.0184 -49.0182 -49.0182 -48.9622 -48.9622 -48.9616 -48.9615
   -48.9506 -48.9479 -48.9459 -48.9459 -48.9431 -48.9401 -48.9393 -48.9393
   -48.9365 -48.9358 -48.9357 -48.9320 -48.9319 -48.9319 -48.9304 -48.9296
   -48.9280 -48.9279 -48.9267 -48.9255 -48.9241 -48.9240 -48.9239 -48.9236
   -48.9099 -48.9098 -48.9088 -48.9087  -5.5055  -5.2569  -4.8474  -4.3469
    -4.3130  -4.3130  -4.2857  -4.0914  -4.0579  -4.0579  -3.6722  -3.6400
    -3.6400  -3.6292  -3.1962  -3.1962  -3.0977  -3.0760  -3.0760  -2.9397
    -2.9324  -2.9324  -2.5365  -2.5365  -2.4661  -2.4323  -2.4323  -2.0828
    -2.0804  -2.0804  -1.7867  -1.7867  -1.7721  -1.5336  -1.2966  -1.2141
    -1.1079  -1.1079  -0.7729  -0.6707  -0.4418  -0.4418  -0.2376  -0.1989
    -0.1989  -0.0182  -0.0129   0.0976   0.1726   0.2918   0.2980   0.3267
     0.3908   0.5062   0.6044

     occupation numbers 
     1.0000   1.0000   1.0000   1.0000   1.0000   1.0000   1.0000   1.0000
     1.0000   1.0000   1.0000   1.0000   1.0000   1.0000   1.0000   1.0000
     1.0000   1.0000   1.0000   1.0000   1.0000   1.0000   1.0000   1.0000
     1.0000   1.0000   1.0000   1.0000   1.0000   1.0000   1.0000   1.0000
     1.0000   1.0000   1.0000   1.0000   1.0000   1.0000   1.0000   1.0000
     1.0000   1.0000   1.0000   1.0000   1.0000   1.0000   1.0000   1.0000
     1.0000   1.0000   1.0000   1.0000   1.0000   1.0000   1.0000   1.0000
     1.0000   1.0000   1.0000   1.0000   1.0000   1.0000   1.0000   1.0000
     1.0000   1.0000   1.0178   1.0178   0.7347   0.5492   0.5492   0.0000
     0.0000   0.0000   0.0000   0.0000   0.0000   0.0000   0.0000   0.0000
     0.0000   0.0000   0.0000   0.0000   0.0000   0.0000   0.0000   0.0000
     0.0000   0.0000   0.0000   0.0000   0.0000   0.0000   0.0000   0.0000
     0.0000   0.0000   0.0000

          k = 0.0000 0.7107 0.0000 (249892 PWs)   bands (ev):

   -49.8950 -49.8948 -49.8948 -49.8947 -49.5611 -49.5610 -49.5610 -49.5610
   -49.0186 -49.0184 -49.0181 -49.0181 -48.9623 -48.9622 -48.9616 -48.9615
   -48.9497 -48.9476 -48.9458 -48.9457 -48.9431 -48.9410 -48.9391 -48.9391
   -48.9369 -48.9360 -48.9360 -48.9318 -48.9317 -48.9316 -48.9308 -48.9297
   -48.9284 -48.9283 -48.9268 -48.9254 -48.9241 -48.9239 -48.9239 -48.9236
   -48.9099 -48.9098 -48.9087 -48.9086  -5.2883  -5.0386  -4.7080  -4.6278
    -4.4550  -4.0975  -4.0975  -4.0767  -4.0252  -3.8423  -3.8423  -3.5334
    -3.5334  -3.4737  -3.4276  -3.4276  -3.4027  -3.2731  -3.2731  -2.8884
    -2.8884  -2.8448  -2.8448  -2.8274  -2.7316  -2.3598  -2.3598  -2.2760
    -2.2760  -2.1375  -1.8474  -1.8448  -1.8448  -1.3112  -1.2507  -1.2116
    -1.2116  -0.9327  -0.8756  -0.5289  -0.5289  -0.4883  -0.3900  -0.3314
    -0.1884  -0.1884  -0.1740   0.1488   0.3592   0.3758   0.4593   0.5075
     0.6162   0.6775   0.7266

     occupation numbers 
     1.0000   1.0000   1.0000   1.0000   1.0000   1.0000   1.0000   1.0000
     1.0000   1.0000   1.0000   1.0000   1.0000   1.0000   1.0000   1.0000
     1.0000   1.0000   1.0000   1.0000   1.0000   1.0000   1.0000   1.0000
     1.0000   1.0000   1.0000   1.0000   1.0000   1.0000   1.0000   1.0000
     1.0000   1.0000   1.0000   1.0000   1.0000   1.0000   1.0000   1.0000
     1.0000   1.0000   1.0000   1.0000   1.0000   1.0000   1.0000   1.0000
     1.0000   1.0000   1.0000   1.0000   1.0000   1.0000   1.0000   1.0000
     1.0000   1.0000   1.0000   1.0000   1.0000   1.0000   1.0000   1.0001
     1.0001   1.0005   1.0005   1.0009   1.0141   0.2087   0.2087   0.0360
     0.0360   0.0004   0.0000   0.0000   0.0000   0.0000   0.0000   0.0000
     0.0000   0.0000   0.0000   0.0000   0.0000   0.0000   0.0000   0.0000
     0.0000   0.0000   0.0000   0.0000   0.0000   0.0000   0.0000   0.0000
     0.0000   0.0000   0.0000

          k = 0.0000-0.8528 0.0000 (249810 PWs)   bands (ev):

   -49.8950 -49.8948 -49.8948 -49.8947 -49.5611 -49.5610 -49.5610 -49.5610
   -49.0186 -49.0184 -49.0181 -49.0181 -48.9623 -48.9622 -48.9616 -48.9615
   -48.9493 -48.9475 -48.9457 -48.9457 -48.9432 -48.9414 -48.9390 -48.9390
   -48.9371 -48.9361 -48.9361 -48.9317 -48.9316 -48.9313 -48.9312 -48.9297
   -48.9285 -48.9284 -48.9268 -48.9254 -48.9240 -48.9239 -48.9239 -48.9235
   -48.9099 -48.9098 -48.9087 -48.9086  -5.0270  -5.0178  -4.7776  -4.7655
    -4.3705  -4.3448  -3.8501  -3.8501  -3.8236  -3.8236  -3.8119  -3.7684
    -3.5933  -3.5933  -3.5668  -3.5668  -3.1826  -3.1826  -3.1693  -3.1477
    -3.1477  -3.1011  -2.6576  -2.6576  -2.6054  -2.5892  -2.5892  -2.2827
    -2.1980  -2.1980  -1.8980  -1.8980  -1.7920  -1.3490  -1.2380  -1.2380
    -0.9453  -0.8765  -0.8600  -0.6167  -0.5735  -0.5735  -0.5489  -0.4142
    -0.1692  -0.1692  -0.0850  -0.0028   0.1964   0.4993   0.6543   0.7548
     0.7744   0.7779   0.8047

     occupation numbers 
     1.0000   1.0000   1.0000   1.0000   1.0000   1.0000   1.0000   1.0000
     1.0000   1.0000   1.0000   1.0000   1.0000   1.0000   1.0000   1.0000
     1.0000   1.0000   1.0000   1.0000   1.0000   1.0000   1.0000   1.0000
     1.0000   1.0000   1.0000   1.0000   1.0000   1.0000   1.0000   1.0000
     1.0000   1.0000   1.0000   1.0000   1.0000   1.0000   1.0000   1.0000
     1.0000   1.0000   1.0000   1.0000   1.0000   1.0000   1.0000   1.0000
     1.0000   1.0000   1.0000   1.0000   1.0000   1.0000   1.0000   1.0000
     1.0000   1.0000   1.0000   1.0000   1.0000   1.0000   1.0000   1.0000
     1.0000   1.0000   1.0539   1.0539   1.0824   1.0825   1.0825   0.0425
     0.0037   0.0037   0.0000   0.0000   0.0000   0.0000   0.0000   0.0000
     0.0000   0.0000   0.0000   0.0000   0.0000   0.0000   0.0000   0.0000
     0.0000   0.0000   0.0000   0.0000   0.0000   0.0000   0.0000   0.0000
     0.0000   0.0000   0.0000

          k = 0.1429 0.0000 0.0000 (249958 PWs)   bands (ev):

   -49.8950 -49.8948 -49.8948 -49.8947 -49.5611 -49.5610 -49.5610 -49.5610
   -49.0187 -49.0186 -49.0183 -49.0183 -48.9622 -48.9621 -48.9617 -48.9615
   -48.9528 -48.9487 -48.9474 -48.9462 -48.9433 -48.9407 -48.9388 -48.9372
   -48.9356 -48.9345 -48.9340 -48.9332 -48.9326 -48.9319 -48.9298 -48.9297
   -48.9266 -48.9266 -48.9265 -48.9263 -48.9245 -48.9243 -48.9239 -48.9238
   -48.9097 -48.9096 -48.9090 -48.9089  -5.8665  -5.6197  -5.2132  -5.0154
    -4.7629  -4.6568  -4.3458  -4.3389  -4.0810  -4.0053  -3.7757  -3.6533
    -3.2905  -3.1228  -3.0547  -2.5478  -2.4438  -2.4256  -2.4175  -2.3492
    -2.1977  -2.1314  -2.1267  -2.0967  -2.0242  -1.8884  -1.8435  -1.8193
    -1.8018  -1.6916  -1.6451  -1.5992  -1.4716  -1.3703  -1.3017  -1.2433
    -1.1202  -1.0065  -0.9923  -0.9550  -0.8697  -0.7347  -0.6296  -0.5719
    -0.5711  -0.2483  -0.1951  -0.1575  -0.0507   0.0765   0.1519   0.1623
     0.2158   0.3479   0.4159

     occupation numbers 
     1.0000   1.0000   1.0000   1.0000   1.0000   1.0000   1.0000   1.0000
     1.0000   1.0000   1.0000   1.0000   1.0000   1.0000   1.0000   1.0000
     1.0000   1.0000   1.0000   1.0000   1.0000   1.0000   1.0000   1.0000
     1.0000   1.0000   1.0000   1.0000   1.0000   1.0000   1.0000   1.0000
     1.0000   1.0000   1.0000   1.0000   1.0000   1.0000   1.0000   1.0000
     1.0000   1.0000   1.0000   1.0000   1.0000   1.0000   1.0000   1.0000
     1.0000   1.0000   1.0000   1.0000   1.0000   1.0000   1.0000   1.0000
     1.0000   1.0000   1.0000   1.0420   0.6130   0.5126   0.4693   0.1736
     0.0036   0.0003   0.0003   0.0001   0.0000   0.0000   0.0000   0.0000
     0.0000   0.0000   0.0000   0.0000   0.0000   0.0000   0.0000   0.0000
     0.0000   0.0000   0.0000   0.0000   0.0000   0.0000   0.0000   0.0000
     0.0000   0.0000   0.0000   0.0000   0.0000   0.0000   0.0000   0.0000
     0.0000   0.0000   0.0000

          k = 0.1429 0.1421 0.0000 (250021 PWs)   bands (ev):

   -49.8950 -49.8948 -49.8948 -49.8947 -49.5611 -49.5610 -49.5610 -49.5610
   -49.0187 -49.0186 -49.0183 -49.0183 -48.9622 -48.9621 -48.9616 -48.9615
   -48.9526 -48.9487 -48.9473 -48.9462 -48.9433 -48.9406 -48.9387 -48.9374
   -48.9357 -48.9346 -48.9344 -48.9330 -48.9325 -48.9319 -48.9298 -48.9297
   -48.9267 -48.9266 -48.9266 -48.9262 -48.9244 -48.9243 -48.9239 -48.9238
   -48.9097 -48.9096 -48.9090 -48.9089  -5.8425  -5.5956  -5.1888  -4.9912
    -4.7386  -4.6322  -4.3216  -4.3143  -4.0565  -3.9805  -3.7518  -3.6292
    -3.2668  -3.0997  -3.0321  -2.9672  -2.7181  -2.4250  -2.3993  -2.3610
    -2.3268  -2.2952  -2.1662  -2.0750  -2.0119  -1.8586  -1.8294  -1.7928
    -1.7818  -1.7029  -1.6577  -1.6299  -1.4498  -1.4026  -1.3365  -1.2494
    -1.1767  -1.1405  -1.0062  -0.8955  -0.7293  -0.6998  -0.6404  -0.5379
    -0.4912  -0.2006  -0.1721  -0.1210  -0.0267   0.0515   0.0973   0.1328
     0.3244   0.3587   0.3907

     occupation numbers 
     1.0000   1.0000   1.0000   1.0000   1.0000   1.0000   1.0000   1.0000
     1.0000   1.0000   1.0000   1.0000   1.0000   1.0000   1.0000   1.0000
     1.0000   1.0000   1.0000   1.0000   1.0000   1.0000   1.0000   1.0000
     1.0000   1.0000   1.0000   1.0000   1.0000   1.0000   1.0000   1.0000
     1.0000   1.0000   1.0000   1.0000   1.0000   1.0000   1.0000   1.0000
     1.0000   1.0000   1.0000   1.0000   1.0000   1.0000   1.0000   1.0000
     1.0000   1.0000   1.0000   1.0000   1.0000   1.0000   1.0000   1.0000
     1.0000   1.0000   1.0000   1.0000   1.0191   0.5095   0.3759   0.2131
     0.1135   0.0574   0.0012   0.0000   0.0000   0.0000   0.0000   0.0000
     0.0000   0.0000   0.0000   0.0000   0.0000   0.0000   0.0000   0.0000
     0.0000   0.0000   0.0000   0.0000   0.0000   0.0000   0.0000   0.0000
     0.0000   0.0000   0.0000   0.0000   0.0000   0.0000   0.0000   0.0000
     0.0000   0.0000   0.0000

          k = 0.1429 0.2843 0.0000 (249968 PWs)   bands (ev):

   -49.8950 -49.8948 -49.8948 -49.8947 -49.5611 -49.5610 -49.5610 -49.5610
   -49.0187 -49.0185 -49.0182 -49.0182 -48.9622 -48.9621 -48.9616 -48.9615
   -48.9521 -48.9484 -48.9471 -48.9461 -48.9432 -48.9406 -48.9386 -48.9380
   -48.9358 -48.9352 -48.9349 -48.9327 -48.9324 -48.9319 -48.9299 -48.9297
   -48.9271 -48.9269 -48.9267 -48.9260 -48.9243 -48.9242 -48.9239 -48.9238
   -48.9097 -48.9096 -48.9090 -48.9089  -5.7703  -5.5230  -5.1157  -4.9187
    -4.6659  -4.5582  -4.2491  -4.2408  -3.9832  -3.9062  -3.6802  -3.5571
    -3.4585  -3.2089  -3.1872  -3.0312  -2.9644  -2.7744  -2.7297  -2.4562
    -2.3668  -2.3455  -2.2804  -2.1917  -2.1891  -2.0754  -2.0292  -1.9194
    -1.7676  -1.7656  -1.7330  -1.5110  -1.4944  -1.4927  -1.4042  -1.2573
    -1.2157  -0.9431  -0.9177  -0.8693  -0.7936  -0.6798  -0.4255  -0.4153
    -0.4021  -0.1903  -0.1263  -0.0894   0.0020   0.1451   0.1781   0.2112
     0.2920   0.3997   0.5419

     occupation numbers 
     1.0000   1.0000   1.0000   1.0000   1.0000   1.0000   1.0000   1.0000
     1.0000   1.0000   1.0000   1.0000   1.0000   1.0000   1.0000   1.0000
     1.0000   1.0000   1.0000   1.0000   1.0000   1.0000   1.0000   1.0000
     1.0000   1.0000   1.0000   1.0000   1.0000   1.0000   1.0000   1.0000
     1.0000   1.0000   1.0000   1.0000   1.0000   1.0000   1.0000   1.0000
     1.0000   1.0000   1.0000   1.0000   1.0000   1.0000   1.0000   1.0000
     1.0000   1.0000   1.0000   1.0000   1.0000   1.0000   1.0000   1.0000
     1.0000   1.0000   1.0000   1.0000   1.0000   1.0047   1.0148   0.6813
     0.2343   0.1625   0.0402   0.0030   0.0027   0.0000   0.0000   0.0000
     0.0000   0.0000   0.0000   0.0000   0.0000   0.0000   0.0000   0.0000
     0.0000   0.0000   0.0000   0.0000   0.0000   0.0000   0.0000   0.0000
     0.0000   0.0000   0.0000   0.0000   0.0000   0.0000   0.0000   0.0000
     0.0000   0.0000   0.0000

          k = 0.1429 0.4264 0.0000 (249855 PWs)   bands (ev):

   -49.8950 -49.8948 -49.8948 -49.8947 -49.5611 -49.5610 -49.5610 -49.5610
   -49.0186 -49.0185 -49.0182 -49.0182 -48.9622 -48.9621 -48.9616 -48.9615
   -48.9513 -48.9481 -48.9468 -48.9459 -48.9431 -48.9404 -48.9389 -48.9384
   -48.9361 -48.9359 -48.9351 -48.9324 -48.9321 -48.9318 -48.9302 -48.9297
   -48.9275 -48.9274 -48.9267 -48.9258 -48.9242 -48.9241 -48.9239 -48.9237
   -48.9098 -48.9097 -48.9089 -48.9088  -5.6499  -5.4020  -4.9937  -4.7979
    -4.5450  -4.4350  -4.1284  -4.1187  -3.9125  -3.8614  -3.7848  -3.6523
    -3.5613  -3.4375  -3.2335  -3.1233  -3.0745  -2.9229  -2.8576  -2.8453
    -2.6590  -2.5044  -2.4401  -2.2712  -2.2586  -2.2355  -2.1988  -1.9643
    -1.9460  -1.9249  -1.8227  -1.6886  -1.6347  -1.6181  -1.5039  -1.1823
    -1.0926  -1.0340  -0.9253  -0.7359  -0.6686  -0.4199  -0.4036  -0.3101
    -0.3033  -0.1655  -0.1054   0.0475   0.0733   0.1612   0.2190   0.3160
     0.4266   0.5528   0.6097

     occupation numbers 
     1.0000   1.0000   1.0000   1.0000   1.0000   1.0000   1.0000   1.0000
     1.0000   1.0000   1.0000   1.0000   1.0000   1.0000   1.0000   1.0000
     1.0000   1.0000   1.0000   1.0000   1.0000   1.0000   1.0000   1.0000
     1.0000   1.0000   1.0000   1.0000   1.0000   1.0000   1.0000   1.0000
     1.0000   1.0000   1.0000   1.0000   1.0000   1.0000   1.0000   1.0000
     1.0000   1.0000   1.0000   1.0000   1.0000   1.0000   1.0000   1.0000
     1.0000   1.0000   1.0000   1.0000   1.0000   1.0000   1.0000   1.0000
     1.0000   1.0000   1.0000   1.0000   1.0000   1.0000   1.0003   1.0005
     1.0530   0.9146   0.5923   0.0319   0.0228   0.0119   0.0038   0.0000
     0.0000   0.0000   0.0000   0.0000   0.0000   0.0000   0.0000   0.0000
     0.0000   0.0000   0.0000   0.0000   0.0000   0.0000   0.0000   0.0000
     0.0000   0.0000   0.0000   0.0000   0.0000   0.0000   0.0000   0.0000
     0.0000   0.0000   0.0000

          k = 0.1429 0.5685 0.0000 (249790 PWs)   bands (ev):

   -49.8950 -49.8948 -49.8948 -49.8947 -49.5611 -49.5610 -49.5610 -49.5610
   -49.0186 -49.0184 -49.0182 -49.0182 -48.9622 -48.9621 -48.9616 -48.9615
   -48.9504 -48.9478 -48.9464 -48.9458 -48.9430 -48.9402 -48.9400 -48.9383
   -48.9365 -48.9365 -48.9351 -48.9321 -48.9319 -48.9317 -48.9305 -48.9297
   -48.9280 -48.9278 -48.9268 -48.9256 -48.9241 -48.9240 -48.9239 -48.9237
   -48.9098 -48.9097 -48.9088 -48.9087  -5.4812  -5.2325  -4.8228  -4.6294
    -4.3760  -4.3234  -4.2608  -4.0678  -3.9598  -3.9490  -3.6925  -3.6486
    -3.6039  -3.5006  -3.3956  -3.2779  -3.2321  -3.0740  -2.9143  -2.8450
    -2.8294  -2.7495  -2.7020  -2.5802  -2.4426  -2.2941  -2.2098  -2.1634
    -2.0722  -2.0601  -1.7718  -1.7547  -1.7139  -1.6942  -1.4165  -1.2893
    -1.1656  -1.0157  -0.9297  -0.7846  -0.4948  -0.4805  -0.3994  -0.2855
    -0.1958  -0.1848  -0.0757  -0.0552   0.1561   0.2857   0.3659   0.4268
     0.5370   0.5551   0.6471

     occupation numbers 
     1.0000   1.0000   1.0000   1.0000   1.0000   1.0000   1.0000   1.0000
     1.0000   1.0000   1.0000   1.0000   1.0000   1.0000   1.0000   1.0000
     1.0000   1.0000   1.0000   1.0000   1.0000   1.0000   1.0000   1.0000
     1.0000   1.0000   1.0000   1.0000   1.0000   1.0000   1.0000   1.0000
     1.0000   1.0000   1.0000   1.0000   1.0000   1.0000   1.0000   1.0000
     1.0000   1.0000   1.0000   1.0000   1.0000   1.0000   1.0000   1.0000
     1.0000   1.0000   1.0000   1.0000   1.0000   1.0000   1.0000   1.0000
     1.0000   1.0000   1.0000   1.0000   1.0000   1.0000   1.0000   1.0005
     1.0008   1.0092   1.0264   1.0793   0.6063   0.0559   0.0054   0.0011
     0.0000   0.0000   0.0000   0.0000   0.0000   0.0000   0.0000   0.0000
     0.0000   0.0000   0.0000   0.0000   0.0000   0.0000   0.0000   0.0000
     0.0000   0.0000   0.0000   0.0000   0.0000   0.0000   0.0000   0.0000
     0.0000   0.0000   0.0000

          k = 0.1429 0.7107 0.0000 (249841 PWs)   bands (ev):

   -49.8950 -49.8948 -49.8948 -49.8947 -49.5611 -49.5610 -49.5610 -49.5610
   -49.0186 -49.0184 -49.0182 -49.0181 -48.9622 -48.9621 -48.9616 -48.9615
   -48.9496 -48.9475 -48.9462 -48.9457 -48.9430 -48.9409 -48.9399 -48.9384
   -48.9369 -48.9368 -48.9351 -48.9319 -48.9317 -48.9314 -48.9309 -48.9297
   -48.9284 -48.9280 -48.9269 -48.9255 -48.9241 -48.9239 -48.9239 -48.9236
   -48.9098 -48.9097 -48.9088 -48.9087  -5.2641  -5.0143  -4.6842  -4.6032
    -4.4310  -4.4137  -4.1597  -4.0520  -4.0009  -3.8472  -3.7443  -3.7325
    -3.5895  -3.4752  -3.4496  -3.3776  -3.1996  -3.1735  -3.1543  -3.0574
    -2.9141  -2.8035  -2.7062  -2.6441  -2.5559  -2.5109  -2.4925  -2.1487
    -2.1190  -2.1164  -1.8613  -1.8311  -1.8282  -1.4509  -1.3161  -1.2911
    -1.1435  -1.0391  -0.9044  -0.7767  -0.6607  -0.5571  -0.5006  -0.4544
    -0.2757  -0.1687  -0.1550   0.0023   0.1324   0.2666   0.5599   0.6774
     0.7487   0.7654   0.7883

     occupation numbers 
     1.0000   1.0000   1.0000   1.0000   1.0000   1.0000   1.0000   1.0000
     1.0000   1.0000   1.0000   1.0000   1.0000   1.0000   1.0000   1.0000
     1.0000   1.0000   1.0000   1.0000   1.0000   1.0000   1.0000   1.0000
     1.0000   1.0000   1.0000   1.0000   1.0000   1.0000   1.0000   1.0000
     1.0000   1.0000   1.0000   1.0000   1.0000   1.0000   1.0000   1.0000
     1.0000   1.0000   1.0000   1.0000   1.0000   1.0000   1.0000   1.0000
     1.0000   1.0000   1.0000   1.0000   1.0000   1.0000   1.0000   1.0000
     1.0000   1.0000   1.0000   1.0000   1.0000   1.0000   1.0000   1.0000
     1.0000   1.0020   1.0243   1.0632   1.0556   0.9397   0.8644   0.0006
     0.0002   0.0002   0.0000   0.0000   0.0000   0.0000   0.0000   0.0000
     0.0000   0.0000   0.0000   0.0000   0.0000   0.0000   0.0000   0.0000
     0.0000   0.0000   0.0000   0.0000   0.0000   0.0000   0.0000   0.0000
     0.0000   0.0000   0.0000

          k = 0.1429-0.8528 0.0000 (249868 PWs)   bands (ev):

   -49.8950 -49.8948 -49.8948 -49.8947 -49.5611 -49.5610 -49.5610 -49.5610
   -49.0186 -49.0184 -49.0181 -49.0181 -48.9622 -48.9621 -48.9616 -48.9615
   -48.9492 -48.9474 -48.9461 -48.9456 -48.9431 -48.9413 -48.9398 -48.9384
   -48.9371 -48.9369 -48.9351 -48.9319 -48.9313 -48.9313 -48.9313 -48.9297
   -48.9285 -48.9281 -48.9269 -48.9255 -48.9241 -48.9239 -48.9239 -48.9236
   -48.9098 -48.9097 -48.9088 -48.9087  -5.0030  -4.9936  -4.7534  -4.7412
    -4.3461  -4.3204  -4.1597  -4.1443  -3.9049  -3.8893  -3.7874  -3.7440
    -3.4963  -3.4824  -3.4684  -3.4615  -3.2210  -3.2056  -3.1439  -3.0776
    -2.9455  -2.9067  -2.8138  -2.7926  -2.5788  -2.3431  -2.3322  -2.3080
    -2.2807  -2.2636  -1.8620  -1.8237  -1.7765  -1.3573  -1.3496  -1.1715
    -1.0969  -1.0447  -0.8947  -0.8601  -0.8072  -0.5659  -0.5131  -0.4877
    -0.3245  -0.1764  -0.1706  -0.1505   0.1959   0.3578   0.5919   0.6398
     0.8213   0.8589   0.9225

     occupation numbers 
     1.0000   1.0000   1.0000   1.0000   1.0000   1.0000   1.0000   1.0000
     1.0000   1.0000   1.0000   1.0000   1.0000   1.0000   1.0000   1.0000
     1.0000   1.0000   1.0000   1.0000   1.0000   1.0000   1.0000   1.0000
     1.0000   1.0000   1.0000   1.0000   1.0000   1.0000   1.0000   1.0000
     1.0000   1.0000   1.0000   1.0000   1.0000   1.0000   1.0000   1.0000
     1.0000   1.0000   1.0000   1.0000   1.0000   1.0000   1.0000   1.0000
     1.0000   1.0000   1.0000   1.0000   1.0000   1.0000   1.0000   1.0000
     1.0000   1.0000   1.0000   1.0000   1.0000   1.0000   1.0000   1.0000
     1.0000   1.0000   1.0014   1.0028   1.0786   0.1556   0.1264   0.0766
     0.0405   0.0262   0.0000   0.0000   0.0000   0.0000   0.0000   0.0000
     0.0000   0.0000   0.0000   0.0000   0.0000   0.0000   0.0000   0.0000
     0.0000   0.0000   0.0000   0.0000   0.0000   0.0000   0.0000   0.0000
     0.0000   0.0000   0.0000

          k = 0.2857 0.0000 0.0000 (249912 PWs)   bands (ev):

   -49.8950 -49.8948 -49.8948 -49.8947 -49.5611 -49.5610 -49.5610 -49.5610
   -49.0187 -49.0185 -49.0183 -49.0183 -48.9621 -48.9620 -48.9617 -48.9616
   -48.9522 -48.9486 -48.9483 -48.9465 -48.9430 -48.9413 -48.9376 -48.9371
   -48.9360 -48.9342 -48.9340 -48.9338 -48.9322 -48.9314 -48.9302 -48.9299
   -48.9266 -48.9266 -48.9265 -48.9264 -48.9244 -48.9243 -48.9239 -48.9239
   -48.9096 -48.9095 -48.9091 -48.9090  -5.7936  -5.5463  -5.2828  -5.1389
    -5.0321  -4.6183  -4.5811  -4.0513  -3.9344  -3.9278  -3.6728  -3.3876
    -3.2400  -3.2124  -2.6737  -2.6497  -2.5730  -2.5006  -2.3714  -2.3414
    -2.2824  -2.2252  -2.0738  -2.0712  -2.0698  -1.9829  -1.9292  -1.8551
    -1.8058  -1.7455  -1.7390  -1.5862  -1.5718  -1.4562  -1.2957  -1.2079
    -1.1924  -1.1050  -1.0222  -0.9571  -0.9181  -0.8202  -0.7719  -0.5839
    -0.4584  -0.3148  -0.3020  -0.1165  -0.0934  -0.0177   0.0868   0.1655
     0.1862   0.3213   0.3631

     occupation numbers 
     1.0000   1.0000   1.0000   1.0000   1.0000   1.0000   1.0000   1.0000
     1.0000   1.0000   1.0000   1.0000   1.0000   1.0000   1.0000   1.0000
     1.0000   1.0000   1.0000   1.0000   1.0000   1.0000   1.0000   1.0000
     1.0000   1.0000   1.0000   1.0000   1.0000   1.0000   1.0000   1.0000
     1.0000   1.0000   1.0000   1.0000   1.0000   1.0000   1.0000   1.0000
     1.0000   1.0000   1.0000   1.0000   1.0000   1.0000   1.0000   1.0000
     1.0000   1.0000   1.0000   1.0000   1.0000   1.0000   1.0000   1.0000
     1.0000   1.0000   1.0430   1.0594   1.0748   0.8995   0.2519   0.1506
     0.0422   0.0088   0.0000   0.0000   0.0000   0.0000   0.0000   0.0000
     0.0000   0.0000   0.0000   0.0000   0.0000   0.0000   0.0000   0.0000
     0.0000   0.0000   0.0000   0.0000   0.0000   0.0000   0.0000   0.0000
     0.0000   0.0000   0.0000   0.0000   0.0000   0.0000   0.0000   0.0000
     0.0000   0.0000   0.0000

          k = 0.2857 0.1421 0.0000 (250009 PWs)   bands (ev):

   -49.8950 -49.8948 -49.8948 -49.8947 -49.5611 -49.5610 -49.5610 -49.5610
   -49.0187 -49.0185 -49.0183 -49.0183 -48.9621 -48.9620 -48.9617 -48.9616
   -48.9520 -48.9485 -48.9483 -48.9464 -48.9430 -48.9413 -48.9375 -48.9373
   -48.9361 -48.9346 -48.9343 -48.9335 -48.9322 -48.9313 -48.9302 -48.9299
   -48.9267 -48.9266 -48.9266 -48.9263 -48.9244 -48.9242 -48.9239 -48.9239
   -48.9096 -48.9095 -48.9091 -48.9090  -5.7696  -5.5222  -5.2587  -5.1145
    -5.0079  -4.5940  -4.5565  -4.0272  -3.9095  -3.9030  -3.6480  -3.3639
    -3.2159  -3.1889  -2.9102  -2.6584  -2.6535  -2.6279  -2.5437  -2.5319
    -2.3237  -2.2597  -2.2591  -2.2261  -1.9667  -1.8951  -1.8358  -1.8129
    -1.7952  -1.7793  -1.7322  -1.5968  -1.5628  -1.4344  -1.3068  -1.1873
    -1.1753  -1.1324  -1.0857  -1.0606  -0.9190  -0.7003  -0.6009  -0.5474
    -0.4996  -0.3066  -0.2396  -0.1116  -0.0361  -0.0098   0.0929   0.1646
     0.2137   0.3877   0.5037

     occupation numbers 
     1.0000   1.0000   1.0000   1.0000   1.0000   1.0000   1.0000   1.0000
     1.0000   1.0000   1.0000   1.0000   1.0000   1.0000   1.0000   1.0000
     1.0000   1.0000   1.0000   1.0000   1.0000   1.0000   1.0000   1.0000
     1.0000   1.0000   1.0000   1.0000   1.0000   1.0000   1.0000   1.0000
     1.0000   1.0000   1.0000   1.0000   1.0000   1.0000   1.0000   1.0000
     1.0000   1.0000   1.0000   1.0000   1.0000   1.0000   1.0000   1.0000
     1.0000   1.0000   1.0000   1.0000   1.0000   1.0000   1.0000   1.0000
     1.0000   1.0000   1.0000   1.0534   1.0568   1.0733   1.0340   1.0060
     0.1066   0.0236   0.0232   0.0090   0.0000   0.0000   0.0000   0.0000
     0.0000   0.0000   0.0000   0.0000   0.0000   0.0000   0.0000   0.0000
     0.0000   0.0000   0.0000   0.0000   0.0000   0.0000   0.0000   0.0000
     0.0000   0.0000   0.0000   0.0000   0.0000   0.0000   0.0000   0.0000
     0.0000   0.0000   0.0000

          k = 0.2857 0.2843 0.0000 (249988 PWs)   bands (ev):

   -49.8950 -49.8948 -49.8948 -49.8947 -49.5611 -49.5610 -49.5610 -49.5610
   -49.0187 -49.0185 -49.0183 -49.0183 -48.9621 -48.9620 -48.9617 -48.9616
   -48.9515 -48.9482 -48.9481 -48.9463 -48.9429 -48.9413 -48.9378 -48.9374
   -48.9363 -48.9353 -48.9346 -48.9331 -48.9320 -48.9313 -48.9302 -48.9299
   -48.9270 -48.9269 -48.9267 -48.9262 -48.9243 -48.9241 -48.9239 -48.9238
   -48.9096 -48.9095 -48.9091 -48.9090  -5.6974  -5.4496  -5.1863  -5.0414
    -4.9353  -4.5213  -4.4827  -3.9547  -3.8349  -3.8291  -3.5740  -3.3946
    -3.2934  -3.1441  -3.1404  -3.1127  -2.9536  -2.7077  -2.6838  -2.5882
    -2.5616  -2.4602  -2.2709  -2.2512  -2.1714  -2.1228  -1.9370  -1.9026
    -1.8254  -1.6984  -1.6964  -1.6588  -1.5854  -1.4359  -1.2941  -1.2844
    -1.2581  -1.1081  -1.0203  -0.9848  -0.8803  -0.7247  -0.5203  -0.4448
    -0.3877  -0.2087  -0.1302  -0.0785   0.0348   0.1006   0.1896   0.2498
     0.3675   0.4283   0.5248

     occupation numbers 
     1.0000   1.0000   1.0000   1.0000   1.0000   1.0000   1.0000   1.0000
     1.0000   1.0000   1.0000   1.0000   1.0000   1.0000   1.0000   1.0000
     1.0000   1.0000   1.0000   1.0000   1.0000   1.0000   1.0000   1.0000
     1.0000   1.0000   1.0000   1.0000   1.0000   1.0000   1.0000   1.0000
     1.0000   1.0000   1.0000   1.0000   1.0000   1.0000   1.0000   1.0000
     1.0000   1.0000   1.0000   1.0000   1.0000   1.0000   1.0000   1.0000
     1.0000   1.0000   1.0000   1.0000   1.0000   1.0000   1.0000   1.0000
     1.0000   1.0000   1.0000   1.0000   1.0000   1.0236   1.0366   1.0823
     1.0634   0.7029   0.0316   0.0187   0.0015   0.0002   0.0000   0.0000
     0.0000   0.0000   0.0000   0.0000   0.0000   0.0000   0.0000   0.0000
     0.0000   0.0000   0.0000   0.0000   0.0000   0.0000   0.0000   0.0000
     0.0000   0.0000   0.0000   0.0000   0.0000   0.0000   0.0000   0.0000
     0.0000   0.0000   0.0000

          k = 0.2857 0.4264 0.0000 (249942 PWs)   bands (ev):

   -49.8950 -49.8948 -49.8948 -49.8947 -49.5611 -49.5610 -49.5610 -49.5610
   -49.0186 -49.0184 -49.0183 -49.0182 -48.9621 -48.9620 -48.9617 -48.9616
   -48.9508 -48.9478 -48.9477 -48.9462 -48.9428 -48.9412 -48.9386 -48.9374
   -48.9368 -48.9360 -48.9347 -48.9328 -48.9318 -48.9313 -48.9304 -48.9299
   -48.9274 -48.9272 -48.9269 -48.9260 -48.9242 -48.9240 -48.9239 -48.9238
   -48.9096 -48.9095 -48.9090 -48.9089  -5.5770  -5.3287  -5.0658  -4.9195
[...]
     atom   13 type  1   force =     0.00000136    0.00693947   -0.43373615
     atom   14 type  1   force =     0.00000136   -0.01136230   -3.87128326
     atom   15 type  1   force =     0.00022773   -0.00426572   -6.03192480
     atom   16 type  1   force =     0.00057602    0.00527641   -9.02624037
     atom   17 type  1   force =     0.00050395    0.01343708   -2.58242208
     atom   18 type  1   force =     0.00000000    0.00170533   -6.86041205
     atom   19 type  1   force =     0.00000136    0.00063788  -10.29324735
     atom   20 type  1   force =     0.00000136   -0.02103347  -13.27618950
     atom   21 type  1   force =     0.00007600    0.04397025  -12.65754910
     atom   22 type  1   force =     0.00014987   -0.10343372  -15.36483298
     atom   23 type  1   force =     0.00000274    0.07258658  -16.08688917
     atom   24 type  1   force =    -0.00011262   -0.07295299   16.08813363
     atom   25 type  1   force =    -0.00016044    0.02141133   13.27969288
     atom   26 type  1   force =     0.00000272    0.10354599   15.36420300
     atom   27 type  1   force =     0.00000135   -0.04416837   12.65714906
     atom   28 type  1   force =     0.00000272   -0.00534894    9.02483512
     atom   29 type  1   force =    -0.00052238    0.01132387    3.87095380
     atom   30 type  1   force =    -0.00037955   -0.00698973    0.43430505
     atom   31 type  1   force =    -0.00035840   -0.00085989   10.29363005
     atom   32 type  1   force =    -0.00031963   -0.00115042    6.86048269
     atom   33 type  1   force =     0.00000136    0.00422001    6.03111478
     atom   34 type  1   force =     0.00000272   -0.01356184    2.58118222
     atom   35 type  1   force =     0.00000272    0.00717740   -0.43502434
     atom   36 type  1   force =     0.00000272   -0.01171111   -3.87114961
     atom   37 type  1   force =    -0.00022501   -0.00426572   -6.03192480
     atom   38 type  1   force =    -0.00057331    0.00527641   -9.02624037
     atom   39 type  1   force =    -0.00050123    0.01343708   -2.58242208
     atom   40 type  1   force =     0.00000136    0.00117390   -6.85849822
     atom   41 type  1   force =     0.00000272    0.00004172  -10.29282710
     atom   42 type  1   force =     0.00000272   -0.02073483  -13.27910771
     atom   43 type  1   force =    -0.00007329    0.04397025  -12.65754910
     atom   44 type  1   force =    -0.00014715   -0.10343372  -15.36483298
     The core correction contribution to forces
     atom    1 type  1   force =     0.00000000    0.00000000    0.00000000
     atom    2 type  1   force =     0.00000000    0.00000000    0.00000000
     atom    3 type  1   force =     0.00000000    0.00000000    0.00000000
     atom    4 type  1   force =     0.00000000    0.00000000    0.00000000
     atom    5 type  1   force =     0.00000000    0.00000000    0.00000000
     atom    6 type  1   force =     0.00000000    0.00000000    0.00000000
     atom    7 type  1   force =     0.00000000    0.00000000    0.00000000
     atom    8 type  1   force =     0.00000000    0.00000000    0.00000000
     atom    9 type  1   force =     0.00000000    0.00000000    0.00000000
     atom   10 type  1   force =     0.00000000    0.00000000    0.00000000
     atom   11 type  1   force =     0.00000000    0.00000000    0.00000000
     atom   12 type  1   force =     0.00000000    0.00000000    0.00000000
     atom   13 type  1   force =     0.00000000    0.00000000    0.00000000
     atom   14 type  1   force =     0.00000000    0.00000000    0.00000000
     atom   15 type  1   force =     0.00000000    0.00000000    0.00000000
     atom   16 type  1   force =     0.00000000    0.00000000    0.00000000
     atom   17 type  1   force =     0.00000000    0.00000000    0.00000000
     atom   18 type  1   force =     0.00000000    0.00000000    0.00000000
     atom   19 type  1   force =     0.00000000    0.00000000    0.00000000
     atom   20 type  1   force =     0.00000000    0.00000000    0.00000000
     atom   21 type  1   force =     0.00000000    0.00000000    0.00000000
     atom   22 type  1   force =     0.00000000    0.00000000    0.00000000
     atom   23 type  1   force =     0.00000000    0.00000000    0.00000000
     atom   24 type  1   force =     0.00000000    0.00000000    0.00000000
     atom   25 type  1   force =     0.00000000    0.00000000    0.00000000
     atom   26 type  1   force =     0.00000000    0.00000000    0.00000000
     atom   27 type  1   force =     0.00000000    0.00000000    0.00000000
     atom   28 type  1   force =     0.00000000    0.00000000    0.00000000
     atom   29 type  1   force =     0.00000000    0.00000000    0.00000000
     atom   30 type  1   force =     0.00000000    0.00000000    0.00000000
     atom   31 type  1   force =     0.00000000    0.00000000    0.00000000
     atom   32 type  1   force =     0.00000000    0.00000000    0.00000000
     atom   33 type  1   force =     0.00000000    0.00000000    0.00000000
     atom   34 type  1   force =     0.00000000    0.00000000    0.00000000
     atom   35 type  1   force =     0.00000000    0.00000000    0.00000000
     atom   36 type  1   force =     0.00000000    0.00000000    0.00000000
     atom   37 type  1   force =     0.00000000    0.00000000    0.00000000
     atom   38 type  1   force =     0.00000000    0.00000000    0.00000000
     atom   39 type  1   force =     0.00000000    0.00000000    0.00000000
     atom   40 type  1   force =     0.00000000    0.00000000    0.00000000
     atom   41 type  1   force =     0.00000000    0.00000000    0.00000000
     atom   42 type  1   force =     0.00000000    0.00000000    0.00000000
     atom   43 type  1   force =     0.00000000    0.00000000    0.00000000
     atom   44 type  1   force =     0.00000000    0.00000000    0.00000000
     The Hubbard contrib.    to forces
     atom    1 type  1   force =     0.00000000    0.00000000    0.00000000
     atom    2 type  1   force =     0.00000000    0.00000000    0.00000000
     atom    3 type  1   force =     0.00000000    0.00000000    0.00000000
     atom    4 type  1   force =     0.00000000    0.00000000    0.00000000
     atom    5 type  1   force =     0.00000000    0.00000000    0.00000000
     atom    6 type  1   force =     0.00000000    0.00000000    0.00000000
     atom    7 type  1   force =     0.00000000    0.00000000    0.00000000
     atom    8 type  1   force =     0.00000000    0.00000000    0.00000000
     atom    9 type  1   force =     0.00000000    0.00000000    0.00000000
     atom   10 type  1   force =     0.00000000    0.00000000    0.00000000
     atom   11 type  1   force =     0.00000000    0.00000000    0.00000000
     atom   12 type  1   force =     0.00000000    0.00000000    0.00000000
     atom   13 type  1   force =     0.00000000    0.00000000    0.00000000
     atom   14 type  1   force =     0.00000000    0.00000000    0.00000000
     atom   15 type  1   force =     0.00000000    0.00000000    0.00000000
     atom   16 type  1   force =     0.00000000    0.00000000    0.00000000
     atom   17 type  1   force =     0.00000000    0.00000000    0.00000000
     atom   18 type  1   force =     0.00000000    0.00000000    0.00000000
     atom   19 type  1   force =     0.00000000    0.00000000    0.00000000
     atom   20 type  1   force =     0.00000000    0.00000000    0.00000000
     atom   21 type  1   force =     0.00000000    0.00000000    0.00000000
     atom   22 type  1   force =     0.00000000    0.00000000    0.00000000
     atom   23 type  1   force =     0.00000000    0.00000000    0.00000000
     atom   24 type  1   force =     0.00000000    0.00000000    0.00000000
     atom   25 type  1   force =     0.00000000    0.00000000    0.00000000
     atom   26 type  1   force =     0.00000000    0.00000000    0.00000000
     atom   27 type  1   force =     0.00000000    0.00000000    0.00000000
     atom   28 type  1   force =     0.00000000    0.00000000    0.00000000
     atom   29 type  1   force =     0.00000000    0.00000000    0.00000000
     atom   30 type  1   force =     0.00000000    0.00000000    0.00000000
     atom   31 type  1   force =     0.00000000    0.00000000    0.00000000
     atom   32 type  1   force =     0.00000000    0.00000000    0.00000000
     atom   33 type  1   force =     0.00000000    0.00000000    0.00000000
     atom   34 type  1   force =     0.00000000    0.00000000    0.00000000
     atom   35 type  1   force =     0.00000000    0.00000000    0.00000000
     atom   36 type  1   force =     0.00000000    0.00000000    0.00000000
     atom   37 type  1   force =     0.00000000    0.00000000    0.00000000
     atom   38 type  1   force =     0.00000000    0.00000000    0.00000000
     atom   39 type  1   force =     0.00000000    0.00000000    0.00000000
     atom   40 type  1   force =     0.00000000    0.00000000    0.00000000
     atom   41 type  1   force =     0.00000000    0.00000000    0.00000000
     atom   42 type  1   force =     0.00000000    0.00000000    0.00000000
     atom   43 type  1   force =     0.00000000    0.00000000    0.00000000
     atom   44 type  1   force =     0.00000000    0.00000000    0.00000000
     The SCF correction term to forces
     atom    1 type  1   force =    -0.00000000   -0.00000007    0.00000163
     atom    2 type  1   force =     0.00000004    0.00000019   -0.00000168
     atom    3 type  1   force =     0.00000005    0.00000006    0.00000031
     atom    4 type  1   force =    -0.00000000   -0.00000004   -0.00000109
     atom    5 type  1   force =    -0.00000000   -0.00000008   -0.00000044
     atom    6 type  1   force =     0.00000000   -0.00000002   -0.00000001
     atom    7 type  1   force =     0.00000010   -0.00000001   -0.00000044
     atom    8 type  1   force =     0.00000008    0.00000004   -0.00000054
     atom    9 type  1   force =     0.00000009   -0.00000021   -0.00000006
     atom   10 type  1   force =     0.00000007    0.00000012   -0.00000050
     atom   11 type  1   force =    -0.00000000    0.00000004   -0.00000044
     atom   12 type  1   force =    -0.00000000    0.00000002   -0.00000052
     atom   13 type  1   force =    -0.00000000   -0.00000004   -0.00000074
     atom   14 type  1   force =     0.00000000    0.00000000   -0.00000066
     atom   15 type  1   force =     0.00000008   -0.00000005   -0.00000040
     atom   16 type  1   force =     0.00000007    0.00000002   -0.00000042
     atom   17 type  1   force =     0.00000008   -0.00000002   -0.00000064
     atom   18 type  1   force =    -0.00000000   -0.00000008   -0.00000019
     atom   19 type  1   force =    -0.00000000    0.00000020   -0.00000023
     atom   20 type  1   force =    -0.00000000   -0.00000005   -0.00000041
     atom   21 type  1   force =     0.00000004    0.00000009    0.00000032
     atom   22 type  1   force =     0.00000001    0.00000001    0.00000126
     atom   23 type  1   force =     0.00000000   -0.00000006    0.00000183
     atom   24 type  1   force =    -0.00000004    0.00000019   -0.00000168
     atom   25 type  1   force =    -0.00000005    0.00000006    0.00000031
     atom   26 type  1   force =     0.00000000   -0.00000005   -0.00000113
     atom   27 type  1   force =     0.00000000   -0.00000006   -0.00000037
     atom   28 type  1   force =     0.00000000   -0.00000003   -0.00000006
     atom   29 type  1   force =    -0.00000010   -0.00000001   -0.00000044
     atom   30 type  1   force =    -0.00000008    0.00000004   -0.00000054
     atom   31 type  1   force =    -0.00000009   -0.00000021   -0.00000006
     atom   32 type  1   force =    -0.00000007    0.00000012   -0.00000050
     atom   33 type  1   force =     0.00000000    0.00000005   -0.00000042
     atom   34 type  1   force =    -0.00000000    0.00000003   -0.00000053
     atom   35 type  1   force =     0.00000000   -0.00000004   -0.00000074
     atom   36 type  1   force =    -0.00000000    0.00000002   -0.00000062
     atom   37 type  1   force =    -0.00000008   -0.00000005   -0.00000040
     atom   38 type  1   force =    -0.00000007    0.00000002   -0.00000042
     atom   39 type  1   force =    -0.00000008   -0.00000002   -0.00000064
     atom   40 type  1   force =    -0.00000000   -0.00000008   -0.00000021
     atom   41 type  1   force =     0.00000000    0.00000020   -0.00000017
     atom   42 type  1   force =    -0.00000000   -0.00000004   -0.00000031
     atom   43 type  1   force =    -0.00000004    0.00000009    0.00000032
     atom   44 type  1   force =    -0.00000001    0.00000001    0.00000126

     Total force =     0.001840     Total SCF correction =     0.000005
     Energy error            =      7.4E-06 Ry
     Gradient error          =      3.8E-04 Ry/Bohr

     bfgs converged in  35 scf cycles and  34 bfgs steps
     (criteria: energy <  1.0E-05 Ry, force <  3.9E-04 Ry/Bohr)

     End of BFGS Geometry Optimization

     Final energy             =    -661.6959578690 Ry

     File ./Li/Lithium.bfgs deleted, as requested
Begin final coordinates

ATOMIC_POSITIONS (angstrom)
Li               4.8580444204        5.6551423041       35.2800782676
Li               2.4290439654        4.1832815656       20.1003993286
Li               2.4290286421        1.0318793809       21.6869019492
Li               4.8580444204        2.2684460506       20.6181977465
Li               0.0000000000        4.9871301642       21.9519524085
Li               4.8580444204        1.9191570879       23.5710693588
Li               2.4292057803        3.1432639579       25.9262667183
Li               2.4290755828        5.7354915214       27.4920212905
Li               2.4291636393        3.6317797380       22.9811216812
Li               2.4290696211        0.5010558365       24.5622164431
Li               0.0000000000        4.5645475724       24.9471379851
Li               4.8580444204        1.4620880023       26.5124148001
Li               4.8580444204        4.1037715135       27.8867229465
Li               4.8580444204        0.9989733326       29.4529336697
Li               2.4290005884        5.2753320957       30.4328205851
Li               2.4292640121        2.2242664614       31.8092261015
Li               2.4292248504        2.6808077885       28.8673737279
Li               0.0000000000        3.6416669260       30.8169353631
Li               4.8580444204        0.5103394408       32.3983203172
Li               4.8580444204        3.1109741589       33.6918959029
Li               2.4287526557        4.8530610309       33.4287516407
Li               2.4297168944        1.8754926185       34.7635508072
Li               9.7160888407        5.6566380731       35.2798654780
Li               7.2870448753        4.1832815656       20.1003993286
Li               7.2870601986        1.0318793809       21.6869019492
Li               9.7160888407        2.2683642773       20.6178685995
Li               4.8580444204        4.9871957726       21.9518340311
Li               9.7160888407        1.9190774910       23.5708163751
Li               7.2868830605        3.1432639579       25.9262667183
Li               7.2870132580        5.7354915214       27.4920212905
Li               7.2869252015        3.6317797380       22.9811216812
Li               7.2870192196        0.5010558365       24.5622164431
Li               4.8580444204        4.5645625182       24.9468267670
Li               9.7160888407        1.4620802545       26.5122842641
Li               9.7160888407        4.1037772845       27.8873866801
Li               9.7160888407        0.9991444076       29.4528971846
Li               7.2870882523        5.2753320957       30.4328205851
Li               7.2868248287        2.2242664614       31.8092261015
Li               7.2868639903        2.6808077885       28.8673737279
Li               4.8580444204        3.6414646233       30.8160581540
Li               9.7160888407        0.5105288888       32.3981889771
Li               9.7160888407        3.1110007321       33.6934436483
Li               7.2873361851        4.8530610309       33.4287516407
Li               7.2863719463        1.8754926185       34.7635508072
End final coordinates



     Writing all to output data dir ./Li/Lithium.save/ :
     XML data file
     init_run     :     19.19s CPU     27.41s WALL (       1 calls)
     electrons    :  24950.92s CPU  32262.99s WALL (      35 calls)
     update_pot   :      3.20s CPU      3.89s WALL (      34 calls)
     forces       :    703.58s CPU    765.91s WALL (      35 calls)

     Called by init_run:
     wfcinit      :      2.88s CPU      3.86s WALL (       1 calls)
     wfcinit:wfcr :      2.65s CPU      3.63s WALL (      14 calls)
     potinit      :      0.95s CPU      1.00s WALL (       1 calls)
     hinit0       :      3.92s CPU      4.35s WALL (       1 calls)

     Called by electrons:
     c_bands      :  20776.04s CPU  27070.22s WALL (     827 calls)
     sum_band     :   1061.47s CPU   1495.06s WALL (     827 calls)
     v_of_rho     :     54.50s CPU     64.41s WALL (     828 calls)
     v_h          :      5.00s CPU      6.00s WALL (     828 calls)
     v_xc         :     49.48s CPU     58.37s WALL (     828 calls)
     newd         :     36.95s CPU     54.98s WALL (     828 calls)
     PAW_pot      :      7.04s CPU     10.06s WALL (     862 calls)
     mix_rho      :    146.18s CPU    185.73s WALL (     827 calls)

     Called by c_bands:
     init_us_2    :    217.46s CPU    220.90s WALL (   24136 calls)
     cegterg      :  19254.53s CPU  23276.71s WALL (   13981 calls)

     Called by sum_band:
     sum_band:wei :      1.54s CPU      1.79s WALL (     827 calls)
     sum_band:loo :   1017.19s CPU   1440.42s WALL (     827 calls)
     sum_band:buf :     18.12s CPU     19.55s WALL (   11578 calls)
     sum_band:ini :    107.23s CPU    107.91s WALL (   11578 calls)
     sum_band:cal :    192.62s CPU    213.45s WALL (   12054 calls)
     sum_band:bec :      2.40s CPU      2.73s WALL (   12054 calls)
     addusdens    :     29.21s CPU     30.60s WALL (     827 calls)
                                        0.00s GPU  (     827 calls)
     addusd:skk   :      7.80s CPU      7.87s WALL (     827 calls)
                                        0.00s GPU  (     827 calls)

     Called by *egterg:
     cdiaghg      :   7168.98s CPU   7390.76s WALL (  199804 calls)
     cegterg:over :   1133.91s CPU   1231.68s WALL (  187049 calls)
     cegterg:upda :    861.69s CPU    881.48s WALL (  187049 calls)
     cegterg:last :    320.03s CPU    321.95s WALL (   18403 calls)
     h_psi        :   8406.81s CPU  12021.49s WALL (  201044 calls)
     s_psi        :    938.10s CPU    945.77s WALL (  201044 calls)
     g_psi        :     11.42s CPU     12.18s WALL (  187049 calls)

     Called by h_psi:
     h_psi:calbec :   1174.38s CPU   1347.41s WALL (  201044 calls)
     vloc_psi     :   6228.35s CPU   9644.73s WALL (  201044 calls)
                                        0.00s GPU  (  201044 calls)
     add_vuspsi   :    971.69s CPU    993.07s WALL (  201044 calls)

     General routines
     calbec       :   1392.33s CPU   1588.76s WALL (  215058 calls)
     fft          :     40.51s CPU     53.63s WALL (   10832 calls)
     ffts         :     99.91s CPU    128.25s WALL (   94889 calls)
     fftw         :   6675.03s CPU  10368.07s WALL (11312402 calls)
     interpolate  :      5.26s CPU      6.40s WALL (     828 calls)

     Parallel routines

     PAW routines
     PAW_pot      :      7.04s CPU     10.06s WALL (     862 calls)
     PAW_symme    :      0.24s CPU      0.33s WALL (    1689 calls)

     Environ routines

     PWSCF        :      7h11m CPU      9h15m WALL


   This run was terminated on:  21:15:39   3Jan2025            

=------------------------------------------------------------------------------=
   JOB DONE.
=------------------------------------------------------------------------------=
