
     Program PWSCF v.7.4 starts on  5Jan2025 at 11:52: 3 

     This program is part of the open-source Quantum ESPRESSO suite
     for quantum simulation of materials; please cite
         "P. Giannozzi et al., J. Phys.:Condens. Matter 21 395502 (2009);
         "P. Giannozzi et al., J. Phys.:Condens. Matter 29 465901 (2017);
         "P. Giannozzi et al., J. Chem. Phys. 152 154105 (2020);
          URL http://www.quantum-espresso.org", 
     in publications or presentations arising from this work. More details at
     http://www.quantum-espresso.org/quote

     Parallel version (MPI & OpenMP), running on     512 processor cores
     Number of MPI processes:               512
     Threads/MPI process:                     1

     MPI processes distributed on     4 nodes
     228079 MiB available memory on the printing compute node when the environment starts

     Reading input from espresso.pwi
Warning: card &CELL ignored
Warning: card    PRESS_CONV_THR   = 0.1 ignored
Warning: card    CELL_DOFREE      = 'ALL' ignored
Warning: card / ignored
Warning: card &FCP ignored
Warning: card / ignored
Warning: card &RISM ignored
Warning: card / ignored

     Current dimensions of program PWSCF are:
     Max number of different atomic species (ntypx) = 10
     Max number of k-points (npk) =  40000
     Max angular momentum in pseudopotentials (lmaxx) =  4

     IMPORTANT: XC functional enforced from input :
     Exchange-correlation= PBE
                           (   1   4   3   4   0   0   0)
     Any further DFT definition will be discarded
     Please, verify this is what you really want


     Reading input from environ.in:
     * using ionic solvent mode
     * setting boundary derivatives method to SSCS default
     * setting electrolyte-boundary derivatives method to SSCS default

Environ Warning (1001): card EOF ignored

     
     Found identity + (  0.5000  0.0000 -0.0000) symmetry
     This is a supercell, fractional translations are disabled

     K-points division:     npool     =       2
     R & G space division:  proc/nbgrp/npool/nimage =     256
     Subspace diagonalization in iterative solution of the eigenvalue problem:
     a serial algorithm will be used


     Parallelization info
     --------------------
     sticks:   dense  smooth     PW     G-vecs:    dense   smooth      PW
     Min          75      30      8                44583    11270    1514
     Max          76      31      9                44636    11296    1560
     Sum       19367    7745   2063             11420683  2888861  395615

     Using Slab Decomposition



     bravais-lattice index     =            8
     lattice parameter (alat)  =      12.9830  a.u.
     unit-cell volume          =   29886.2289 (a.u.)^3
     number of atoms/cell      =           52
     number of atomic types    =            1
     number of electrons       =       156.00
     number of Kohn-Sham states=          117
     kinetic-energy cutoff     =      80.0000  Ry
     charge density cutoff     =     800.0000  Ry
     scf convergence threshold =      1.0E-14
     mixing beta               =       0.2000
     number of iterations used =            8  local-TF  mixing
     Exchange-correlation= PBE
                           (   1   4   3   4   0   0   0)

     ================================================================================

                                  Environ Setup Summary

     ================================================================================

     Please cite

          O. Andreussi, I. Dabo and N. Marzari, J. Chem. Phys. 136, 064102 (2012)
          F. Nattino, M. Truscott, N. Marzari, and O. Andreussi, J. Chem. Phys. 150, 041722 (2019)

     in publications or presentations arising from this work.

     ================================================================================

     Parameters
     ==========

     compensation onset threshold      =               0.1000E+00
     static permittivity               =                    89.90
     surface tension in input (dyn/cm) =                    37.30
     surface tension in internal units =               0.4792E-04

     Solvent Boundary
     ================

     solvent mode                      =                    ionic
     derivatives method                =                   lowmem
     electrolyte derivatives method    =                   lowmem
     numerical core for derivatives    =                      fft
     switching function adopted        =                     SCCS
     density limit for vacuum region   =               0.5000E-02
     density limit for bulk solvent    =               0.1000E-03
     soft-sphere radius mode           =                    bondi
     soft-sphere softness              =                     0.50
     alpha                             =                     1.32

     Electrostatic Setup
     ===================

     electrostatic problem to solve    =                    modpb
     numerical solver adopted          =                   newton
     type of auxiliary density adopted =                     none
     numerical core for poisson        =                      fft
     adopting a nested solver scheme
     inner solver                      =                       cg
     inner core                        =                      fft
     type of pbc corrections           =                parabolic
     numerical core for corrections    =                      1da

     ================================================================================


     >>>>> Grand-Canonical SCF is activated <<<<<
     Initial Total Charge  =     0.000000 e
     Target Fermi Energy   =    -2.404000 eV
     Thr. of Fermi Energy  =     0.001000 eV
     Wave-shift of Kerker  =     0.400000 bohr^-1
     Wave-shift of Hartree =     1.500000 bohr^-1
     Mixing Rate of Fermi  =     0.050000

     celldm(1)=  12.983009  celldm(2)=   1.802776  celldm(3)=   7.575360
     celldm(4)=   0.000000  celldm(5)=   0.000000  celldm(6)=   0.000000

     crystal axes: (cart. coord. in units of alat)
               a(1) = (   1.000000   0.000000   0.000000 )  
               a(2) = (   0.000000   1.802776   0.000000 )  
               a(3) = (   0.000000   0.000000   7.575360 )  

     reciprocal axes: (cart. coord. in units 2 pi/alat)
               b(1) = (  1.000000  0.000000  0.000000 )  
               b(2) = (  0.000000  0.554700  0.000000 )  
               b(3) = (  0.000000  0.000000  0.132007 )  


     PseudoPot. # 1 for Li read from file:
     /work/e89/e89/ba3g18/Repos/Pseudopotentials/Pslibrary/Li.pbe-sl-kjpaw_psl.1.0.0.UPF
     MD5 check sum: 3f4d2cafebb47c6c3aa8ed472e6f074d
     Pseudo is Projector augmented-wave, Zval =  3.0
     Generated using 'atomic' code by A. Dal Corso  v.7.4
     Shape of augmentation charge: PSQ
     Using radial grid of 1017 points,  4 beta functions with: 
                l(1) =   0
                l(2) =   0
                l(3) =   1
                l(4) =   1
     Q(r) pseudized with 0 coefficients 


     atomic species   valence    mass     pseudopotential
     Li                3.00     6.94000     Li( 1.00)

      2 Sym. Ops. (no inversion) found


                                    s                        frac. trans.

      isym =  1     identity                                     

 cryst.   s( 1) = (     1          0          0      )
                  (     0          1          0      )
                  (     0          0          1      )

 cart.    s( 1) = (  1.0000000  0.0000000  0.0000000 )
                  (  0.0000000  1.0000000  0.0000000 )
                  (  0.0000000  0.0000000  1.0000000 )


      isym =  2     inv. 180 deg rotation - cart. axis [1,0,0]   

 cryst.   s( 2) = (    -1          0          0      )
                  (     0          1          0      )
                  (     0          0          1      )

 cart.    s( 2) = ( -1.0000000  0.0000000  0.0000000 )
                  (  0.0000000  1.0000000  0.0000000 )
                  (  0.0000000  0.0000000  1.0000000 )


     point group C_s (m)    
     there are  2 classes
     the character table:

       E     s    
A'     1.00  1.00
A''    1.00 -1.00

     the symmetry operations in each class and the name of the first element:

     E        1
          identity                                               
     s        2
          inv. 180 deg rotation - cart. axis [1,0,0]             

   Cartesian axes

     site n.     atom                  positions (alat units)
         1        Li     tau(   1) = (   0.0000000   1.1494254   4.5160816  )
         2        Li     tau(   2) = (   0.0000000   1.5375347   4.2259835  )
         3        Li     tau(   3) = (   0.0000000   0.4297843   4.3935245  )
         4        Li     tau(   4) = (   0.0000000   0.8385801   4.1036785  )
         5        Li     tau(   5) = (   0.0000000   1.2483673   3.8218723  )
         6        Li     tau(   6) = (   0.0000000   1.6611459   3.5302612  )
         7        Li     tau(   7) = (   0.0000000   0.1442458   3.9605488  )
         8        Li     tau(   8) = (   0.0000000   0.5493533   3.6943157  )
         9        Li     tau(   9) = (   0.0000000   0.9626536   3.4048081  )
        10        Li     tau(  10) = (   0.0000000   1.3625395   3.1249565  )
        11        Li     tau(  11) = (   0.0000000   0.2665323   3.2726037  )
        12        Li     tau(  12) = (   0.0000000   0.6364813   3.0071943  )
        13        Li     tau(  13) = (   0.0000000   0.0706103   4.6548832  )
        14        Li     tau(  14) = (   0.2500004   1.1877555   4.1706495  )
        15        Li     tau(  15) = (   0.2499993   1.6002106   3.8800964  )
        16        Li     tau(  16) = (   0.2500019   0.4892033   4.0441231  )
        17        Li     tau(  17) = (   0.2500010   0.9013979   3.7537708  )
        18        Li     tau(  18) = (   0.2500005   1.3121085   3.4716879  )
        19        Li     tau(  19) = (   0.2500000   1.7195602   3.1821785  )
        20        Li     tau(  20) = (   0.2500004   0.2028123   3.6142726  )
        21        Li     tau(  21) = (   0.2500002   0.6129904   3.3510441  )
        22        Li     tau(  22) = (   0.2500002   1.0006285   3.0583060  )
        23        Li     tau(  23) = (   0.2500001   1.5109205   4.5699302  )
        24        Li     tau(  24) = (   0.2500007   0.2710204   2.9211070  )
        25        Li     tau(  25) = (   0.2500017   0.7880472   4.4489747  )
        26        Li     tau(  26) = (   0.2500006   0.0807839   4.3028545  )
        27        Li     tau(  27) = (   0.5000000   1.1494281   4.5160803  )
        28        Li     tau(  28) = (   0.5000000   1.5375361   4.2259828  )
        29        Li     tau(  29) = (   0.5000000   0.4297825   4.3935219  )
        30        Li     tau(  30) = (   0.5000000   0.8385795   4.1036770  )
        31        Li     tau(  31) = (   0.5000000   1.2483701   3.8218712  )
        32        Li     tau(  32) = (   0.5000000   1.6611492   3.5302639  )
        33        Li     tau(  33) = (   0.5000000   0.1442450   3.9605480  )
        34        Li     tau(  34) = (   0.5000000   0.5493542   3.6943144  )
        35        Li     tau(  35) = (   0.5000000   0.9626501   3.4048059  )
        36        Li     tau(  36) = (   0.5000000   1.3625385   3.1249537  )
        37        Li     tau(  37) = (   0.5000000   0.2665318   3.2726036  )
        38        Li     tau(  38) = (   0.5000000   0.6364813   3.0071973  )
        39        Li     tau(  39) = (   0.5000000   0.0706090   4.6548826  )
        40        Li     tau(  40) = (   0.7499996   1.1877555   4.1706495  )
        41        Li     tau(  41) = (   0.7500007   1.6002106   3.8800964  )
        42        Li     tau(  42) = (   0.7499981   0.4892033   4.0441231  )
        43        Li     tau(  43) = (   0.7499990   0.9013979   3.7537708  )
        44        Li     tau(  44) = (   0.7499995   1.3121085   3.4716879  )
        45        Li     tau(  45) = (   0.7500000   1.7195602   3.1821785  )
        46        Li     tau(  46) = (   0.7499996   0.2028123   3.6142726  )
        47        Li     tau(  47) = (   0.7499998   0.6129904   3.3510441  )
        48        Li     tau(  48) = (   0.7499998   1.0006285   3.0583060  )
        49        Li     tau(  49) = (   0.7499999   1.5109205   4.5699302  )
        50        Li     tau(  50) = (   0.7499993   0.2710204   2.9211070  )
        51        Li     tau(  51) = (   0.7499983   0.7880472   4.4489747  )
        52        Li     tau(  52) = (   0.7499994   0.0807839   4.3028545  )

   Crystallographic axes

     site n.     atom                  positions (cryst. coord.)
         1        Li     tau(   1) = (  0.0000000  0.6375864  0.5961541  )
         2        Li     tau(   2) = (  0.0000000  0.8528706  0.5578591  )
         3        Li     tau(   3) = (  0.0000000  0.2384014  0.5799757  )
         4        Li     tau(   4) = (  0.0000000  0.4651604  0.5417140  )
         5        Li     tau(   5) = (  0.0000000  0.6924694  0.5045136  )
         6        Li     tau(   6) = (  0.0000000  0.9214378  0.4660189  )
         7        Li     tau(   7) = (  0.0000000  0.0800132  0.5228199  )
         8        Li     tau(   8) = (  0.0000000  0.3047263  0.4876753  )
         9        Li     tau(   9) = (  0.0000000  0.5339840  0.4494583  )
        10        Li     tau(  10) = (  0.0000000  0.7558008  0.4125159  )
        11        Li     tau(  11) = (  0.0000000  0.1478455  0.4320064  )
        12        Li     tau(  12) = (  0.0000000  0.3530563  0.3969705  )
        13        Li     tau(  13) = (  0.0000000  0.0391676  0.6144768  )
        14        Li     tau(  14) = (  0.2500004  0.6588481  0.5505546  )
        15        Li     tau(  15) = (  0.2499993  0.8876369  0.5121996  )
        16        Li     tau(  16) = (  0.2500019  0.2713611  0.5338523  )
        17        Li     tau(  17) = (  0.2500010  0.5000055  0.4955238  )
        18        Li     tau(  18) = (  0.2500005  0.7278267  0.4582869  )
        19        Li     tau(  19) = (  0.2500000  0.9538402  0.4200696  )
        20        Li     tau(  20) = (  0.2500004  0.1125000  0.4771090  )
        21        Li     tau(  21) = (  0.2500002  0.3400258  0.4423610  )
        22        Li     tau(  22) = (  0.2500002  0.5550487  0.4037176  )
        23        Li     tau(  23) = (  0.2500001  0.8381077  0.6032625  )
        24        Li     tau(  24) = (  0.2500007  0.1503350  0.3856064  )
        25        Li     tau(  25) = (  0.2500017  0.4371299  0.5872955  )
        26        Li     tau(  26) = (  0.2500006  0.0448108  0.5680066  )
        27        Li     tau(  27) = (  0.5000000  0.6375879  0.5961539  )
        28        Li     tau(  28) = (  0.5000000  0.8528714  0.5578590  )
        29        Li     tau(  29) = (  0.5000000  0.2384004  0.5799753  )
        30        Li     tau(  30) = (  0.5000000  0.4651601  0.5417138  )
        31        Li     tau(  31) = (  0.5000000  0.6924710  0.5045135  )
        32        Li     tau(  32) = (  0.5000000  0.9214396  0.4660193  )
        33        Li     tau(  33) = (  0.5000000  0.0800127  0.5228198  )
        34        Li     tau(  34) = (  0.5000000  0.3047268  0.4876751  )
        35        Li     tau(  35) = (  0.5000000  0.5339821  0.4494580  )
        36        Li     tau(  36) = (  0.5000000  0.7558002  0.4125155  )
        37        Li     tau(  37) = (  0.5000000  0.1478452  0.4320063  )
        38        Li     tau(  38) = (  0.5000000  0.3530562  0.3969709  )
        39        Li     tau(  39) = (  0.5000000  0.0391668  0.6144768  )
        40        Li     tau(  40) = (  0.7499996  0.6588481  0.5505546  )
        41        Li     tau(  41) = (  0.7500007  0.8876369  0.5121996  )
        42        Li     tau(  42) = (  0.7499981  0.2713611  0.5338523  )
        43        Li     tau(  43) = (  0.7499990  0.5000055  0.4955238  )
        44        Li     tau(  44) = (  0.7499995  0.7278267  0.4582869  )
        45        Li     tau(  45) = (  0.7500000  0.9538402  0.4200696  )
        46        Li     tau(  46) = (  0.7499996  0.1125000  0.4771090  )
        47        Li     tau(  47) = (  0.7499998  0.3400258  0.4423610  )
        48        Li     tau(  48) = (  0.7499998  0.5550487  0.4037176  )
        49        Li     tau(  49) = (  0.7499999  0.8381077  0.6032625  )
        50        Li     tau(  50) = (  0.7499993  0.1503350  0.3856064  )
        51        Li     tau(  51) = (  0.7499983  0.4371299  0.5872955  )
        52        Li     tau(  52) = (  0.7499994  0.0448108  0.5680066  )

     number of k points=    24  Marzari-Vanderbilt smearing, width (Ry)=  0.0100
                       cart. coord. in units 2pi/alat
        k(    1) = (   0.0000000   0.0000000   0.0000000), wk =   0.0333333
        k(    2) = (   0.0000000   0.0924500   0.0000000), wk =   0.0666667
        k(    3) = (   0.0000000   0.1849000   0.0000000), wk =   0.0666667
        k(    4) = (   0.0000000  -0.2773500   0.0000000), wk =   0.0333333
        k(    5) = (   0.1000000   0.0000000   0.0000000), wk =   0.0666667
        k(    6) = (   0.1000000   0.0924500   0.0000000), wk =   0.1333333
        k(    7) = (   0.1000000   0.1849000   0.0000000), wk =   0.1333333
        k(    8) = (   0.1000000  -0.2773500   0.0000000), wk =   0.0666667
        k(    9) = (   0.2000000   0.0000000   0.0000000), wk =   0.0666667
        k(   10) = (   0.2000000   0.0924500   0.0000000), wk =   0.1333333
        k(   11) = (   0.2000000   0.1849000   0.0000000), wk =   0.1333333
        k(   12) = (   0.2000000  -0.2773500   0.0000000), wk =   0.0666667
        k(   13) = (   0.3000000   0.0000000   0.0000000), wk =   0.0666667
        k(   14) = (   0.3000000   0.0924500   0.0000000), wk =   0.1333333
        k(   15) = (   0.3000000   0.1849000   0.0000000), wk =   0.1333333
        k(   16) = (   0.3000000  -0.2773500   0.0000000), wk =   0.0666667
        k(   17) = (   0.4000000   0.0000000   0.0000000), wk =   0.0666667
        k(   18) = (   0.4000000   0.0924500   0.0000000), wk =   0.1333333
        k(   19) = (   0.4000000   0.1849000   0.0000000), wk =   0.1333333
        k(   20) = (   0.4000000  -0.2773500   0.0000000), wk =   0.0666667
        k(   21) = (  -0.5000000   0.0000000   0.0000000), wk =   0.0333333
        k(   22) = (  -0.5000000   0.0924500   0.0000000), wk =   0.0666667
        k(   23) = (  -0.5000000   0.1849000   0.0000000), wk =   0.0666667
        k(   24) = (  -0.5000000  -0.2773500   0.0000000), wk =   0.0333333

                       cryst. coord.
        k(    1) = (   0.0000000   0.0000000   0.0000000), wk =   0.0333333
        k(    2) = (   0.0000000   0.1666667   0.0000000), wk =   0.0666667
        k(    3) = (   0.0000000   0.3333333   0.0000000), wk =   0.0666667
        k(    4) = (   0.0000000  -0.5000000   0.0000000), wk =   0.0333333
        k(    5) = (   0.1000000   0.0000000   0.0000000), wk =   0.0666667
        k(    6) = (   0.1000000   0.1666667   0.0000000), wk =   0.1333333
        k(    7) = (   0.1000000   0.3333333   0.0000000), wk =   0.1333333
        k(    8) = (   0.1000000  -0.5000000   0.0000000), wk =   0.0666667
        k(    9) = (   0.2000000   0.0000000   0.0000000), wk =   0.0666667
        k(   10) = (   0.2000000   0.1666667   0.0000000), wk =   0.1333333
        k(   11) = (   0.2000000   0.3333333   0.0000000), wk =   0.1333333
        k(   12) = (   0.2000000  -0.5000000   0.0000000), wk =   0.0666667
        k(   13) = (   0.3000000   0.0000000   0.0000000), wk =   0.0666667
        k(   14) = (   0.3000000   0.1666667   0.0000000), wk =   0.1333333
        k(   15) = (   0.3000000   0.3333333   0.0000000), wk =   0.1333333
        k(   16) = (   0.3000000  -0.5000000   0.0000000), wk =   0.0666667
        k(   17) = (   0.4000000   0.0000000   0.0000000), wk =   0.0666667
        k(   18) = (   0.4000000   0.1666667   0.0000000), wk =   0.1333333
        k(   19) = (   0.4000000   0.3333333   0.0000000), wk =   0.1333333
        k(   20) = (   0.4000000  -0.5000000   0.0000000), wk =   0.0666667
        k(   21) = (  -0.5000000   0.0000000   0.0000000), wk =   0.0333333
        k(   22) = (  -0.5000000   0.1666667   0.0000000), wk =   0.0666667
        k(   23) = (  -0.5000000   0.3333333   0.0000000), wk =   0.0666667
        k(   24) = (  -0.5000000  -0.5000000   0.0000000), wk =   0.0333333

     Dense  grid: 11420683 G-vectors     FFT dimensions: ( 120, 216, 900)

     Smooth grid:  2888861 G-vectors     FFT dimensions: (  75, 135, 576)

     Dynamical RAM for                 wfc:       2.52 MB

     Dynamical RAM for     wfc (w. buffer):      32.72 MB

     Dynamical RAM for           str. fact:       0.68 MB

     Dynamical RAM for           local pot:       0.00 MB

     Dynamical RAM for          nlocal pot:       8.95 MB

     Dynamical RAM for                qrad:       0.65 MB

     Dynamical RAM for          rho,v,vnew:       4.42 MB

     Dynamical RAM for               rhoin:       1.47 MB

     Dynamical RAM for            rho*nmix:      10.90 MB

     Dynamical RAM for           G-vectors:       2.64 MB

     Dynamical RAM for          h,s,v(r/c):      10.03 MB

     Dynamical RAM for          <psi|beta>:       0.74 MB

     Dynamical RAM for                 psi:      10.07 MB

     Dynamical RAM for                hpsi:      10.07 MB

     Dynamical RAM for                spsi:      10.07 MB

     Dynamical RAM for      wfcinit/wfcrot:       5.35 MB

     Dynamical RAM for           addusdens:      32.69 MB

     Dynamical RAM for          addusforce:      67.46 MB

     Estimated static dynamical RAM per process >      56.85 MB

     Estimated max dynamical RAM per process >     174.27 MB

     Estimated total dynamical RAM >      64.88 GB

     Initial potential from superposition of free atoms

     starting charge     155.7603, renormalised to     156.0000

     negative rho (up, down):  5.158E-03 0.000E+00
     Starting wfcs are random
     Checking if some PAW data can be deallocated... 

     total cpu time spent up to now is       37.0 secs

     Self-consistent Calculation

     iteration #  1     ecut=    80.00 Ry     beta= 0.20
     Davidson diagonalization with overlap

---- Real-time Memory Report at c_bands before calling an iterative solver
           816 MiB given to the printing process from OS
             0 MiB allocation reported by mallinfo(arena+hblkhd)
        211850 MiB available memory on the node where the printing process lives
------------------
     c_bands:  1 eigenvalues not converged
     ethr =  1.00E-12,  avg # of iterations =117.9

     negative rho (up, down):  3.778E-03 0.000E+00

     total cpu time spent up to now is      423.4 secs

     total energy              =    -781.83517123 Ry
     estimated scf accuracy    <       0.18940109 Ry

     total charge of GC-SCF    =       0.01148982 e
     the Fermi energy          =      -4.45192905 eV
                        (error :       2.04792905 eV)
     electrostatic embedding   =       0.00000000 Ry
     cavitation energy         =       0.03405116 Ry
     electrolyte free energy   =       0.01286340 Ry
     correction to one-el term =      -0.00000000 Ry

     iteration #  2     ecut=    80.00 Ry     beta= 0.20
     Davidson diagonalization with overlap

---- Real-time Memory Report at c_bands before calling an iterative solver
           816 MiB given to the printing process from OS
             0 MiB allocation reported by mallinfo(arena+hblkhd)
        207356 MiB available memory on the node where the printing process lives
------------------
     ethr =  1.00E-05,  avg # of iterations = 11.2

     negative rho (up, down):  2.920E-03 0.000E+00

     add environment contribution to local potential

     total cpu time spent up to now is      474.0 secs

     total energy              =    -781.99352517 Ry
     estimated scf accuracy    <       0.06859568 Ry

     total charge of GC-SCF    =       0.01332679 e
     the Fermi energy          =      -3.30089414 eV
                        (error :       0.89689414 eV)
     electrostatic embedding   =       0.00009421 Ry
     cavitation energy         =       0.03405116 Ry
     electrolyte free energy   =       0.01286340 Ry
     correction to one-el term =      -0.00000000 Ry

     iteration #  3     ecut=    80.00 Ry     beta= 0.20
     Davidson diagonalization with overlap

---- Real-time Memory Report at c_bands before calling an iterative solver
           816 MiB given to the printing process from OS
             0 MiB allocation reported by mallinfo(arena+hblkhd)
        207068 MiB available memory on the node where the printing process lives
------------------
     ethr =  1.00E-05,  avg # of iterations = 30.5

     negative rho (up, down):  2.384E-03 0.000E+00

     add environment contribution to local potential

     total cpu time spent up to now is      566.8 secs

     total energy              =    -781.86434309 Ry
     estimated scf accuracy    <       0.04712550 Ry

     total charge of GC-SCF    =      -0.08661847 e
     the Fermi energy          =      -3.05766162 eV
                        (error :       0.65366162 eV)
     electrostatic embedding   =      -0.04004765 Ry
     cavitation energy         =       0.03405116 Ry
     electrolyte free energy   =      -0.00499046 Ry
     correction to one-el term =      -0.10791273 Ry

     iteration #  4     ecut=    80.00 Ry     beta= 0.20
     Davidson diagonalization with overlap

---- Real-time Memory Report at c_bands before calling an iterative solver
           816 MiB given to the printing process from OS
             0 MiB allocation reported by mallinfo(arena+hblkhd)
        206922 MiB available memory on the node where the printing process lives
------------------
     ethr =  1.00E-05,  avg # of iterations = 14.4

     negative rho (up, down):  1.924E-03 0.000E+00

     add environment contribution to local potential

     total cpu time spent up to now is      627.1 secs

     total energy              =    -781.89975257 Ry
     estimated scf accuracy    <       0.02617816 Ry

     total charge of GC-SCF    =      -0.14964209 e
     the Fermi energy          =      -3.34724085 eV
                        (error :       0.94324085 eV)
     electrostatic embedding   =      -0.04366005 Ry
     cavitation energy         =       0.03405116 Ry
     electrolyte free energy   =      -0.00607874 Ry
     correction to one-el term =       5.12784459 Ry

     iteration #  5     ecut=    80.00 Ry     beta= 0.20
     Davidson diagonalization with overlap

---- Real-time Memory Report at c_bands before calling an iterative solver
           816 MiB given to the printing process from OS
             0 MiB allocation reported by mallinfo(arena+hblkhd)
        206815 MiB available memory on the node where the printing process lives
------------------
     ethr =  1.00E-05,  avg # of iterations = 21.9

     negative rho (up, down):  1.632E-03 0.000E+00

     add environment contribution to local potential

     total cpu time spent up to now is      701.1 secs

     total energy              =    -781.87153971 Ry
     estimated scf accuracy    <       0.00627555 Ry

     total charge of GC-SCF    =      -0.25903712 e
     the Fermi energy          =      -2.91230653 eV
                        (error :       0.50830653 eV)
     electrostatic embedding   =      -0.04414511 Ry
     cavitation energy         =       0.03405116 Ry
     electrolyte free energy   =      -0.00343051 Ry
     correction to one-el term =       7.59192555 Ry

     iteration #  6     ecut=    80.00 Ry     beta= 0.20
     Davidson diagonalization with overlap

---- Real-time Memory Report at c_bands before calling an iterative solver
           816 MiB given to the printing process from OS
             0 MiB allocation reported by mallinfo(arena+hblkhd)
        206821 MiB available memory on the node where the printing process lives
------------------
     ethr =  4.02E-06,  avg # of iterations = 22.9

     negative rho (up, down):  1.447E-03 0.000E+00

     add environment contribution to local potential

     total cpu time spent up to now is      783.1 secs

     total energy              =    -781.90452241 Ry
     estimated scf accuracy    <       0.00410813 Ry

     total charge of GC-SCF    =      -0.43795134 e
     the Fermi energy          =      -2.60708861 eV
                        (error :       0.20308861 eV)
     electrostatic embedding   =      -0.05337727 Ry
     cavitation energy         =       0.03405116 Ry
     electrolyte free energy   =      -0.00111239 Ry
     correction to one-el term =      13.09379005 Ry

     iteration #  7     ecut=    80.00 Ry     beta= 0.20
     Davidson diagonalization with overlap

---- Real-time Memory Report at c_bands before calling an iterative solver
           816 MiB given to the printing process from OS
             0 MiB allocation reported by mallinfo(arena+hblkhd)
        206808 MiB available memory on the node where the printing process lives
------------------
     ethr =  2.63E-06,  avg # of iterations = 15.4

     negative rho (up, down):  1.293E-03 0.000E+00

     add environment contribution to local potential

     total cpu time spent up to now is      841.7 secs

     total energy              =    -781.92223961 Ry
     estimated scf accuracy    <       0.00271578 Ry

     total charge of GC-SCF    =      -0.57027815 e
     the Fermi energy          =      -2.47983875 eV
                        (error :       0.07583875 eV)
     electrostatic embedding   =      -0.08171475 Ry
     cavitation energy         =       0.03405116 Ry
     electrolyte free energy   =      -0.00060897 Ry
     correction to one-el term =      22.16128094 Ry

     iteration #  8     ecut=    80.00 Ry     beta= 0.20
     Davidson diagonalization with overlap

---- Real-time Memory Report at c_bands before calling an iterative solver
           816 MiB given to the printing process from OS
             0 MiB allocation reported by mallinfo(arena+hblkhd)
        206830 MiB available memory on the node where the printing process lives
------------------
     ethr =  1.73E-06,  avg # of iterations = 14.9

     negative rho (up, down):  1.206E-03 0.000E+00

     add environment contribution to local potential

     total cpu time spent up to now is      896.7 secs

     total energy              =    -781.93155110 Ry
     estimated scf accuracy    <       0.00483308 Ry

     total charge of GC-SCF    =      -0.77166819 e
     the Fermi energy          =      -2.38069200 eV
                        (error :       0.02330800 eV)
     electrostatic embedding   =      -0.10924974 Ry
     cavitation energy         =       0.03405116 Ry
     electrolyte free energy   =      -0.00075275 Ry
     correction to one-el term =      28.38922166 Ry

     iteration #  9     ecut=    80.00 Ry     beta= 0.20
     Davidson diagonalization with overlap

---- Real-time Memory Report at c_bands before calling an iterative solver
           816 MiB given to the printing process from OS
             0 MiB allocation reported by mallinfo(arena+hblkhd)
        206862 MiB available memory on the node where the printing process lives
------------------
     ethr =  1.73E-06,  avg # of iterations =  8.1

     negative rho (up, down):  1.126E-03 0.000E+00

     add environment contribution to local potential

     total cpu time spent up to now is      937.0 secs

     total energy              =    -781.88582358 Ry
     estimated scf accuracy    <       0.00690182 Ry

     total charge of GC-SCF    =      -0.94994458 e
     the Fermi energy          =      -2.34838688 eV
                        (error :       0.05561312 eV)
     electrostatic embedding   =      -0.15951516 Ry
     cavitation energy         =       0.03405116 Ry
     electrolyte free energy   =      -0.00104565 Ry
     correction to one-el term =      36.11892292 Ry

     iteration # 10     ecut=    80.00 Ry     beta= 0.20
     Davidson diagonalization with overlap

---- Real-time Memory Report at c_bands before calling an iterative solver
           816 MiB given to the printing process from OS
             0 MiB allocation reported by mallinfo(arena+hblkhd)
        206794 MiB available memory on the node where the printing process lives
------------------
     ethr =  1.73E-06,  avg # of iterations = 13.5

     negative rho (up, down):  1.012E-03 0.000E+00

     add environment contribution to local potential

     total cpu time spent up to now is      991.8 secs

     total energy              =    -781.91749763 Ry
     estimated scf accuracy    <       0.00047674 Ry

     total charge of GC-SCF    =      -1.03555960 e
     the Fermi energy          =      -2.49994640 eV
                        (error :       0.09594640 eV)
     electrostatic embedding   =      -0.21342213 Ry
     cavitation energy         =       0.03405116 Ry
     electrolyte free energy   =      -0.00104985 Ry
     correction to one-el term =      41.18154144 Ry

     iteration # 11     ecut=    80.00 Ry     beta= 0.20
     Davidson diagonalization with overlap

---- Real-time Memory Report at c_bands before calling an iterative solver
           816 MiB given to the printing process from OS
             0 MiB allocation reported by mallinfo(arena+hblkhd)
        206727 MiB available memory on the node where the printing process lives
------------------
     ethr =  3.04E-07,  avg # of iterations = 11.3

     negative rho (up, down):  9.099E-04 0.000E+00

     add environment contribution to local potential

     total cpu time spent up to now is     1037.1 secs

     total energy              =    -781.91500505 Ry
     estimated scf accuracy    <       0.00047038 Ry

     total charge of GC-SCF    =      -1.22470713 e
     the Fermi energy          =      -2.50402388 eV
                        (error :       0.10002388 eV)
     electrostatic embedding   =      -0.23963788 Ry
     cavitation energy         =       0.03405116 Ry
     electrolyte free energy   =      -0.00117177 Ry
     correction to one-el term =      43.94479643 Ry

     iteration # 12     ecut=    80.00 Ry     beta= 0.20
     Davidson diagonalization with overlap

---- Real-time Memory Report at c_bands before calling an iterative solver
           816 MiB given to the printing process from OS
             0 MiB allocation reported by mallinfo(arena+hblkhd)
        206727 MiB available memory on the node where the printing process lives
------------------
     ethr =  2.99E-07,  avg # of iterations = 19.3

     negative rho (up, down):  8.203E-04 0.000E+00

     add environment contribution to local potential

     total cpu time spent up to now is     1105.2 secs

     total energy              =    -781.92085802 Ry
     estimated scf accuracy    <       0.00004371 Ry

     total charge of GC-SCF    =      -1.30819779 e
     the Fermi energy          =      -2.54660432 eV
                        (error :       0.14260432 eV)
     electrostatic embedding   =      -0.30647598 Ry
     cavitation energy         =       0.03405116 Ry
     electrolyte free energy   =      -0.00162260 Ry
     correction to one-el term =      49.83236204 Ry

     iteration # 13     ecut=    80.00 Ry     beta= 0.20
     Davidson diagonalization with overlap

---- Real-time Memory Report at c_bands before calling an iterative solver
           816 MiB given to the printing process from OS
             0 MiB allocation reported by mallinfo(arena+hblkhd)
        206761 MiB available memory on the node where the printing process lives
------------------
     ethr =  2.78E-08,  avg # of iterations = 28.0

     negative rho (up, down):  7.624E-04 0.000E+00

     add environment contribution to local potential

     total cpu time spent up to now is     1196.4 secs

     total energy              =    -781.92404462 Ry
     estimated scf accuracy    <       0.00006048 Ry

     total charge of GC-SCF    =      -1.32528293 e
     the Fermi energy          =      -2.52872304 eV
                        (error :       0.12472304 eV)
     electrostatic embedding   =      -0.33636315 Ry
     cavitation energy         =       0.03405116 Ry
     electrolyte free energy   =      -0.00170252 Ry
     correction to one-el term =      52.76138776 Ry

     iteration # 14     ecut=    80.00 Ry     beta= 0.20
     Davidson diagonalization with overlap

---- Real-time Memory Report at c_bands before calling an iterative solver
           816 MiB given to the printing process from OS
             0 MiB allocation reported by mallinfo(arena+hblkhd)
        206600 MiB available memory on the node where the printing process lives
------------------
     ethr =  2.78E-08,  avg # of iterations = 12.2

     negative rho (up, down):  7.155E-04 0.000E+00

     add environment contribution to local potential

     total cpu time spent up to now is     1240.5 secs

     total energy              =    -781.92124185 Ry
     estimated scf accuracy    <       0.00006028 Ry

     total charge of GC-SCF    =      -1.45566381 e
     the Fermi energy          =      -2.52871304 eV
                        (error :       0.12471304 eV)
     electrostatic embedding   =      -0.34170359 Ry
     cavitation energy         =       0.03405116 Ry
     electrolyte free energy   =      -0.00172058 Ry
     correction to one-el term =      53.21991130 Ry

     iteration # 15     ecut=    80.00 Ry     beta= 0.20
     Davidson diagonalization with overlap

---- Real-time Memory Report at c_bands before calling an iterative solver
           816 MiB given to the printing process from OS
             0 MiB allocation reported by mallinfo(arena+hblkhd)
        206616 MiB available memory on the node where the printing process lives
------------------
     ethr =  2.78E-08,  avg # of iterations = 22.5

     negative rho (up, down):  6.775E-04 0.000E+00

     add environment contribution to local potential

     total cpu time spent up to now is     1324.0 secs

     total energy              =    -781.92271243 Ry
     estimated scf accuracy    <       0.00003543 Ry

     total charge of GC-SCF    =      -1.62783168 e
     the Fermi energy          =      -2.51978483 eV
                        (error :       0.11578483 eV)
     electrostatic embedding   =      -0.39258282 Ry
     cavitation energy         =       0.03405116 Ry
     electrolyte free energy   =      -0.00194405 Ry
     correction to one-el term =      57.68292351 Ry

     iteration # 16     ecut=    80.00 Ry     beta= 0.20
     Davidson diagonalization with overlap

---- Real-time Memory Report at c_bands before calling an iterative solver
           816 MiB given to the printing process from OS
             0 MiB allocation reported by mallinfo(arena+hblkhd)
        206610 MiB available memory on the node where the printing process lives
------------------
     ethr =  2.25E-08,  avg # of iterations = 26.5

     negative rho (up, down):  6.477E-04 0.000E+00

     add environment contribution to local potential

     total cpu time spent up to now is     1407.0 secs

     total energy              =    -781.92490607 Ry
     estimated scf accuracy    <       0.00002720 Ry

     total charge of GC-SCF    =      -1.78592085 e
     the Fermi energy          =      -2.50284965 eV
                        (error :       0.09884965 eV)
     electrostatic embedding   =      -0.46569716 Ry
     cavitation energy         =       0.03405116 Ry
     electrolyte free energy   =      -0.00229522 Ry
     correction to one-el term =      63.62442153 Ry

     iteration # 17     ecut=    80.00 Ry     beta= 0.20
     Davidson diagonalization with overlap

---- Real-time Memory Report at c_bands before calling an iterative solver
           816 MiB given to the printing process from OS
             0 MiB allocation reported by mallinfo(arena+hblkhd)
        206591 MiB available memory on the node where the printing process lives
------------------
     ethr =  1.72E-08,  avg # of iterations = 23.5

     negative rho (up, down):  6.230E-04 0.000E+00

     add environment contribution to local potential

     total cpu time spent up to now is     1481.0 secs

     total energy              =    -781.92693458 Ry
     estimated scf accuracy    <       0.00001573 Ry

     total charge of GC-SCF    =      -1.97220496 e
     the Fermi energy          =      -2.49074516 eV
                        (error :       0.08674516 eV)
     electrostatic embedding   =      -0.53971849 Ry
     cavitation energy         =       0.03405116 Ry
     electrolyte free energy   =      -0.00271174 Ry
     correction to one-el term =      69.07236952 Ry

     iteration # 18     ecut=    80.00 Ry     beta= 0.20
     Davidson diagonalization with overlap

---- Real-time Memory Report at c_bands before calling an iterative solver
           816 MiB given to the printing process from OS
             0 MiB allocation reported by mallinfo(arena+hblkhd)
        206612 MiB available memory on the node where the printing process lives
------------------
     ethr =  9.95E-09,  avg # of iterations = 26.4

     negative rho (up, down):  6.002E-04 0.000E+00

     add environment contribution to local potential

     total cpu time spent up to now is     1563.6 secs

     total energy              =    -781.92951660 Ry
     estimated scf accuracy    <       0.00001083 Ry

     total charge of GC-SCF    =      -2.17937409 e
     the Fermi energy          =      -2.47171247 eV
                        (error :       0.06771247 eV)
     electrostatic embedding   =      -0.63392630 Ry
     cavitation energy         =       0.03405116 Ry
     electrolyte free energy   =      -0.00328378 Ry
     correction to one-el term =      75.53787673 Ry

     iteration # 19     ecut=    80.00 Ry     beta= 0.20
     Davidson diagonalization with overlap

---- Real-time Memory Report at c_bands before calling an iterative solver
           816 MiB given to the printing process from OS
             0 MiB allocation reported by mallinfo(arena+hblkhd)
        206614 MiB available memory on the node where the printing process lives
------------------
     ethr =  6.85E-09,  avg # of iterations = 33.7

     negative rho (up, down):  5.848E-04 0.000E+00

     add environment contribution to local potential

     total cpu time spent up to now is     1670.6 secs

     total energy              =    -781.92982295 Ry
     estimated scf accuracy    <       0.00000825 Ry

     total charge of GC-SCF    =      -2.28861552 e
     the Fermi energy          =      -2.45073538 eV
                        (error :       0.04673538 eV)
     electrostatic embedding   =      -0.74669016 Ry
     cavitation energy         =       0.03405116 Ry
     electrolyte free energy   =      -0.00403520 Ry
     correction to one-el term =      82.61569936 Ry

     iteration # 20     ecut=    80.00 Ry     beta= 0.20
     Davidson diagonalization with overlap

---- Real-time Memory Report at c_bands before calling an iterative solver
           816 MiB given to the printing process from OS
             0 MiB allocation reported by mallinfo(arena+hblkhd)
        206649 MiB available memory on the node where the printing process lives
------------------
     ethr =  5.21E-09,  avg # of iterations = 30.4

     negative rho (up, down):  5.716E-04 0.000E+00

     add environment contribution to local potential

     total cpu time spent up to now is     1763.0 secs

     total energy              =    -781.93024995 Ry
     estimated scf accuracy    <       0.00000673 Ry

     total charge of GC-SCF    =      -2.36577215 e
     the Fermi energy          =      -2.44163334 eV
                        (error :       0.03763334 eV)
     electrostatic embedding   =      -0.80994714 Ry
     cavitation energy         =       0.03405116 Ry
     electrolyte free energy   =      -0.00448877 Ry
     correction to one-el term =      86.30598088 Ry

     iteration # 21     ecut=    80.00 Ry     beta= 0.20
     Davidson diagonalization with overlap

---- Real-time Memory Report at c_bands before calling an iterative solver
           816 MiB given to the printing process from OS
             0 MiB allocation reported by mallinfo(arena+hblkhd)
        206579 MiB available memory on the node where the printing process lives
------------------
     ethr =  4.25E-09,  avg # of iterations = 28.0

     negative rho (up, down):  5.576E-04 0.000E+00

     add environment contribution to local potential

     total cpu time spent up to now is     1848.6 secs

     total energy              =    -781.93210091 Ry
     estimated scf accuracy    <       0.00000563 Ry

     total charge of GC-SCF    =      -2.53583853 e
     the Fermi energy          =      -2.43666941 eV
                        (error :       0.03266941 eV)
     electrostatic embedding   =      -0.85522820 Ry
     cavitation energy         =       0.03405116 Ry
     electrolyte free energy   =      -0.00482520 Ry
     correction to one-el term =      88.80445310 Ry

     iteration # 22     ecut=    80.00 Ry     beta= 0.20
     Davidson diagonalization with overlap

---- Real-time Memory Report at c_bands before calling an iterative solver
           816 MiB given to the printing process from OS
             0 MiB allocation reported by mallinfo(arena+hblkhd)
        206552 MiB available memory on the node where the printing process lives
------------------
     ethr =  3.55E-09,  avg # of iterations = 27.5

     negative rho (up, down):  5.431E-04 0.000E+00

     add environment contribution to local potential

     total cpu time spent up to now is     1941.8 secs

     total energy              =    -781.93348515 Ry
     estimated scf accuracy    <       0.00000389 Ry

     total charge of GC-SCF    =      -2.71571737 e
     the Fermi energy          =      -2.42353063 eV
                        (error :       0.01953063 eV)
     electrostatic embedding   =      -0.96090576 Ry
     cavitation energy         =       0.03405116 Ry
     electrolyte free energy   =      -0.00564707 Ry
     correction to one-el term =      94.45906435 Ry

     iteration # 23     ecut=    80.00 Ry     beta= 0.20
     Davidson diagonalization with overlap

---- Real-time Memory Report at c_bands before calling an iterative solver
           816 MiB given to the printing process from OS
             0 MiB allocation reported by mallinfo(arena+hblkhd)
        206667 MiB available memory on the node where the printing process lives
------------------
     c_bands:  1 eigenvalues not converged
     ethr =  2.45E-09,  avg # of iterations = 49.4

     negative rho (up, down):  5.359E-04 0.000E+00

     add environment contribution to local potential

     total cpu time spent up to now is     2092.0 secs

     total energy              =    -781.93140546 Ry
     estimated scf accuracy    <       0.00000167 Ry

     total charge of GC-SCF    =      -2.72353715 e
     the Fermi energy          =      -2.41149637 eV
                        (error :       0.00749637 eV)
     electrostatic embedding   =      -1.07757829 Ry
     cavitation energy         =       0.03405116 Ry
     electrolyte free energy   =      -0.00661308 Ry
     correction to one-el term =     100.24956702 Ry

     iteration # 24     ecut=    80.00 Ry     beta= 0.20
     Davidson diagonalization with overlap

---- Real-time Memory Report at c_bands before calling an iterative solver
           816 MiB given to the printing process from OS
             0 MiB allocation reported by mallinfo(arena+hblkhd)
        206692 MiB available memory on the node where the printing process lives
------------------
     c_bands:  1 eigenvalues not converged
     ethr =  1.05E-09,  avg # of iterations = 36.8

     negative rho (up, down):  5.304E-04 0.000E+00

     add environment contribution to local potential

     total cpu time spent up to now is     2197.5 secs

     total energy              =    -781.93189839 Ry
     estimated scf accuracy    <       0.00000100 Ry

     total charge of GC-SCF    =      -2.80364154 e
     the Fermi energy          =      -2.41272679 eV
                        (error :       0.00872679 eV)
     electrostatic embedding   =      -1.07986142 Ry
     cavitation energy         =       0.03405116 Ry
     electrolyte free energy   =      -0.00662653 Ry
     correction to one-el term =     100.25764858 Ry

     iteration # 25     ecut=    80.00 Ry     beta= 0.20
     Davidson diagonalization with overlap

---- Real-time Memory Report at c_bands before calling an iterative solver
           816 MiB given to the printing process from OS
             0 MiB allocation reported by mallinfo(arena+hblkhd)
        206546 MiB available memory on the node where the printing process lives
------------------
     c_bands:  1 eigenvalues not converged
     ethr =  6.28E-10,  avg # of iterations = 44.6

     negative rho (up, down):  5.270E-04 0.000E+00

     add environment contribution to local potential

     total cpu time spent up to now is     2336.3 secs

     total energy              =    -781.93156337 Ry
     estimated scf accuracy    <       0.00000053 Ry

     total charge of GC-SCF    =      -2.83504706 e
     the Fermi energy          =      -2.40488665 eV
                        (error :       0.00088665 eV)
     electrostatic embedding   =      -1.13522595 Ry
     cavitation energy         =       0.03405116 Ry
     electrolyte free energy   =      -0.00711383 Ry
     correction to one-el term =     102.95605568 Ry

     iteration # 26     ecut=    80.00 Ry     beta= 0.20
     Davidson diagonalization with overlap

---- Real-time Memory Report at c_bands before calling an iterative solver
           816 MiB given to the printing process from OS
             0 MiB allocation reported by mallinfo(arena+hblkhd)
        206616 MiB available memory on the node where the printing process lives
------------------
     ethr =  3.34E-10,  avg # of iterations = 44.8

     negative rho (up, down):  5.247E-04 0.000E+00

     add environment contribution to local potential

     total cpu time spent up to now is     2461.4 secs

     total energy              =    -781.93148701 Ry
     estimated scf accuracy    <       0.00000012 Ry

     total charge of GC-SCF    =      -2.84251467 e
     the Fermi energy          =      -2.40356394 eV
                        (error :       0.00043606 eV)
     electrostatic embedding   =      -1.15515911 Ry
     cavitation energy         =       0.03405116 Ry
     electrolyte free energy   =      -0.00729103 Ry
     correction to one-el term =     103.83381432 Ry

     iteration # 27     ecut=    80.00 Ry     beta= 0.20
     Davidson diagonalization with overlap

---- Real-time Memory Report at c_bands before calling an iterative solver
           816 MiB given to the printing process from OS
             0 MiB allocation reported by mallinfo(arena+hblkhd)
        206570 MiB available memory on the node where the printing process lives
------------------
     c_bands:  1 eigenvalues not converged
     ethr =  7.68E-11,  avg # of iterations = 41.3

     negative rho (up, down):  5.234E-04 0.000E+00

     add environment contribution to local potential

     total cpu time spent up to now is     2575.1 secs

     total energy              =    -781.93148086 Ry
     estimated scf accuracy    <       0.00000007 Ry

     total charge of GC-SCF    =      -2.84302250 e
     the Fermi energy          =      -2.40308231 eV
                        (error :       0.00091769 eV)
     electrostatic embedding   =      -1.15996671 Ry
     cavitation energy         =       0.03405116 Ry
     electrolyte free energy   =      -0.00733393 Ry
     correction to one-el term =     104.04925322 Ry

     iteration # 28     ecut=    80.00 Ry     beta= 0.20
     Davidson diagonalization with overlap

---- Real-time Memory Report at c_bands before calling an iterative solver
           816 MiB given to the printing process from OS
             0 MiB allocation reported by mallinfo(arena+hblkhd)
        206524 MiB available memory on the node where the printing process lives
------------------
     ethr =  4.48E-11,  avg # of iterations = 24.9

     negative rho (up, down):  5.223E-04 0.000E+00

     add environment contribution to local potential

     total cpu time spent up to now is     2665.4 secs

     total energy              =    -781.93148275 Ry
     estimated scf accuracy    <       0.00000004 Ry

     total charge of GC-SCF    =      -2.83733946 e
     the Fermi energy          =      -2.40317523 eV
                        (error :       0.00082477 eV)
     electrostatic embedding   =      -1.16026729 Ry
     cavitation energy         =       0.03405116 Ry
     electrolyte free energy   =      -0.00733570 Ry
     correction to one-el term =     104.06313554 Ry

     iteration # 29     ecut=    80.00 Ry     beta= 0.20
     Davidson diagonalization with overlap

---- Real-time Memory Report at c_bands before calling an iterative solver
           816 MiB given to the printing process from OS
             0 MiB allocation reported by mallinfo(arena+hblkhd)
        206508 MiB available memory on the node where the printing process lives
------------------
     ethr =  2.22E-11,  avg # of iterations = 26.8

     negative rho (up, down):  5.213E-04 0.000E+00

     add environment contribution to local potential

     total cpu time spent up to now is     2748.5 secs

     total energy              =    -781.93148119 Ry
     estimated scf accuracy    <       0.00000002 Ry

     total charge of GC-SCF    =      -2.83547616 e
     the Fermi energy          =      -2.40372782 eV
                        (error :       0.00027218 eV)
     electrostatic embedding   =      -1.15616475 Ry
     cavitation energy         =       0.03405116 Ry
     electrolyte free energy   =      -0.00729771 Ry
     correction to one-el term =     103.86881964 Ry

     iteration # 30     ecut=    80.00 Ry     beta= 0.20
     Davidson diagonalization with overlap

---- Real-time Memory Report at c_bands before calling an iterative solver
           816 MiB given to the printing process from OS
             0 MiB allocation reported by mallinfo(arena+hblkhd)
        206499 MiB available memory on the node where the printing process lives
------------------
     ethr =  1.14E-11,  avg # of iterations = 18.5

     negative rho (up, down):  5.204E-04 0.000E+00

     add environment contribution to local potential

     total cpu time spent up to now is     2821.8 secs

     total energy              =    -781.93148126 Ry
     estimated scf accuracy    <          9.0E-09 Ry

     total charge of GC-SCF    =      -2.83374182 e
     the Fermi energy          =      -2.40379646 eV
                        (error :       0.00020354 eV)
     electrostatic embedding   =      -1.15486478 Ry
     cavitation energy         =       0.03405116 Ry
     electrolyte free energy   =      -0.00728543 Ry
     correction to one-el term =     103.81093323 Ry

     iteration # 31     ecut=    80.00 Ry     beta= 0.20
     Davidson diagonalization with overlap

---- Real-time Memory Report at c_bands before calling an iterative solver
           816 MiB given to the printing process from OS
             0 MiB allocation reported by mallinfo(arena+hblkhd)
        206505 MiB available memory on the node where the printing process lives
------------------
     ethr =  5.67E-12,  avg # of iterations = 17.8

     negative rho (up, down):  5.197E-04 0.000E+00

     add environment contribution to local potential

     total cpu time spent up to now is     2896.3 secs

     total energy              =    -781.93148149 Ry
     estimated scf accuracy    <          6.7E-09 Ry

     total charge of GC-SCF    =      -2.83145563 e
     the Fermi energy          =      -2.40392195 eV
                        (error :       0.00007805 eV)
     electrostatic embedding   =      -1.15366299 Ry
     cavitation energy         =       0.03405116 Ry
     electrolyte free energy   =      -0.00727433 Ry
     correction to one-el term =     103.75599195 Ry

     iteration # 32     ecut=    80.00 Ry     beta= 0.20
     Davidson diagonalization with overlap

---- Real-time Memory Report at c_bands before calling an iterative solver
           816 MiB given to the printing process from OS
             0 MiB allocation reported by mallinfo(arena+hblkhd)
        206522 MiB available memory on the node where the printing process lives
------------------
     ethr =  4.24E-12,  avg # of iterations = 28.6

     negative rho (up, down):  5.191E-04 0.000E+00

     add environment contribution to local potential

     total cpu time spent up to now is     2988.2 secs

     total energy              =    -781.93148154 Ry
     estimated scf accuracy    <          3.7E-09 Ry

     total charge of GC-SCF    =      -2.82918327 e
     the Fermi energy          =      -2.40405915 eV
                        (error :       0.00005915 eV)
     electrostatic embedding   =      -1.15208436 Ry
     cavitation energy         =       0.03405116 Ry
     electrolyte free energy   =      -0.00726005 Ry
     correction to one-el term =     103.68375036 Ry

     iteration # 33     ecut=    80.00 Ry     beta= 0.20
     Davidson diagonalization with overlap

---- Real-time Memory Report at c_bands before calling an iterative solver
           816 MiB given to the printing process from OS
             0 MiB allocation reported by mallinfo(arena+hblkhd)
        206509 MiB available memory on the node where the printing process lives
------------------
     ethr =  2.31E-12,  avg # of iterations = 38.8

     negative rho (up, down):  5.186E-04 0.000E+00

     add environment contribution to local potential

     total cpu time spent up to now is     3101.6 secs

     total energy              =    -781.93148132 Ry
     estimated scf accuracy    <          1.5E-09 Ry

     total charge of GC-SCF    =      -2.82733209 e
     the Fermi energy          =      -2.40422514 eV
                        (error :       0.00022514 eV)
     electrostatic embedding   =      -1.15051013 Ry
     cavitation energy         =       0.03405116 Ry
     electrolyte free energy   =      -0.00724586 Ry
     correction to one-el term =     103.61064487 Ry

     iteration # 34     ecut=    80.00 Ry     beta= 0.20
     Davidson diagonalization with overlap

---- Real-time Memory Report at c_bands before calling an iterative solver
           816 MiB given to the printing process from OS
             0 MiB allocation reported by mallinfo(arena+hblkhd)
        206465 MiB available memory on the node where the printing process lives
------------------
     ethr =  9.53E-13,  avg # of iterations = 43.7

     negative rho (up, down):  5.181E-04 0.000E+00

     add environment contribution to local potential

     total cpu time spent up to now is     3227.4 secs

     total energy              =    -781.93148071 Ry
     estimated scf accuracy    <          1.1E-09 Ry

     total charge of GC-SCF    =      -2.82762478 e
     the Fermi energy          =      -2.40436567 eV
                        (error :       0.00036567 eV)
     electrostatic embedding   =      -1.14924254 Ry
     cavitation energy         =       0.03405116 Ry
     electrolyte free energy   =      -0.00723446 Ry
     correction to one-el term =     103.55191618 Ry

     iteration # 35     ecut=    80.00 Ry     beta= 0.20
     Davidson diagonalization with overlap

---- Real-time Memory Report at c_bands before calling an iterative solver
           816 MiB given to the printing process from OS
             0 MiB allocation reported by mallinfo(arena+hblkhd)
        206552 MiB available memory on the node where the printing process lives
------------------
     ethr =  6.99E-13,  avg # of iterations = 42.3

     negative rho (up, down):  5.177E-04 0.000E+00

     add environment contribution to local potential

     total cpu time spent up to now is     3356.1 secs

     total energy              =    -781.93148072 Ry
     estimated scf accuracy    <          7.0E-10 Ry

     total charge of GC-SCF    =      -2.82794273 e
     the Fermi energy          =      -2.40435090 eV
                        (error :       0.00035090 eV)
     electrostatic embedding   =      -1.14945697 Ry
     cavitation energy         =       0.03405116 Ry
     electrolyte free energy   =      -0.00723643 Ry
     correction to one-el term =     103.56204703 Ry

     iteration # 36     ecut=    80.00 Ry     beta= 0.20
     Davidson diagonalization with overlap

---- Real-time Memory Report at c_bands before calling an iterative solver
           816 MiB given to the printing process from OS
             0 MiB allocation reported by mallinfo(arena+hblkhd)
        206591 MiB available memory on the node where the printing process lives
------------------
     ethr =  4.40E-13,  avg # of iterations = 41.3

     negative rho (up, down):  5.174E-04 0.000E+00

     add environment contribution to local potential

     total cpu time spent up to now is     3489.3 secs

     total energy              =    -781.93148084 Ry
     estimated scf accuracy    <          6.4E-10 Ry

     total charge of GC-SCF    =      -2.82930499 e
     the Fermi energy          =      -2.40430316 eV
                        (error :       0.00030316 eV)
     electrostatic embedding   =      -1.14969568 Ry
     cavitation energy         =       0.03405116 Ry
     electrolyte free energy   =      -0.00723859 Ry
     correction to one-el term =     103.57399922 Ry

     iteration # 37     ecut=    80.00 Ry     beta= 0.20
     Davidson diagonalization with overlap

---- Real-time Memory Report at c_bands before calling an iterative solver
           816 MiB given to the printing process from OS
             0 MiB allocation reported by mallinfo(arena+hblkhd)
        206560 MiB available memory on the node where the printing process lives
------------------
     ethr =  4.01E-13,  avg # of iterations = 53.0

     negative rho (up, down):  5.172E-04 0.000E+00

     add environment contribution to local potential

     total cpu time spent up to now is     3639.6 secs

     total energy              =    -781.93148085 Ry
     estimated scf accuracy    <          2.5E-10 Ry

     total charge of GC-SCF    =      -2.82998116 e
     the Fermi energy          =      -2.40419558 eV
                        (error :       0.00019558 eV)
     electrostatic embedding   =      -1.15066157 Ry
     cavitation energy         =       0.03405116 Ry
     electrolyte free energy   =      -0.00724733 Ry
     correction to one-el term =     103.61954918 Ry

     iteration # 38     ecut=    80.00 Ry     beta= 0.20
     Davidson diagonalization with overlap

---- Real-time Memory Report at c_bands before calling an iterative solver
           816 MiB given to the printing process from OS
             0 MiB allocation reported by mallinfo(arena+hblkhd)
        206514 MiB available memory on the node where the printing process lives
------------------
     ethr =  1.55E-13,  avg # of iterations = 54.2

     negative rho (up, down):  5.169E-04 0.000E+00

     add environment contribution to local potential

     total cpu time spent up to now is     3788.1 secs

     total energy              =    -781.93148095 Ry
     estimated scf accuracy    <          2.1E-10 Ry

     total charge of GC-SCF    =      -2.83103143 e
     the Fermi energy          =      -2.40414548 eV
                        (error :       0.00014548 eV)
     electrostatic embedding   =      -1.15112956 Ry
     cavitation energy         =       0.03405116 Ry
     electrolyte free energy   =      -0.00725159 Ry
     correction to one-el term =     103.64103096 Ry

     iteration # 39     ecut=    80.00 Ry     beta= 0.20
     Davidson diagonalization with overlap

---- Real-time Memory Report at c_bands before calling an iterative solver
           816 MiB given to the printing process from OS
             0 MiB allocation reported by mallinfo(arena+hblkhd)
        206489 MiB available memory on the node where the printing process lives
------------------
     ethr =  1.32E-13,  avg # of iterations = 53.5

     negative rho (up, down):  5.168E-04 0.000E+00

     add environment contribution to local potential

     total cpu time spent up to now is     3945.5 secs

     total energy              =    -781.93148094 Ry
     estimated scf accuracy    <          9.5E-11 Ry

     total charge of GC-SCF    =      -2.83159630 e
     the Fermi energy          =      -2.40407249 eV
                        (error :       0.00007249 eV)
     electrostatic embedding   =      -1.15186062 Ry
     cavitation energy         =       0.03405116 Ry
     electrolyte free energy   =      -0.00725821 Ry
     correction to one-el term =     103.67478156 Ry

     iteration # 40     ecut=    80.00 Ry     beta= 0.20
     Davidson diagonalization with overlap

---- Real-time Memory Report at c_bands before calling an iterative solver
           816 MiB given to the printing process from OS
             0 MiB allocation reported by mallinfo(arena+hblkhd)
        206566 MiB available memory on the node where the printing process lives
------------------
     ethr =  1.00E-13,  avg # of iterations = 53.9

     negative rho (up, down):  5.167E-04 0.000E+00

     add environment contribution to local potential

     total cpu time spent up to now is     4093.5 secs

     total energy              =    -781.93148095 Ry
     estimated scf accuracy    <          6.4E-11 Ry

     total charge of GC-SCF    =      -2.83198980 e
     the Fermi energy          =      -2.40403549 eV
                        (error :       0.00003549 eV)
     electrostatic embedding   =      -1.15225160 Ry
     cavitation energy         =       0.03405116 Ry
     electrolyte free energy   =      -0.00726175 Ry
     correction to one-el term =     103.69268237 Ry

     iteration # 41     ecut=    80.00 Ry     beta= 0.20
     Davidson diagonalization with overlap

---- Real-time Memory Report at c_bands before calling an iterative solver
           816 MiB given to the printing process from OS
             0 MiB allocation reported by mallinfo(arena+hblkhd)
        206635 MiB available memory on the node where the printing process lives
------------------
     ethr =  1.00E-13,  avg # of iterations = 51.9

     negative rho (up, down):  5.166E-04 0.000E+00

     add environment contribution to local potential

     total cpu time spent up to now is     4239.2 secs

     total energy              =    -781.93148095 Ry
     estimated scf accuracy    <          4.5E-11 Ry

     total charge of GC-SCF    =      -2.83214083 e
     the Fermi energy          =      -2.40401324 eV
                        (error :       0.00001324 eV)
     electrostatic embedding   =      -1.15251833 Ry
     cavitation energy         =       0.03405116 Ry
     electrolyte free energy   =      -0.00726417 Ry
     correction to one-el term =     103.70464441 Ry

     iteration # 42     ecut=    80.00 Ry     beta= 0.20
     Davidson diagonalization with overlap

---- Real-time Memory Report at c_bands before calling an iterative solver
           816 MiB given to the printing process from OS
             0 MiB allocation reported by mallinfo(arena+hblkhd)
        206616 MiB available memory on the node where the printing process lives
------------------
     ethr =  1.00E-13,  avg # of iterations = 43.2

     negative rho (up, down):  5.165E-04 0.000E+00

     add environment contribution to local potential

     total cpu time spent up to now is     4377.1 secs

     total energy              =    -781.93148096 Ry
     estimated scf accuracy    <          3.8E-11 Ry

     total charge of GC-SCF    =      -2.83248694 e
     the Fermi energy          =      -2.40400388 eV
                        (error :       0.00000388 eV)
     electrostatic embedding   =      -1.15261954 Ry
     cavitation energy         =       0.03405116 Ry
     electrolyte free energy   =      -0.00726507 Ry
     correction to one-el term =     103.70920602 Ry

     iteration # 43     ecut=    80.00 Ry     beta= 0.20
     Davidson diagonalization with overlap

---- Real-time Memory Report at c_bands before calling an iterative solver
           816 MiB given to the printing process from OS
             0 MiB allocation reported by mallinfo(arena+hblkhd)
        206616 MiB available memory on the node where the printing process lives
------------------
     ethr =  1.00E-13,  avg # of iterations = 47.7

     negative rho (up, down):  5.164E-04 0.000E+00

     add environment contribution to local potential

     total cpu time spent up to now is     4515.8 secs

     total energy              =    -781.93148096 Ry
     estimated scf accuracy    <          1.3E-11 Ry

     total charge of GC-SCF    =      -2.83260082 e
     the Fermi energy          =      -2.40398144 eV
                        (error :       0.00001856 eV)
     electrostatic embedding   =      -1.15285714 Ry
     cavitation energy         =       0.03405116 Ry
     electrolyte free energy   =      -0.00726720 Ry
     correction to one-el term =     103.72008719 Ry

     iteration # 44     ecut=    80.00 Ry     beta= 0.20
     Davidson diagonalization with overlap

---- Real-time Memory Report at c_bands before calling an iterative solver
           816 MiB given to the printing process from OS
             0 MiB allocation reported by mallinfo(arena+hblkhd)
        206595 MiB available memory on the node where the printing process lives
------------------
     ethr =  1.00E-13,  avg # of iterations = 39.8

     negative rho (up, down):  5.164E-04 0.000E+00

     add environment contribution to local potential

     total cpu time spent up to now is     4641.5 secs

     total energy              =    -781.93148096 Ry
     estimated scf accuracy    <          9.7E-12 Ry

     total charge of GC-SCF    =      -2.83239883 e
     the Fermi energy          =      -2.40397264 eV
                        (error :       0.00002736 eV)
     electrostatic embedding   =      -1.15293579 Ry
     cavitation energy         =       0.03405116 Ry
     electrolyte free energy   =      -0.00726790 Ry
     correction to one-el term =     103.72376133 Ry

     iteration # 45     ecut=    80.00 Ry     beta= 0.20
     Davidson diagonalization with overlap

---- Real-time Memory Report at c_bands before calling an iterative solver
           816 MiB given to the printing process from OS
             0 MiB allocation reported by mallinfo(arena+hblkhd)
        206579 MiB available memory on the node where the printing process lives
------------------
     ethr =  1.00E-13,  avg # of iterations = 35.7

     negative rho (up, down):  5.163E-04 0.000E+00

     add environment contribution to local potential

     total cpu time spent up to now is     4759.9 secs

     total energy              =    -781.93148095 Ry
     estimated scf accuracy    <          5.9E-12 Ry

     total charge of GC-SCF    =      -2.83235442 e
     the Fermi energy          =      -2.40398640 eV
                        (error :       0.00001360 eV)
     electrostatic embedding   =      -1.15279288 Ry
     cavitation energy         =       0.03405116 Ry
     electrolyte free energy   =      -0.00726659 Ry
     correction to one-el term =     103.71710666 Ry

     iteration # 46     ecut=    80.00 Ry     beta= 0.20
     Davidson diagonalization with overlap

---- Real-time Memory Report at c_bands before calling an iterative solver
           816 MiB given to the printing process from OS
             0 MiB allocation reported by mallinfo(arena+hblkhd)
        206615 MiB available memory on the node where the printing process lives
------------------
     ethr =  1.00E-13,  avg # of iterations = 32.6

     negative rho (up, down):  5.163E-04 0.000E+00

     add environment contribution to local potential

     total cpu time spent up to now is     4863.6 secs

     total energy              =    -781.93148095 Ry
     estimated scf accuracy    <          1.3E-12 Ry

     total charge of GC-SCF    =      -2.83231732 e
     the Fermi energy          =      -2.40399092 eV
                        (error :       0.00000908 eV)
     electrostatic embedding   =      -1.15276278 Ry
     cavitation energy         =       0.03405116 Ry
     electrolyte free energy   =      -0.00726632 Ry
     correction to one-el term =     103.71570682 Ry

     iteration # 47     ecut=    80.00 Ry     beta= 0.20
     Davidson diagonalization with overlap

---- Real-time Memory Report at c_bands before calling an iterative solver
           816 MiB given to the printing process from OS
             0 MiB allocation reported by mallinfo(arena+hblkhd)
        206622 MiB available memory on the node where the printing process lives
------------------
     ethr =  1.00E-13,  avg # of iterations = 30.2

     negative rho (up, down):  5.163E-04 0.000E+00

     add environment contribution to local potential

     total cpu time spent up to now is     4960.9 secs

     total energy              =    -781.93148095 Ry
     estimated scf accuracy    <          9.4E-13 Ry

     total charge of GC-SCF    =      -2.83227481 e
     the Fermi energy          =      -2.40399396 eV
                        (error :       0.00000604 eV)
     electrostatic embedding   =      -1.15273686 Ry
     cavitation energy         =       0.03405116 Ry
     electrolyte free energy   =      -0.00726609 Ry
     correction to one-el term =     103.71449845 Ry

     iteration # 48     ecut=    80.00 Ry     beta= 0.20
     Davidson diagonalization with overlap

---- Real-time Memory Report at c_bands before calling an iterative solver
           816 MiB given to the printing process from OS
             0 MiB allocation reported by mallinfo(arena+hblkhd)
        206608 MiB available memory on the node where the printing process lives
------------------
     ethr =  1.00E-13,  avg # of iterations = 33.1

     negative rho (up, down):  5.163E-04 0.000E+00

     add environment contribution to local potential

     total cpu time spent up to now is     5065.8 secs

     total energy              =    -781.93148095 Ry
     estimated scf accuracy    <          2.7E-13 Ry

     total charge of GC-SCF    =      -2.83228115 e
     the Fermi energy          =      -2.40399725 eV
                        (error :       0.00000275 eV)
     electrostatic embedding   =      -1.15270649 Ry
     cavitation energy         =       0.03405116 Ry
     electrolyte free energy   =      -0.00726581 Ry
     correction to one-el term =     103.71308014 Ry

     iteration # 49     ecut=    80.00 Ry     beta= 0.20
     Davidson diagonalization with overlap

---- Real-time Memory Report at c_bands before calling an iterative solver
           816 MiB given to the printing process from OS
             0 MiB allocation reported by mallinfo(arena+hblkhd)
        206613 MiB available memory on the node where the printing process lives
------------------
     ethr =  1.00E-13,  avg # of iterations = 23.4

     negative rho (up, down):  5.163E-04 0.000E+00

     add environment contribution to local potential

     total cpu time spent up to now is     5149.7 secs

     total energy              =    -781.93148095 Ry
     estimated scf accuracy    <          1.7E-13 Ry

     total charge of GC-SCF    =      -2.83227770 e
     the Fermi energy          =      -2.40399680 eV
                        (error :       0.00000320 eV)
     electrostatic embedding   =      -1.15271055 Ry
     cavitation energy         =       0.03405116 Ry
     electrolyte free energy   =      -0.00726585 Ry
     correction to one-el term =     103.71326559 Ry

     iteration # 50     ecut=    80.00 Ry     beta= 0.20
     Davidson diagonalization with overlap

---- Real-time Memory Report at c_bands before calling an iterative solver
           816 MiB given to the printing process from OS
             0 MiB allocation reported by mallinfo(arena+hblkhd)
        206609 MiB available memory on the node where the printing process lives
------------------
     ethr =  1.00E-13,  avg # of iterations = 25.9

     negative rho (up, down):  5.163E-04 0.000E+00

     add environment contribution to local potential

     total cpu time spent up to now is     5236.5 secs

     total energy              =    -781.93148095 Ry
     estimated scf accuracy    <          7.9E-14 Ry

     total charge of GC-SCF    =      -2.83226573 e
     the Fermi energy          =      -2.40399693 eV
                        (error :       0.00000307 eV)
     electrostatic embedding   =      -1.15270790 Ry
     cavitation energy         =       0.03405116 Ry
     electrolyte free energy   =      -0.00726582 Ry
     correction to one-el term =     103.71314610 Ry

     iteration # 51     ecut=    80.00 Ry     beta= 0.20
     Davidson diagonalization with overlap

---- Real-time Memory Report at c_bands before calling an iterative solver
           816 MiB given to the printing process from OS
             0 MiB allocation reported by mallinfo(arena+hblkhd)
        206649 MiB available memory on the node where the printing process lives
------------------
     ethr =  1.00E-13,  avg # of iterations = 24.2

     negative rho (up, down):  5.162E-04 0.000E+00

     add environment contribution to local potential

     total cpu time spent up to now is     5322.7 secs

     total energy              =    -781.93148095 Ry
     estimated scf accuracy    <          4.1E-14 Ry

     total charge of GC-SCF    =      -2.83225644 e
     the Fermi energy          =      -2.40399783 eV
                        (error :       0.00000217 eV)
     electrostatic embedding   =      -1.15269950 Ry
     cavitation energy         =       0.03405116 Ry
     electrolyte free energy   =      -0.00726575 Ry
     correction to one-el term =     103.71275748 Ry

     iteration # 52     ecut=    80.00 Ry     beta= 0.20
     Davidson diagonalization with overlap

---- Real-time Memory Report at c_bands before calling an iterative solver
           816 MiB given to the printing process from OS
             0 MiB allocation reported by mallinfo(arena+hblkhd)
        206680 MiB available memory on the node where the printing process lives
------------------
     ethr =  1.00E-13,  avg # of iterations = 27.9

     negative rho (up, down):  5.162E-04 0.000E+00

     add environment contribution to local potential

     total cpu time spent up to now is     5413.7 secs

     total energy              =    -781.93148095 Ry
     estimated scf accuracy    <          2.0E-14 Ry

     total charge of GC-SCF    =      -2.83224583 e
     the Fermi energy          =      -2.40399864 eV
                        (error :       0.00000136 eV)
     electrostatic embedding   =      -1.15269304 Ry
     cavitation energy         =       0.03405116 Ry
     electrolyte free energy   =      -0.00726569 Ry
     correction to one-el term =     103.71246039 Ry

     iteration # 53     ecut=    80.00 Ry     beta= 0.20
     Davidson diagonalization with overlap

---- Real-time Memory Report at c_bands before calling an iterative solver
           816 MiB given to the printing process from OS
             0 MiB allocation reported by mallinfo(arena+hblkhd)
        206669 MiB available memory on the node where the printing process lives
------------------
     ethr =  1.00E-13,  avg # of iterations = 24.8

     negative rho (up, down):  5.162E-04 0.000E+00

     add environment contribution to local potential

     total cpu time spent up to now is     5499.2 secs

     total energy              =    -781.93148095 Ry
     estimated scf accuracy    <          1.1E-14 Ry

     total charge of GC-SCF    =      -2.83224100 e
     the Fermi energy          =      -2.40399951 eV
                        (error :       0.00000049 eV)
     electrostatic embedding   =      -1.15268567 Ry
[...]
     atom   50 type  1   force =     0.00000620   -0.50597036  -13.01413992
     atom   51 type  1   force =     0.00000878   -0.22624670   11.08796643
     atom   52 type  1   force =     0.00001443    0.28532460    8.24214751
     The local contribution  to forces
     atom    1 type  1   force =     0.00000000    0.45262562  -11.74612078
     atom    2 type  1   force =    -0.00000000    0.06275204   -6.89972402
     atom    3 type  1   force =     0.00000000   -0.33128266  -10.11168045
     atom    4 type  1   force =     0.00000000    0.06481002   -5.22961531
     atom    5 type  1   force =    -0.00000000    0.02148617   -0.49085697
     atom    6 type  1   force =    -0.00000000    0.09412037    4.28193188
     atom    7 type  1   force =     0.00000000   -0.06581447   -2.77793354
     atom    8 type  1   force =     0.00000000   -0.04218630    1.38702260
     atom    9 type  1   force =     0.00000000   -0.17205497    6.16568080
     atom   10 type  1   force =     0.00000000   -0.19331872   11.05731458
     atom   11 type  1   force =     0.00000000    0.25391330    8.20945463
     atom   12 type  1   force =    -0.00000000   -0.26688045   12.19782632
     atom   13 type  1   force =    -0.00000000   -0.51840358  -13.08234448
     atom   14 type  1   force =     0.00000471    0.16715166   -6.15483734
     atom   15 type  1   force =     0.00000816    0.03969676   -1.38333990
     atom   16 type  1   force =     0.00002516   -0.08804155   -4.27890393
     atom   17 type  1   force =     0.00001044   -0.02378231    0.48998328
     atom   18 type  1   force =    -0.00000668   -0.05117808    5.23192830
     atom   19 type  1   force =    -0.00000199    0.33459526   10.10051731
     atom   20 type  1   force =     0.00001454    0.06640314    2.77507709
     atom   21 type  1   force =     0.00001921   -0.07389721    6.89286753
     atom   22 type  1   force =     0.00000975   -0.43619190   11.75914032
     atom   23 type  1   force =     0.00000807    0.26320769  -12.20543884
     atom   24 type  1   force =     0.00000780    0.49406528   13.08895678
     atom   25 type  1   force =     0.00001003    0.21446420  -11.04315883
     atom   26 type  1   force =     0.00001572   -0.26832721   -8.20817266
     atom   27 type  1   force =     0.00000096    0.45262768  -11.74610702
     atom   28 type  1   force =     0.00000096    0.06275731   -6.89971018
     atom   29 type  1   force =     0.00000096   -0.33128310  -10.11165947
     atom   30 type  1   force =     0.00000096    0.06479194   -5.22959328
     atom   31 type  1   force =     0.00000096    0.02149179   -0.49083892
     atom   32 type  1   force =     0.00000096    0.09414014    4.28190368
     atom   33 type  1   force =     0.00000096   -0.06580698   -2.77791772
     atom   34 type  1   force =     0.00000096   -0.04217876    1.38704768
     atom   35 type  1   force =     0.00000096   -0.17208061    6.16570684
     atom   36 type  1   force =     0.00000096   -0.19333034   11.05734004
     atom   37 type  1   force =     0.00000096    0.25391752    8.20945770
     atom   38 type  1   force =     0.00000096   -0.26687811   12.19780539
     atom   39 type  1   force =     0.00000097   -0.51840599  -13.08234773
     atom   40 type  1   force =    -0.00000279    0.16715166   -6.15483734
     atom   41 type  1   force =    -0.00000624    0.03969676   -1.38333990
     atom   42 type  1   force =    -0.00002324   -0.08804155   -4.27890393
     atom   43 type  1   force =    -0.00000852   -0.02378231    0.48998328
     atom   44 type  1   force =     0.00000860   -0.05117808    5.23192830
     atom   45 type  1   force =     0.00000392    0.33459526   10.10051731
     atom   46 type  1   force =    -0.00001262    0.06640314    2.77507709
     atom   47 type  1   force =    -0.00001729   -0.07389721    6.89286753
     atom   48 type  1   force =    -0.00000783   -0.43619190   11.75914032
     atom   49 type  1   force =    -0.00000615    0.26320769  -12.20543884
     atom   50 type  1   force =    -0.00000588    0.49406528   13.08895678
     atom   51 type  1   force =    -0.00000810    0.21446420  -11.04315883
     atom   52 type  1   force =    -0.00001380   -0.26832721   -8.20817266
     The core correction contribution to forces
     atom    1 type  1   force =     0.00000000    0.00000000    0.00000000
     atom    2 type  1   force =     0.00000000    0.00000000    0.00000000
     atom    3 type  1   force =     0.00000000    0.00000000    0.00000000
     atom    4 type  1   force =     0.00000000    0.00000000    0.00000000
     atom    5 type  1   force =     0.00000000    0.00000000    0.00000000
     atom    6 type  1   force =     0.00000000    0.00000000    0.00000000
     atom    7 type  1   force =     0.00000000    0.00000000    0.00000000
     atom    8 type  1   force =     0.00000000    0.00000000    0.00000000
     atom    9 type  1   force =     0.00000000    0.00000000    0.00000000
     atom   10 type  1   force =     0.00000000    0.00000000    0.00000000
     atom   11 type  1   force =     0.00000000    0.00000000    0.00000000
     atom   12 type  1   force =     0.00000000    0.00000000    0.00000000
     atom   13 type  1   force =     0.00000000    0.00000000    0.00000000
     atom   14 type  1   force =     0.00000000    0.00000000    0.00000000
     atom   15 type  1   force =     0.00000000    0.00000000    0.00000000
     atom   16 type  1   force =     0.00000000    0.00000000    0.00000000
     atom   17 type  1   force =     0.00000000    0.00000000    0.00000000
     atom   18 type  1   force =     0.00000000    0.00000000    0.00000000
     atom   19 type  1   force =     0.00000000    0.00000000    0.00000000
     atom   20 type  1   force =     0.00000000    0.00000000    0.00000000
     atom   21 type  1   force =     0.00000000    0.00000000    0.00000000
     atom   22 type  1   force =     0.00000000    0.00000000    0.00000000
     atom   23 type  1   force =     0.00000000    0.00000000    0.00000000
     atom   24 type  1   force =     0.00000000    0.00000000    0.00000000
     atom   25 type  1   force =     0.00000000    0.00000000    0.00000000
     atom   26 type  1   force =     0.00000000    0.00000000    0.00000000
     atom   27 type  1   force =     0.00000000    0.00000000    0.00000000
     atom   28 type  1   force =     0.00000000    0.00000000    0.00000000
     atom   29 type  1   force =     0.00000000    0.00000000    0.00000000
     atom   30 type  1   force =     0.00000000    0.00000000    0.00000000
     atom   31 type  1   force =     0.00000000    0.00000000    0.00000000
     atom   32 type  1   force =     0.00000000    0.00000000    0.00000000
     atom   33 type  1   force =     0.00000000    0.00000000    0.00000000
     atom   34 type  1   force =     0.00000000    0.00000000    0.00000000
     atom   35 type  1   force =     0.00000000    0.00000000    0.00000000
     atom   36 type  1   force =     0.00000000    0.00000000    0.00000000
     atom   37 type  1   force =     0.00000000    0.00000000    0.00000000
     atom   38 type  1   force =     0.00000000    0.00000000    0.00000000
     atom   39 type  1   force =     0.00000000    0.00000000    0.00000000
     atom   40 type  1   force =     0.00000000    0.00000000    0.00000000
     atom   41 type  1   force =     0.00000000    0.00000000    0.00000000
     atom   42 type  1   force =     0.00000000    0.00000000    0.00000000
     atom   43 type  1   force =     0.00000000    0.00000000    0.00000000
     atom   44 type  1   force =     0.00000000    0.00000000    0.00000000
     atom   45 type  1   force =     0.00000000    0.00000000    0.00000000
     atom   46 type  1   force =     0.00000000    0.00000000    0.00000000
     atom   47 type  1   force =     0.00000000    0.00000000    0.00000000
     atom   48 type  1   force =     0.00000000    0.00000000    0.00000000
     atom   49 type  1   force =     0.00000000    0.00000000    0.00000000
     atom   50 type  1   force =     0.00000000    0.00000000    0.00000000
     atom   51 type  1   force =     0.00000000    0.00000000    0.00000000
     atom   52 type  1   force =     0.00000000    0.00000000    0.00000000
     The Hubbard contrib.    to forces
     atom    1 type  1   force =     0.00000000    0.00000000    0.00000000
     atom    2 type  1   force =     0.00000000    0.00000000    0.00000000
     atom    3 type  1   force =     0.00000000    0.00000000    0.00000000
     atom    4 type  1   force =     0.00000000    0.00000000    0.00000000
     atom    5 type  1   force =     0.00000000    0.00000000    0.00000000
     atom    6 type  1   force =     0.00000000    0.00000000    0.00000000
     atom    7 type  1   force =     0.00000000    0.00000000    0.00000000
     atom    8 type  1   force =     0.00000000    0.00000000    0.00000000
     atom    9 type  1   force =     0.00000000    0.00000000    0.00000000
     atom   10 type  1   force =     0.00000000    0.00000000    0.00000000
     atom   11 type  1   force =     0.00000000    0.00000000    0.00000000
     atom   12 type  1   force =     0.00000000    0.00000000    0.00000000
     atom   13 type  1   force =     0.00000000    0.00000000    0.00000000
     atom   14 type  1   force =     0.00000000    0.00000000    0.00000000
     atom   15 type  1   force =     0.00000000    0.00000000    0.00000000
     atom   16 type  1   force =     0.00000000    0.00000000    0.00000000
     atom   17 type  1   force =     0.00000000    0.00000000    0.00000000
     atom   18 type  1   force =     0.00000000    0.00000000    0.00000000
     atom   19 type  1   force =     0.00000000    0.00000000    0.00000000
     atom   20 type  1   force =     0.00000000    0.00000000    0.00000000
     atom   21 type  1   force =     0.00000000    0.00000000    0.00000000
     atom   22 type  1   force =     0.00000000    0.00000000    0.00000000
     atom   23 type  1   force =     0.00000000    0.00000000    0.00000000
     atom   24 type  1   force =     0.00000000    0.00000000    0.00000000
     atom   25 type  1   force =     0.00000000    0.00000000    0.00000000
     atom   26 type  1   force =     0.00000000    0.00000000    0.00000000
     atom   27 type  1   force =     0.00000000    0.00000000    0.00000000
     atom   28 type  1   force =     0.00000000    0.00000000    0.00000000
     atom   29 type  1   force =     0.00000000    0.00000000    0.00000000
     atom   30 type  1   force =     0.00000000    0.00000000    0.00000000
     atom   31 type  1   force =     0.00000000    0.00000000    0.00000000
     atom   32 type  1   force =     0.00000000    0.00000000    0.00000000
     atom   33 type  1   force =     0.00000000    0.00000000    0.00000000
     atom   34 type  1   force =     0.00000000    0.00000000    0.00000000
     atom   35 type  1   force =     0.00000000    0.00000000    0.00000000
     atom   36 type  1   force =     0.00000000    0.00000000    0.00000000
     atom   37 type  1   force =     0.00000000    0.00000000    0.00000000
     atom   38 type  1   force =     0.00000000    0.00000000    0.00000000
     atom   39 type  1   force =     0.00000000    0.00000000    0.00000000
     atom   40 type  1   force =     0.00000000    0.00000000    0.00000000
     atom   41 type  1   force =     0.00000000    0.00000000    0.00000000
     atom   42 type  1   force =     0.00000000    0.00000000    0.00000000
     atom   43 type  1   force =     0.00000000    0.00000000    0.00000000
     atom   44 type  1   force =     0.00000000    0.00000000    0.00000000
     atom   45 type  1   force =     0.00000000    0.00000000    0.00000000
     atom   46 type  1   force =     0.00000000    0.00000000    0.00000000
     atom   47 type  1   force =     0.00000000    0.00000000    0.00000000
     atom   48 type  1   force =     0.00000000    0.00000000    0.00000000
     atom   49 type  1   force =     0.00000000    0.00000000    0.00000000
     atom   50 type  1   force =     0.00000000    0.00000000    0.00000000
     atom   51 type  1   force =     0.00000000    0.00000000    0.00000000
     atom   52 type  1   force =     0.00000000    0.00000000    0.00000000
     The SCF correction term to forces
     atom    1 type  1   force =    -0.00000000    0.00000000    0.00000005
     atom    2 type  1   force =     0.00000000    0.00000000    0.00000000
     atom    3 type  1   force =     0.00000000    0.00000001    0.00000000
     atom    4 type  1   force =    -0.00000000    0.00000000   -0.00000000
     atom    5 type  1   force =     0.00000000    0.00000001   -0.00000000
     atom    6 type  1   force =     0.00000000   -0.00000000    0.00000001
     atom    7 type  1   force =     0.00000000   -0.00000001    0.00000000
     atom    8 type  1   force =    -0.00000000   -0.00000002    0.00000001
     atom    9 type  1   force =    -0.00000000    0.00000001   -0.00000001
     atom   10 type  1   force =    -0.00000000    0.00000000   -0.00000006
     atom   11 type  1   force =    -0.00000000   -0.00000001    0.00000001
     atom   12 type  1   force =     0.00000000    0.00000001   -0.00000003
     atom   13 type  1   force =     0.00000000    0.00000000    0.00000007
     atom   14 type  1   force =     0.00000000    0.00000001    0.00000001
     atom   15 type  1   force =     0.00000000    0.00000001    0.00000001
     atom   16 type  1   force =    -0.00000000   -0.00000001    0.00000001
     atom   17 type  1   force =     0.00000000    0.00000001    0.00000001
     atom   18 type  1   force =    -0.00000000    0.00000001    0.00000001
     atom   19 type  1   force =     0.00000000   -0.00000002   -0.00000002
     atom   20 type  1   force =     0.00000000   -0.00000001    0.00000002
     atom   21 type  1   force =    -0.00000000    0.00000000   -0.00000000
     atom   22 type  1   force =     0.00000000    0.00000001   -0.00000006
     atom   23 type  1   force =    -0.00000000   -0.00000001    0.00000003
     atom   24 type  1   force =    -0.00000001   -0.00000001   -0.00000008
     atom   25 type  1   force =    -0.00000000    0.00000000    0.00000005
     atom   26 type  1   force =    -0.00000000   -0.00000001   -0.00000001
     atom   27 type  1   force =     0.00000000    0.00000000    0.00000005
     atom   28 type  1   force =    -0.00000000    0.00000000   -0.00000000
     atom   29 type  1   force =     0.00000000    0.00000001    0.00000000
     atom   30 type  1   force =     0.00000000    0.00000000   -0.00000000
     atom   31 type  1   force =     0.00000000    0.00000001   -0.00000000
     atom   32 type  1   force =    -0.00000000    0.00000000    0.00000001
     atom   33 type  1   force =     0.00000000   -0.00000001    0.00000000
     atom   34 type  1   force =     0.00000000   -0.00000001    0.00000001
     atom   35 type  1   force =    -0.00000000    0.00000001   -0.00000001
     atom   36 type  1   force =     0.00000000   -0.00000000   -0.00000006
     atom   37 type  1   force =    -0.00000000   -0.00000001    0.00000001
     atom   38 type  1   force =     0.00000000    0.00000001   -0.00000003
     atom   39 type  1   force =     0.00000000    0.00000000    0.00000007
     atom   40 type  1   force =    -0.00000000    0.00000001    0.00000001
     atom   41 type  1   force =    -0.00000000    0.00000001    0.00000001
     atom   42 type  1   force =     0.00000000   -0.00000001    0.00000001
     atom   43 type  1   force =    -0.00000000    0.00000001    0.00000001
     atom   44 type  1   force =     0.00000000    0.00000001    0.00000001
     atom   45 type  1   force =    -0.00000000   -0.00000002   -0.00000002
     atom   46 type  1   force =    -0.00000000   -0.00000001    0.00000002
     atom   47 type  1   force =     0.00000000    0.00000000   -0.00000000
     atom   48 type  1   force =    -0.00000000    0.00000001   -0.00000006
     atom   49 type  1   force =     0.00000000   -0.00000001    0.00000003
     atom   50 type  1   force =     0.00000001   -0.00000001   -0.00000008
     atom   51 type  1   force =     0.00000000    0.00000000    0.00000005
     atom   52 type  1   force =     0.00000000   -0.00000001   -0.00000001

     Total force =     0.001920     Total SCF correction =     0.000000

     Writing all to output data dir ./Li/Lithium.save/ :
     XML data file
     init_run     :     27.47s CPU     36.80s WALL (       1 calls)
     electrons    :   3487.22s CPU   5536.89s WALL (       1 calls)
     forces       :     44.42s CPU     46.37s WALL (       1 calls)

     Called by init_run:
     wfcinit      :      4.71s CPU      6.40s WALL (       1 calls)
     wfcinit:wfcr :      4.36s CPU      6.05s WALL (      12 calls)
     potinit      :      0.78s CPU      0.86s WALL (       1 calls)
     hinit0       :      5.67s CPU      6.41s WALL (       1 calls)

     Called by electrons:
     c_bands      :   2980.47s CPU   4915.90s WALL (      54 calls)
     sum_band     :    116.08s CPU    164.53s WALL (      54 calls)
     v_of_rho     :      5.86s CPU      6.85s WALL (      55 calls)
     v_h          :      0.51s CPU      0.61s WALL (      55 calls)
     v_xc         :      5.35s CPU      6.23s WALL (      55 calls)
     newd         :      3.41s CPU      4.38s WALL (      55 calls)
     PAW_pot      :      0.50s CPU      0.74s WALL (      55 calls)
     mix_rho      :     18.96s CPU     22.40s WALL (      54 calls)

     Called by c_bands:
     init_us_2    :     21.63s CPU     21.84s WALL (    1320 calls)
     cegterg      :   2199.98s CPU   2762.54s WALL (     973 calls)

     Called by sum_band:
     sum_band:wei :      0.11s CPU      0.13s WALL (      54 calls)
     sum_band:loo :    112.56s CPU    159.00s WALL (      54 calls)
     sum_band:buf :      2.26s CPU      2.30s WALL (     648 calls)
     sum_band:ini :     10.72s CPU     10.76s WALL (     648 calls)
     sum_band:cal :     18.01s CPU     19.44s WALL (     648 calls)
     sum_band:bec :      0.15s CPU      0.19s WALL (     648 calls)
     addusdens    :      2.29s CPU      3.73s WALL (      54 calls)
                                        0.00s GPU  (      54 calls)
     addusd:skk   :      0.24s CPU      0.99s WALL (      54 calls)
                                        0.00s GPU  (      54 calls)

     Called by *egterg:
     cdiaghg      :    632.35s CPU    657.43s WALL (   13608 calls)
     cegterg:over :    125.40s CPU    137.63s WALL (   12691 calls)
     cegterg:upda :    102.23s CPU    105.55s WALL (   12691 calls)
     cegterg:last :     49.32s CPU     49.50s WALL (    1372 calls)
     h_psi        :   1129.74s CPU   1636.16s WALL (   13676 calls)
     s_psi        :    117.00s CPU    118.55s WALL (   13676 calls)
     g_psi        :      1.24s CPU      1.44s WALL (   12691 calls)

     Called by h_psi:
     h_psi:calbec :    140.03s CPU    154.42s WALL (   13676 calls)
     vloc_psi     :    866.23s CPU   1352.10s WALL (   13676 calls)
                                        0.00s GPU  (   13676 calls)
     add_vuspsi   :    117.80s CPU    119.16s WALL (   13676 calls)

     General routines
     calbec       :    159.17s CPU    175.08s WALL (   14372 calls)
     fft          :      4.97s CPU      6.42s WALL (     715 calls)
     ffts         :     10.65s CPU     12.95s WALL (    6628 calls)
     fftw         :    916.05s CPU   1431.77s WALL (  891410 calls)
     interpolate  :      1.08s CPU      1.21s WALL (      55 calls)

     Parallel routines

     PAW routines
     PAW_pot      :      0.50s CPU      0.74s WALL (      55 calls)
     PAW_symme    :      0.03s CPU      0.04s WALL (     109 calls)

     Environ routines

     PWSCF        :  59m19.34s CPU      1h33m WALL


   This run was terminated on:  13:25:44   5Jan2025            

=------------------------------------------------------------------------------=
   JOB DONE.
=------------------------------------------------------------------------------=
