
     Program PWSCF v.7.4 starts on  4Jan2025 at 23:18: 8 
        Git branch: develop
        Last git commit: e877ff360aceba4b8d76ffc2fb1c70545fc5dd57
        Last git commit date: Sat Jan 4 12:56:15 2025 +0000
        Last git commit subject: Merge branch 'orthoU' into 'develop'

     This program is part of the open-source Quantum ESPRESSO suite
     for quantum simulation of materials; please cite
         "P. Giannozzi et al., J. Phys.:Condens. Matter 21 395502 (2009);
         "P. Giannozzi et al., J. Phys.:Condens. Matter 29 465901 (2017);
         "P. Giannozzi et al., J. Chem. Phys. 152 154105 (2020);
          URL http://www.quantum-espresso.org", 
     in publications or presentations arising from this work. More details at
     http://www.quantum-espresso.org/quote

     Parallel version (MPI), running on   360 processors

     MPI processes distributed on     9 nodes
     177276 MiB available memory on the printing compute node when the environment starts
 
     Reading input from espresso.pwi
Warning: card &CELL ignored
Warning: card    PRESS_CONV_THR   = 0.1 ignored
Warning: card    CELL_DOFREE      = 'ALL' ignored
Warning: card / ignored
Warning: card &FCP ignored
Warning: card / ignored
Warning: card &RISM ignored
Warning: card / ignored

     Current dimensions of program PWSCF are:
     Max number of different atomic species (ntypx) = 10
     Max number of k-points (npk) =  40000
     Max angular momentum in pseudopotentials (lmaxx) =  4

     IMPORTANT: XC functional enforced from input :
     Exchange-correlation= PBE
                           (   1   4   3   4   0   0   0)
     Any further DFT definition will be discarded
     Please, verify this is what you really want

 
     Reading input from environ.in:
     * using ionic solvent mode
     * setting boundary derivatives method to SSCS default
     * setting electrolyte-boundary derivatives method to SSCS default

Environ Warning (1001): card EOF ignored

     
     Found identity + ( -0.5000 -0.5000 -0.0000) symmetry
     This is a supercell, fractional translations are disabled
 
     K-points division:     npool     =       2
     R & G space division:  proc/nbgrp/npool/nimage =     180
     Subspace diagonalization in iterative solution of the eigenvalue problem:
     a serial algorithm will be used

 
     Parallelization info
     --------------------
     sticks:   dense  smooth     PW     G-vecs:    dense   smooth      PW
     Min         103      41     10                59955    15155    1994
     Max         104      42     11                59998    15188    2055
     Sum       18577    7447   1945             10795351  2731157  365513
 
     Using Slab Decomposition
 


     bravais-lattice index     =            4
     lattice parameter (alat)  =      18.3607  a.u.
     unit-cell volume          =   28251.3786 (a.u.)^3
     number of atoms/cell      =           48
     number of atomic types    =            1
     number of electrons       =       144.00
     number of Kohn-Sham states=          108
     kinetic-energy cutoff     =      80.0000  Ry
     charge density cutoff     =     800.0000  Ry
     scf convergence threshold =      1.0E-06
     mixing beta               =       0.2000
     number of iterations used =            8  local-TF  mixing
     energy convergence thresh.=      1.0E-05
     force convergence thresh. =      3.9E-04
     Exchange-correlation= PBE
                           (   1   4   3   4   0   0   0)
     nstep                     =          999


     ================================================================================
 
                                  Environ Setup Summary

     ================================================================================
 
     Please cite

          O. Andreussi, I. Dabo and N. Marzari, J. Chem. Phys. 136, 064102 (2012)
          F. Nattino, M. Truscott, N. Marzari, and O. Andreussi, J. Chem. Phys. 150, 041722 (2019)

     in publications or presentations arising from this work.

     ================================================================================
 
     Parameters
     ==========

     compensation onset threshold      =               0.1000E+00
     static permittivity               =                    89.90
     surface tension in input (dyn/cm) =                    37.30
     surface tension in internal units =               0.4792E-04

     Solvent Boundary
     ================

     solvent mode                      =                    ionic
     derivatives method                =                   lowmem
     electrolyte derivatives method    =                   lowmem
     numerical core for derivatives    =                      fft
     switching function adopted        =                     SCCS
     density limit for vacuum region   =               0.5000E-02
     density limit for bulk solvent    =               0.1000E-03
     soft-sphere radius mode           =                    bondi
     soft-sphere softness              =                     0.50
     alpha                             =                     1.32

     Electrostatic Setup
     ===================

     electrostatic problem to solve    =                    modpb
     numerical solver adopted          =                   newton
     type of auxiliary density adopted =                     none
     numerical core for poisson        =                      fft
     adopting a nested solver scheme
     inner solver                      =                       cg
     inner core                        =                      fft
     type of pbc corrections           =                parabolic
     numerical core for corrections    =                      1da

     ================================================================================
 

     >>>>> Grand-Canonical SCF is activated <<<<<
     Initial Total Charge  =     0.000000 e
     Target Fermi Energy   =    -3.904000 eV
     Thr. of Fermi Energy  =     0.001000 eV
     Wave-shift of Kerker  =     0.400000 bohr^-1
     Wave-shift of Hartree =     1.500000 bohr^-1
     Mixing Rate of Fermi  =     0.050000

     celldm(1)=  18.360747  celldm(2)=   0.000000  celldm(3)=   5.270332
     celldm(4)=   0.000000  celldm(5)=   0.000000  celldm(6)=   0.000000

     crystal axes: (cart. coord. in units of alat)
               a(1) = (   1.000000   0.000000   0.000000 )  
               a(2) = (  -0.500000   0.866025   0.000000 )  
               a(3) = (   0.000000   0.000000   5.270332 )  

     reciprocal axes: (cart. coord. in units 2 pi/alat)
               b(1) = (  1.000000  0.577350  0.000000 )  
               b(2) = (  0.000000  1.154701  0.000000 )  
               b(3) = (  0.000000  0.000000  0.189741 )  


     PseudoPot. # 1 for Li read from file:
     /home/mmm1182/Repos/Pseudopotentials/pslibrary/Li.pbe-sl-kjpaw_psl.1.0.0.UPF
     MD5 check sum: f40bb4162937df3f7c561f1969c76545
     Pseudo is Projector augmented-wave, Zval =  3.0
     Generated using 'atomic' code by A. Dal Corso  v.7.3.1
     Shape of augmentation charge: PSQ
     Using radial grid of 1017 points,  4 beta functions with: 
                l(1) =   0
                l(2) =   0
                l(3) =   1
                l(4) =   1
     Q(r) pseudized with 0 coefficients 


     atomic species   valence    mass     pseudopotential
     Li                3.00     6.94000     Li( 1.00)

      2 Sym. Ops. (no inversion) found


                                    s                        frac. trans.

      isym =  1     identity                                     

 cryst.   s( 1) = (     1          0          0      )
                  (     0          1          0      )
                  (     0          0          1      )

 cart.    s( 1) = (  1.0000000  0.0000000  0.0000000 )
                  (  0.0000000  1.0000000  0.0000000 )
                  (  0.0000000  0.0000000  1.0000000 )


      isym =  2     inv. 180 deg rotation - cart. axis [1,0,0]   

 cryst.   s( 2) = (    -1          0          0      )
                  (     1          1          0      )
                  (     0          0          1      )

 cart.    s( 2) = ( -1.0000000  0.0000000  0.0000000 )
                  (  0.0000000  1.0000000  0.0000000 )
                  (  0.0000000  0.0000000  1.0000000 )


     point group C_s (m)    
     there are  2 classes
     the character table:

       E     s    
A'     1.00  1.00
A''    1.00 -1.00

     the symmetry operations in each class and the name of the first element:

     E        1
          identity                                               
     s        2
          inv. 180 deg rotation - cart. axis [1,0,0]             

   Cartesian axes

     site n.     atom                  positions (alat units)
         1        Li     tau(   1) = (  -0.0000000   0.0000004   2.5877252  )
         2        Li     tau(   2) = (   0.2500001   0.1443432   2.1961009  )
         3        Li     tau(   3) = (   0.5000000   0.2886790   2.3687810  )
         4        Li     tau(   4) = (   0.0000000   0.0000046   2.2774685  )
         5        Li     tau(   5) = (   0.2500001   0.1443396   2.4871698  )
         6        Li     tau(   6) = (   0.5000000   0.2886809   2.0540534  )
         7        Li     tau(   7) = (   0.0000000  -0.0000067   3.2162780  )
         8        Li     tau(   8) = (   0.2499999   0.1443350   2.7831634  )
         9        Li     tau(   9) = (   0.5000000   0.2886703   2.9928625  )
        10        Li     tau(  10) = (  -0.0000000  -0.0000042   2.9015507  )
        11        Li     tau(  11) = (   0.2500004   0.1443330   3.0742329  )
        12        Li     tau(  12) = (   0.5000000   0.2886741   2.6826060  )
        13        Li     tau(  13) = (   0.2499999   0.4330134   2.5877251  )
        14        Li     tau(  14) = (   0.5000000   0.5773550   2.1961009  )
        15        Li     tau(  15) = (   0.7500000   0.7216918   2.3687813  )
        16        Li     tau(  16) = (   0.2499997   0.4330179   2.2774688  )
        17        Li     tau(  17) = (   0.5000000   0.5773522   2.4871689  )
        18        Li     tau(  18) = (   0.7499981   0.7216945   2.0540539  )
        19        Li     tau(  19) = (   0.2499993   0.4330093   3.2162780  )
        20        Li     tau(  20) = (   0.5000000   0.5773482   2.7831629  )
        21        Li     tau(  21) = (   0.7499997   0.7216835   2.9928634  )
        22        Li     tau(  22) = (   0.2499997   0.4330093   2.9015504  )
        23        Li     tau(  23) = (   0.5000000   0.5773448   3.0742310  )
        24        Li     tau(  24) = (   0.7499999   0.7216871   2.6826066  )
        25        Li     tau(  25) = (   0.5000000  -0.0000001   2.5877245  )
        26        Li     tau(  26) = (   0.7499999   0.1443432   2.1961009  )
        27        Li     tau(  27) = (   1.0000000   0.2886787   2.3687815  )
        28        Li     tau(  28) = (   0.5000000   0.0000045   2.2774677  )
        29        Li     tau(  29) = (   0.7499999   0.1443396   2.4871698  )
        30        Li     tau(  30) = (   1.0000000   0.2886788   2.0540541  )
        31        Li     tau(  31) = (   0.5000000  -0.0000078   3.2162775  )
        32        Li     tau(  32) = (   0.7500001   0.1443350   2.7831634  )
        33        Li     tau(  33) = (   1.0000000   0.2886698   2.9928636  )
        34        Li     tau(  34) = (   0.5000000  -0.0000046   2.9015502  )
        35        Li     tau(  35) = (   0.7499996   0.1443330   3.0742329  )
        36        Li     tau(  36) = (   1.0000000   0.2886742   2.6826071  )
        37        Li     tau(  37) = (   0.7500001   0.4330134   2.5877251  )
        38        Li     tau(  38) = (   1.0000000   0.5773556   2.1960979  )
        39        Li     tau(  39) = (   1.2500000   0.7216918   2.3687813  )
        40        Li     tau(  40) = (   0.7500003   0.4330179   2.2774688  )
        41        Li     tau(  41) = (   1.0000000   0.5773520   2.4871672  )
        42        Li     tau(  42) = (   1.2500019   0.7216945   2.0540539  )
        43        Li     tau(  43) = (   0.7500007   0.4330093   3.2162780  )
        44        Li     tau(  44) = (   1.0000000   0.5773482   2.7831610  )
        45        Li     tau(  45) = (   1.2500003   0.7216835   2.9928634  )
        46        Li     tau(  46) = (   0.7500003   0.4330093   2.9015504  )
        47        Li     tau(  47) = (   1.0000000   0.5773448   3.0742296  )
        48        Li     tau(  48) = (   1.2500001   0.7216871   2.6826066  )

   Crystallographic axes

     site n.     atom                  positions (cryst. coord.)
         1        Li     tau(   1) = (  0.0000002  0.0000004  0.4909985  )
         2        Li     tau(   2) = (  0.3333367  0.1666732  0.4166912  )
         3        Li     tau(   3) = (  0.6666689  0.3333378  0.4494557  )
         4        Li     tau(   4) = (  0.0000026  0.0000053  0.4321300  )
         5        Li     tau(   5) = (  0.3333347  0.1666691  0.4719190  )
         6        Li     tau(   6) = (  0.6666700  0.3333400  0.3897389  )
         7        Li     tau(   7) = ( -0.0000039 -0.0000077  0.6102610  )
         8        Li     tau(   8) = (  0.3333318  0.1666637  0.5280812  )
         9        Li     tau(   9) = (  0.6666639  0.3333277  0.5678698  )
        10        Li     tau(  10) = ( -0.0000024 -0.0000049  0.5505442  )
        11        Li     tau(  11) = (  0.3333310  0.1666614  0.5833092  )
        12        Li     tau(  12) = (  0.6666661  0.3333321  0.5090013  )
        13        Li     tau(  13) = (  0.5000003  0.5000008  0.4909985  )
        14        Li     tau(  14) = (  0.8333360  0.6666721  0.4166912  )
        15        Li     tau(  15) = (  1.1666689  0.8333379  0.4494558  )
        16        Li     tau(  16) = (  0.5000027  0.5000060  0.4321301  )
        17        Li     tau(  17) = (  0.8333345  0.6666689  0.4719188  )
        18        Li     tau(  18) = (  1.1666686  0.8333410  0.3897390  )
        19        Li     tau(  19) = (  0.4999974  0.4999961  0.6102610  )
        20        Li     tau(  20) = (  0.8333321  0.6666642  0.5280811  )
        21        Li     tau(  21) = (  1.1666638  0.8333283  0.5678700  )
        22        Li     tau(  22) = (  0.4999977  0.4999961  0.5505441  )
        23        Li     tau(  23) = (  0.8333302  0.6666604  0.5833088  )
        24        Li     tau(  24) = (  1.1666661  0.8333325  0.5090015  )
        25        Li     tau(  25) = (  0.4999999 -0.0000002  0.4909984  )
        26        Li     tau(  26) = (  0.8333364  0.1666732  0.4166912  )
        27        Li     tau(  27) = (  1.1666687  0.3333375  0.4494558  )
        28        Li     tau(  28) = (  0.5000026  0.0000052  0.4321298  )
        29        Li     tau(  29) = (  0.8333344  0.1666691  0.4719190  )
        30        Li     tau(  30) = (  1.1666688  0.3333376  0.3897390  )
        31        Li     tau(  31) = (  0.4999955 -0.0000090  0.6102609  )
        32        Li     tau(  32) = (  0.8333319  0.1666637  0.5280812  )
        33        Li     tau(  33) = (  1.1666636  0.3333272  0.5678700  )
        34        Li     tau(  34) = (  0.4999973 -0.0000053  0.5505441  )
        35        Li     tau(  35) = (  0.8333303  0.1666614  0.5833092  )
        36        Li     tau(  36) = (  1.1666661  0.3333322  0.5090015  )
        37        Li     tau(  37) = (  1.0000005  0.5000008  0.4909985  )
        38        Li     tau(  38) = (  1.3333364  0.6666728  0.4166906  )
        39        Li     tau(  39) = (  1.6666689  0.8333379  0.4494558  )
        40        Li     tau(  40) = (  1.0000033  0.5000060  0.4321301  )
        41        Li     tau(  41) = (  1.3333343  0.6666687  0.4719185  )
        42        Li     tau(  42) = (  1.6666724  0.8333410  0.3897390  )
        43        Li     tau(  43) = (  0.9999987  0.4999961  0.6102610  )
        44        Li     tau(  44) = (  1.3333321  0.6666643  0.5280808  )
        45        Li     tau(  45) = (  1.6666644  0.8333283  0.5678700  )
        46        Li     tau(  46) = (  0.9999983  0.4999961  0.5505441  )
        47        Li     tau(  47) = (  1.3333302  0.6666603  0.5833085  )
        48        Li     tau(  48) = (  1.6666664  0.8333325  0.5090015  )

     number of k points=    16  Marzari-Vanderbilt smearing, width (Ry)=  0.0100
                       cart. coord. in units 2pi/alat
        k(    1) = (   0.0000000   0.0000000   0.0000000), wk =   0.0408163
        k(    2) = (   0.0000000   0.1649572   0.0000000), wk =   0.0816327
        k(    3) = (   0.0000000   0.3299144   0.0000000), wk =   0.0816327
        k(    4) = (   0.0000000   0.4948717   0.0000000), wk =   0.0816327
        k(    5) = (   0.1428571   0.2474358   0.0000000), wk =   0.1632653
        k(    6) = (   0.1428571   0.4123930   0.0000000), wk =   0.1632653
        k(    7) = (   0.1428571   0.5773503   0.0000000), wk =   0.0816327
        k(    8) = (   0.2857143   0.4948717   0.0000000), wk =   0.1632653
        k(    9) = (  -0.1428571   0.0824786   0.0000000), wk =   0.1632653
        k(   10) = (  -0.2857143   0.1649572   0.0000000), wk =   0.1632653
        k(   11) = (  -0.4285714   0.2474358   0.0000000), wk =   0.1632653
        k(   12) = (   0.2857143  -0.0000000   0.0000000), wk =   0.0816327
        k(   13) = (  -0.2857143   0.3299144   0.0000000), wk =   0.1632653
        k(   14) = (   0.4285714   0.0824786   0.0000000), wk =   0.1632653
        k(   15) = (  -0.4285714   0.4123930   0.0000000), wk =   0.1632653
        k(   16) = (   0.5714286  -0.0000000   0.0000000), wk =   0.0816327

                       cryst. coord.
        k(    1) = (   0.0000000   0.0000000   0.0000000), wk =   0.0408163
        k(    2) = (   0.0000000   0.1428571   0.0000000), wk =   0.0816327
        k(    3) = (   0.0000000   0.2857143   0.0000000), wk =   0.0816327
        k(    4) = (   0.0000000   0.4285714   0.0000000), wk =   0.0816327
        k(    5) = (   0.1428571   0.1428571   0.0000000), wk =   0.1632653
        k(    6) = (   0.1428571   0.2857143   0.0000000), wk =   0.1632653
        k(    7) = (   0.1428571   0.4285714   0.0000000), wk =   0.0816327
        k(    8) = (   0.2857143   0.2857143   0.0000000), wk =   0.1632653
        k(    9) = (  -0.1428571   0.1428571   0.0000000), wk =   0.1632653
        k(   10) = (  -0.2857143   0.2857143   0.0000000), wk =   0.1632653
        k(   11) = (  -0.4285714   0.4285714   0.0000000), wk =   0.1632653
        k(   12) = (   0.2857143  -0.1428571   0.0000000), wk =   0.0816327
        k(   13) = (  -0.2857143   0.4285714   0.0000000), wk =   0.1632653
        k(   14) = (   0.4285714  -0.1428571   0.0000000), wk =   0.1632653
        k(   15) = (  -0.4285714   0.5714286   0.0000000), wk =   0.1632653
        k(   16) = (   0.5714286  -0.2857143   0.0000000), wk =   0.0816327

     Dense  grid: 10795351 G-vectors     FFT dimensions: ( 180, 180, 900)

     Smooth grid:  2731157 G-vectors     FFT dimensions: ( 108, 108, 576)

     Dynamical RAM for                 wfc:       3.12 MB

     Dynamical RAM for     wfc (w. buffer):      28.12 MB

     Dynamical RAM for           str. fact:       0.91 MB

     Dynamical RAM for           local pot:       0.00 MB

     Dynamical RAM for          nlocal pot:      11.11 MB

     Dynamical RAM for                qrad:       0.65 MB

     Dynamical RAM for          rho,v,vnew:       6.45 MB

     Dynamical RAM for               rhoin:       2.15 MB

     Dynamical RAM for            rho*nmix:      14.64 MB

     Dynamical RAM for           G-vectors:       3.55 MB

     Dynamical RAM for          h,s,v(r/c):       8.54 MB

     Dynamical RAM for          <psi|beta>:       0.63 MB

     Dynamical RAM for                 psi:      12.50 MB

     Dynamical RAM for                hpsi:      12.50 MB

     Dynamical RAM for                spsi:      12.50 MB

     Dynamical RAM for      wfcinit/wfcrot:       6.52 MB

     Dynamical RAM for           addusdens:      42.09 MB

     Dynamical RAM for          addusforce:      85.13 MB

     Estimated static dynamical RAM per process >      60.95 MB

     Estimated max dynamical RAM per process >     164.72 MB

     Estimated total dynamical RAM >      53.93 GB

     Initial potential from superposition of free atoms

     starting charge     143.7788, renormalised to     144.0000

     negative rho (up, down):  4.638E-03 0.000E+00
     Starting wfcs are random
     Checking if some PAW data can be deallocated... 

     total cpu time spent up to now is       19.7 secs

     per-process dynamical memory:   237.3 Mb

     Self-consistent Calculation

     iteration #  1     ecut=    80.00 Ry     beta= 0.20
     Davidson diagonalization with overlap

---- Real-time Memory Report at c_bands before calling an iterative solver
          1111 MiB given to the printing process from OS
           231 MiB allocation reported by mallinfo(arena+hblkhd)
        169545 MiB available memory on the node where the printing process lives
------------------
     c_bands:  1 eigenvalues not converged
     ethr =  1.00E-12,  avg # of iterations =134.3

     negative rho (up, down):  3.481E-03 0.000E+00

     total cpu time spent up to now is      188.3 secs

     total energy              =    -721.71022627 Ry
     estimated scf accuracy    <       0.16184126 Ry

     total charge of GC-SCF    =       0.08375428 e
     the Fermi energy          =      -4.56014888 eV
                        (error :       0.65614888 eV)
     electrostatic embedding   =       0.00000000 Ry
     cavitation energy         =       0.03957450 Ry
     electrolyte free energy   =       0.01215974 Ry
     correction to one-el term =       0.00000000 Ry

     iteration #  2     ecut=    80.00 Ry     beta= 0.20
     Davidson diagonalization with overlap

---- Real-time Memory Report at c_bands before calling an iterative solver
          1111 MiB given to the printing process from OS
           272 MiB allocation reported by mallinfo(arena+hblkhd)
        167889 MiB available memory on the node where the printing process lives
------------------
     ethr =  1.00E-05,  avg # of iterations = 11.7

     negative rho (up, down):  2.631E-03 0.000E+00

     add environment contribution to local potential

     total cpu time spent up to now is      217.2 secs

     total energy              =    -721.72798216 Ry
     estimated scf accuracy    <       0.06219415 Ry

     total charge of GC-SCF    =       0.17999957 e
     the Fermi energy          =      -3.78980890 eV
                        (error :       0.11419110 eV)
     electrostatic embedding   =       0.00067058 Ry
     cavitation energy         =       0.03957450 Ry
     electrolyte free energy   =       0.01215974 Ry
     correction to one-el term =       0.00000000 Ry

     iteration #  3     ecut=    80.00 Ry     beta= 0.20
     Davidson diagonalization with overlap

---- Real-time Memory Report at c_bands before calling an iterative solver
          1111 MiB given to the printing process from OS
           272 MiB allocation reported by mallinfo(arena+hblkhd)
        167863 MiB available memory on the node where the printing process lives
------------------
     ethr =  1.00E-05,  avg # of iterations = 31.1

     negative rho (up, down):  2.125E-03 0.000E+00

     add environment contribution to local potential

     total cpu time spent up to now is      258.5 secs

     total energy              =    -721.71778557 Ry
     estimated scf accuracy    <       0.03344053 Ry

     total charge of GC-SCF    =       0.27268721 e
     the Fermi energy          =      -3.12084733 eV
                        (error :       0.78315267 eV)
     electrostatic embedding   =      -0.03734275 Ry
     cavitation energy         =       0.03957450 Ry
     electrolyte free energy   =      -0.00513147 Ry
     correction to one-el term =      -5.60212993 Ry

     iteration #  4     ecut=    80.00 Ry     beta= 0.20
     Davidson diagonalization with overlap

---- Real-time Memory Report at c_bands before calling an iterative solver
          1111 MiB given to the printing process from OS
           272 MiB allocation reported by mallinfo(arena+hblkhd)
        167848 MiB available memory on the node where the printing process lives
------------------
     ethr =  1.00E-05,  avg # of iterations = 15.3

     negative rho (up, down):  1.666E-03 0.000E+00

     add environment contribution to local potential

     total cpu time spent up to now is      289.6 secs

     total energy              =    -721.67330999 Ry
     estimated scf accuracy    <       0.03566565 Ry

     total charge of GC-SCF    =       0.50503817 e
     the Fermi energy          =      -3.64227675 eV
                        (error :       0.26172325 eV)
     electrostatic embedding   =      -0.03607183 Ry
     cavitation energy         =       0.03957450 Ry
     electrolyte free energy   =      -0.00677569 Ry
     correction to one-el term =      -6.64346098 Ry

     iteration #  5     ecut=    80.00 Ry     beta= 0.20
     Davidson diagonalization with overlap

---- Real-time Memory Report at c_bands before calling an iterative solver
          1111 MiB given to the printing process from OS
           273 MiB allocation reported by mallinfo(arena+hblkhd)
        167841 MiB available memory on the node where the printing process lives
------------------
     ethr =  1.00E-05,  avg # of iterations = 22.2

     negative rho (up, down):  1.359E-03 0.000E+00

     add environment contribution to local potential

     total cpu time spent up to now is      325.2 secs

     total energy              =    -721.69699565 Ry
     estimated scf accuracy    <       0.00782634 Ry

     total charge of GC-SCF    =       0.98896563 e
     the Fermi energy          =      -3.14830271 eV
                        (error :       0.75569729 eV)
     electrostatic embedding   =      -0.04830523 Ry
     cavitation energy         =       0.03957450 Ry
     electrolyte free energy   =      -0.00512235 Ry
     correction to one-el term =     -13.17439872 Ry

     iteration #  6     ecut=    80.00 Ry     beta= 0.20
     Davidson diagonalization with overlap

---- Real-time Memory Report at c_bands before calling an iterative solver
          1111 MiB given to the printing process from OS
           273 MiB allocation reported by mallinfo(arena+hblkhd)
        167827 MiB available memory on the node where the printing process lives
------------------
     ethr =  5.47E-06,  avg # of iterations = 26.2

     negative rho (up, down):  1.176E-03 0.000E+00

     add environment contribution to local potential

     total cpu time spent up to now is      364.2 secs

     total energy              =    -721.80392621 Ry
     estimated scf accuracy    <       0.01448105 Ry

     total charge of GC-SCF    =       1.21194025 e
     the Fermi energy          =      -2.70910576 eV
                        (error :       1.19489424 eV)
     electrostatic embedding   =      -0.12441920 Ry
     cavitation energy         =       0.03957450 Ry
     electrolyte free energy   =      -0.00313214 Ry
     correction to one-el term =     -26.07621738 Ry

     iteration #  7     ecut=    80.00 Ry     beta= 0.20
     Davidson diagonalization with overlap

---- Real-time Memory Report at c_bands before calling an iterative solver
          1111 MiB given to the printing process from OS
           274 MiB allocation reported by mallinfo(arena+hblkhd)
        167819 MiB available memory on the node where the printing process lives
------------------
     ethr =  5.47E-06,  avg # of iterations = 15.1

     negative rho (up, down):  1.069E-03 0.000E+00

     add environment contribution to local potential

     total cpu time spent up to now is      397.0 secs

     total energy              =    -721.75747640 Ry
     estimated scf accuracy    <       0.00180851 Ry

     total charge of GC-SCF    =       1.72724637 e
     the Fermi energy          =      -2.98146075 eV
                        (error :       0.92253925 eV)
     electrostatic embedding   =      -0.16699010 Ry
     cavitation energy         =       0.03957450 Ry
     electrolyte free energy   =      -0.00492792 Ry
     correction to one-el term =     -33.07099410 Ry

     iteration #  8     ecut=    80.00 Ry     beta= 0.20
     Davidson diagonalization with overlap

---- Real-time Memory Report at c_bands before calling an iterative solver
          1111 MiB given to the printing process from OS
           274 MiB allocation reported by mallinfo(arena+hblkhd)
        167791 MiB available memory on the node where the printing process lives
------------------
     ethr =  1.27E-06,  avg # of iterations = 33.2

     negative rho (up, down):  9.948E-04 0.000E+00

     add environment contribution to local potential

     total cpu time spent up to now is      441.7 secs

     total energy              =    -721.76705541 Ry
     estimated scf accuracy    <       0.01619240 Ry

     total charge of GC-SCF    =       1.97890114 e
     the Fermi energy          =      -3.42882369 eV
                        (error :       0.47517631 eV)
     electrostatic embedding   =      -0.31089111 Ry
     cavitation energy         =       0.03957450 Ry
     electrolyte free energy   =      -0.00868505 Ry
     correction to one-el term =     -47.87225282 Ry

     iteration #  9     ecut=    80.00 Ry     beta= 0.20
     Davidson diagonalization with overlap

---- Real-time Memory Report at c_bands before calling an iterative solver
          1111 MiB given to the printing process from OS
           275 MiB allocation reported by mallinfo(arena+hblkhd)
        167781 MiB available memory on the node where the printing process lives
------------------
     ethr =  1.27E-06,  avg # of iterations = 33.4

     negative rho (up, down):  1.504E-03 0.000E+00

     add environment contribution to local potential

     total cpu time spent up to now is      486.7 secs

     total energy              =    -721.91695456 Ry
     estimated scf accuracy    <       0.00693715 Ry

     total charge of GC-SCF    =       2.17553960 e
     the Fermi energy          =      -2.92256201 eV
                        (error :       0.98143799 eV)
     electrostatic embedding   =      -0.42946880 Ry
     cavitation energy         =       0.03957450 Ry
     electrolyte free energy   =      -0.00734289 Ry
     correction to one-el term =     -57.17794308 Ry

     iteration # 10     ecut=    80.00 Ry     beta= 0.20
     Davidson diagonalization with overlap

---- Real-time Memory Report at c_bands before calling an iterative solver
          1111 MiB given to the printing process from OS
           275 MiB allocation reported by mallinfo(arena+hblkhd)
        167771 MiB available memory on the node where the printing process lives
------------------
     ethr =  1.27E-06,  avg # of iterations = 12.6

     negative rho (up, down):  2.361E-03 0.000E+00

     add environment contribution to local potential

     total cpu time spent up to now is      516.0 secs

     total energy              =    -721.80987839 Ry
     estimated scf accuracy    <       0.00755712 Ry

     total charge of GC-SCF    =       2.73283401 e
     the Fermi energy          =      -2.96007975 eV
                        (error :       0.94392025 eV)
     electrostatic embedding   =      -0.51874899 Ry
     cavitation energy         =       0.03957450 Ry
     electrolyte free energy   =      -0.00859918 Ry
     correction to one-el term =     -63.45513976 Ry

     iteration # 11     ecut=    80.00 Ry     beta= 0.20
     Davidson diagonalization with overlap

---- Real-time Memory Report at c_bands before calling an iterative solver
          1111 MiB given to the printing process from OS
           275 MiB allocation reported by mallinfo(arena+hblkhd)
        167773 MiB available memory on the node where the printing process lives
------------------
     ethr =  1.27E-06,  avg # of iterations = 21.8

     negative rho (up, down):  1.797E-03 0.000E+00

     add environment contribution to local potential

     total cpu time spent up to now is      554.7 secs

     total energy              =    -721.88159812 Ry
     estimated scf accuracy    <       0.00148376 Ry

     total charge of GC-SCF    =       2.83466858 e
     the Fermi energy          =      -3.27147880 eV
                        (error :       0.63252120 eV)
     electrostatic embedding   =      -0.83432769 Ry
     cavitation energy         =       0.03957450 Ry
     electrolyte free energy   =      -0.01456278 Ry
     correction to one-el term =     -82.67325904 Ry

     iteration # 12     ecut=    80.00 Ry     beta= 0.20
     Davidson diagonalization with overlap

---- Real-time Memory Report at c_bands before calling an iterative solver
          1111 MiB given to the printing process from OS
           275 MiB allocation reported by mallinfo(arena+hblkhd)
        167769 MiB available memory on the node where the printing process lives
------------------
     ethr =  1.05E-06,  avg # of iterations = 27.8

     negative rho (up, down):  2.224E-03 0.000E+00

     add environment contribution to local potential

     total cpu time spent up to now is      597.7 secs

     total energy              =    -721.90742603 Ry
     estimated scf accuracy    <       0.00279898 Ry

     total charge of GC-SCF    =       3.35567424 e
     the Fermi energy          =      -3.65066738 eV
                        (error :       0.25333262 eV)
     electrostatic embedding   =      -0.90650818 Ry
     cavitation energy         =       0.03957450 Ry
     electrolyte free energy   =      -0.01733595 Ry
     correction to one-el term =     -87.56869209 Ry

     iteration # 13     ecut=    80.00 Ry     beta= 0.20
     Davidson diagonalization with overlap

---- Real-time Memory Report at c_bands before calling an iterative solver
          1111 MiB given to the printing process from OS
           275 MiB allocation reported by mallinfo(arena+hblkhd)
        167750 MiB available memory on the node where the printing process lives
------------------
     ethr =  1.05E-06,  avg # of iterations = 22.9

     negative rho (up, down):  8.893E-04 0.000E+00

     add environment contribution to local potential

     total cpu time spent up to now is      636.5 secs

     total energy              =    -721.91656467 Ry
     estimated scf accuracy    <       0.00361546 Ry

     total charge of GC-SCF    =       3.33045951 e
     the Fermi energy          =      -3.87381842 eV
                        (error :       0.03018158 eV)
     electrostatic embedding   =      -1.26918025 Ry
     cavitation energy         =       0.03957450 Ry
     electrolyte free energy   =      -0.02257709 Ry
     correction to one-el term =    -103.34974956 Ry

     iteration # 14     ecut=    80.00 Ry     beta= 0.20
     Davidson diagonalization with overlap

---- Real-time Memory Report at c_bands before calling an iterative solver
          1111 MiB given to the printing process from OS
           275 MiB allocation reported by mallinfo(arena+hblkhd)
        167765 MiB available memory on the node where the printing process lives
------------------
     ethr =  1.05E-06,  avg # of iterations = 14.8

     negative rho (up, down):  6.201E-04 0.000E+00

     add environment contribution to local potential

     total cpu time spent up to now is      672.9 secs

     total energy              =    -721.91181441 Ry
     estimated scf accuracy    <       0.00082214 Ry

     total charge of GC-SCF    =       3.45148734 e
     the Fermi energy          =      -3.77423200 eV
                        (error :       0.12976800 eV)
     electrostatic embedding   =      -1.26749732 Ry
     cavitation energy         =       0.03957450 Ry
     electrolyte free energy   =      -0.02252945 Ry
     correction to one-el term =    -103.72939080 Ry

     iteration # 15     ecut=    80.00 Ry     beta= 0.20
     Davidson diagonalization with overlap

---- Real-time Memory Report at c_bands before calling an iterative solver
          1111 MiB given to the printing process from OS
           275 MiB allocation reported by mallinfo(arena+hblkhd)
        167765 MiB available memory on the node where the printing process lives
------------------
     ethr =  5.85E-07,  avg # of iterations = 12.7

     negative rho (up, down):  5.905E-04 0.000E+00

     add environment contribution to local potential

     total cpu time spent up to now is      704.1 secs

     total energy              =    -721.91790122 Ry
     estimated scf accuracy    <       0.00006830 Ry

     total charge of GC-SCF    =       3.47177519 e
     the Fermi energy          =      -3.75944270 eV
                        (error :       0.14455730 eV)
     electrostatic embedding   =      -1.37436084 Ry
     cavitation energy         =       0.03957450 Ry
     electrolyte free energy   =      -0.02409624 Ry
     correction to one-el term =    -108.21427264 Ry

     iteration # 16     ecut=    80.00 Ry     beta= 0.20
     Davidson diagonalization with overlap

---- Real-time Memory Report at c_bands before calling an iterative solver
          1111 MiB given to the printing process from OS
           275 MiB allocation reported by mallinfo(arena+hblkhd)
        167767 MiB available memory on the node where the printing process lives
------------------
     ethr =  4.86E-08,  avg # of iterations = 13.5

     negative rho (up, down):  5.772E-04 0.000E+00

     add environment contribution to local potential

     total cpu time spent up to now is      737.2 secs

     total energy              =    -721.91723541 Ry
     estimated scf accuracy    <       0.00005238 Ry

     total charge of GC-SCF    =       3.51444896 e
     the Fermi energy          =      -3.77981468 eV
                        (error :       0.12418532 eV)
     electrostatic embedding   =      -1.38957691 Ry
     cavitation energy         =       0.03957450 Ry
     electrolyte free energy   =      -0.02433589 Ry
     correction to one-el term =    -108.78291052 Ry

     iteration # 17     ecut=    80.00 Ry     beta= 0.20
     Davidson diagonalization with overlap

---- Real-time Memory Report at c_bands before calling an iterative solver
          1111 MiB given to the printing process from OS
           275 MiB allocation reported by mallinfo(arena+hblkhd)
        167766 MiB available memory on the node where the printing process lives
------------------
     ethr =  3.73E-08,  avg # of iterations = 17.3

     negative rho (up, down):  6.954E-04 0.000E+00

     add environment contribution to local potential

     total cpu time spent up to now is      773.2 secs

     total energy              =    -721.91643472 Ry
     estimated scf accuracy    <       0.00003168 Ry

     total charge of GC-SCF    =       3.58977236 e
     the Fermi energy          =      -3.81051255 eV
                        (error :       0.09348745 eV)
     electrostatic embedding   =      -1.42005869 Ry
     cavitation energy         =       0.03957450 Ry
     electrolyte free energy   =      -0.02481689 Ry
     correction to one-el term =    -109.87224821 Ry

     iteration # 18     ecut=    80.00 Ry     beta= 0.20
     Davidson diagonalization with overlap

---- Real-time Memory Report at c_bands before calling an iterative solver
          1111 MiB given to the printing process from OS
           275 MiB allocation reported by mallinfo(arena+hblkhd)
        167762 MiB available memory on the node where the printing process lives
------------------
     ethr =  2.26E-08,  avg # of iterations = 22.2

     negative rho (up, down):  1.135E-03 0.000E+00

     add environment contribution to local potential

     total cpu time spent up to now is      813.2 secs

     total energy              =    -721.91749136 Ry
     estimated scf accuracy    <       0.00003133 Ry

     total charge of GC-SCF    =       3.65788032 e
     the Fermi energy          =      -3.88810052 eV
                        (error :       0.01589948 eV)
     electrostatic embedding   =      -1.48797006 Ry
     cavitation energy         =       0.03957450 Ry
     electrolyte free energy   =      -0.02593645 Ry
     correction to one-el term =    -112.73392815 Ry

     iteration # 19     ecut=    80.00 Ry     beta= 0.20
     Davidson diagonalization with overlap

---- Real-time Memory Report at c_bands before calling an iterative solver
          1111 MiB given to the printing process from OS
           275 MiB allocation reported by mallinfo(arena+hblkhd)
        167762 MiB available memory on the node where the printing process lives
------------------
     ethr =  2.23E-08,  avg # of iterations = 24.2

     negative rho (up, down):  1.334E-03 0.000E+00

     add environment contribution to local potential

     total cpu time spent up to now is      857.1 secs

     total energy              =    -721.91755879 Ry
     estimated scf accuracy    <       0.00000639 Ry

     total charge of GC-SCF    =       3.70100526 e
     the Fermi energy          =      -3.89115902 eV
                        (error :       0.01284098 eV)
     electrostatic embedding   =      -1.54070339 Ry
     cavitation energy         =       0.03957450 Ry
     electrolyte free energy   =      -0.02668106 Ry
     correction to one-el term =    -114.44625848 Ry

     iteration # 20     ecut=    80.00 Ry     beta= 0.20
     Davidson diagonalization with overlap

---- Real-time Memory Report at c_bands before calling an iterative solver
          1111 MiB given to the printing process from OS
           275 MiB allocation reported by mallinfo(arena+hblkhd)
        167759 MiB available memory on the node where the printing process lives
------------------
     ethr =  4.55E-09,  avg # of iterations = 21.4

     negative rho (up, down):  1.151E-03 0.000E+00

     add environment contribution to local potential

     total cpu time spent up to now is      896.2 secs

     total energy              =    -721.91737887 Ry
     estimated scf accuracy    <       0.00000429 Ry

     total charge of GC-SCF    =       3.70834285 e
     the Fermi energy          =      -3.90834362 eV
                        (error :       0.00434362 eV)
     electrostatic embedding   =      -1.57971002 Ry
     cavitation energy         =       0.03957450 Ry
     electrolyte free energy   =      -0.02726635 Ry
     correction to one-el term =    -115.89757126 Ry

     iteration # 21     ecut=    80.00 Ry     beta= 0.20
     Davidson diagonalization with overlap

---- Real-time Memory Report at c_bands before calling an iterative solver
          1111 MiB given to the printing process from OS
           275 MiB allocation reported by mallinfo(arena+hblkhd)
        167755 MiB available memory on the node where the printing process lives
------------------
     ethr =  3.06E-09,  avg # of iterations = 12.1

     negative rho (up, down):  5.763E-04 0.000E+00

     add environment contribution to local potential

     total cpu time spent up to now is      927.0 secs

     total energy              =    -721.91732202 Ry
     estimated scf accuracy    <       0.00000356 Ry

     total charge of GC-SCF    =       3.71082884 e
     the Fermi energy          =      -3.91392590 eV
                        (error :       0.00992590 eV)
     electrostatic embedding   =      -1.58661307 Ry
     cavitation energy         =       0.03957450 Ry
     electrolyte free energy   =      -0.02737285 Ry
     correction to one-el term =    -116.16513089 Ry

     iteration # 22     ecut=    80.00 Ry     beta= 0.20
     Davidson diagonalization with overlap

---- Real-time Memory Report at c_bands before calling an iterative solver
          1111 MiB given to the printing process from OS
           275 MiB allocation reported by mallinfo(arena+hblkhd)
        167757 MiB available memory on the node where the printing process lives
------------------
     ethr =  2.54E-09,  avg # of iterations = 14.8

     negative rho (up, down):  5.514E-04 0.000E+00

     add environment contribution to local potential

     total cpu time spent up to now is      959.5 secs

     total energy              =    -721.91728519 Ry
     estimated scf accuracy    <       0.00000168 Ry

     total charge of GC-SCF    =       3.69076975 e
     the Fermi energy          =      -3.91383274 eV
                        (error :       0.00983274 eV)
     electrostatic embedding   =      -1.58934028 Ry
     cavitation energy         =       0.03957450 Ry
     electrolyte free energy   =      -0.02740891 Ry
     correction to one-el term =    -116.26605702 Ry

     iteration # 23     ecut=    80.00 Ry     beta= 0.20
     Davidson diagonalization with overlap

---- Real-time Memory Report at c_bands before calling an iterative solver
          1111 MiB given to the printing process from OS
           275 MiB allocation reported by mallinfo(arena+hblkhd)
        167741 MiB available memory on the node where the printing process lives
------------------
     ethr =  1.20E-09,  avg # of iterations = 22.1

     negative rho (up, down):  6.279E-04 0.000E+00

     total cpu time spent up to now is      984.0 secs

     End of self-consistent calculation

          k = 0.0000 0.0000 0.0000 (341261 PWs)   bands (ev):

   -51.7619 -51.7619 -51.7619 -51.7619 -51.7619 -51.7619 -51.7618 -51.7618
   -50.8998 -50.8998 -50.8997 -50.8997 -50.8997 -50.8997 -50.8996 -50.8996
   -50.5525 -50.5525 -50.5524 -50.5524 -50.5524 -50.5524 -50.5524 -50.5524
   -50.4015 -50.3967 -50.3967 -50.3967 -50.3920 -50.3909 -50.3909 -50.3909
   -50.3850 -50.3849 -50.3849 -50.3848 -50.3806 -50.3806 -50.3805 -50.3751
   -50.2467 -50.2467 -50.2467 -50.2467 -50.2467 -50.2467 -50.2464 -50.2464
    -7.2924  -6.8179  -5.9676  -5.7176  -5.7176  -5.7176  -5.7021  -5.7020
    -5.7020  -5.2470  -5.2470  -5.2470  -5.2319  -5.2319  -5.2319  -4.9037
    -4.4119  -4.4119  -4.4119  -4.4018  -4.4018  -4.4018  -3.6224  -3.4910
    -3.4910  -3.4909  -3.4478  -3.4478  -3.4478  -3.0239  -3.0239  -3.0238
    -2.8792  -2.8792  -2.8792  -2.3001  -2.3001  -2.3001  -2.2128  -1.8246
    -1.8246  -1.8246  -1.4328  -1.4328  -1.3260  -1.3260  -1.3260  -1.2989
    -1.2989  -1.2243  -0.9055  -0.9055  -0.7212  -0.7212  -0.6430  -0.6430
    -0.6430  -0.3988  -0.3988  -0.3988

     occupation numbers 
     1.0000   1.0000   1.0000   1.0000   1.0000   1.0000   1.0000   1.0000
     1.0000   1.0000   1.0000   1.0000   1.0000   1.0000   1.0000   1.0000
     1.0000   1.0000   1.0000   1.0000   1.0000   1.0000   1.0000   1.0000
     1.0000   1.0000   1.0000   1.0000   1.0000   1.0000   1.0000   1.0000
     1.0000   1.0000   1.0000   1.0000   1.0000   1.0000   1.0000   1.0000
     1.0000   1.0000   1.0000   1.0000   1.0000   1.0000   1.0000   1.0000
     1.0000   1.0000   1.0000   1.0000   1.0000   1.0000   1.0000   1.0000
     1.0000   1.0000   1.0000   1.0000   1.0000   1.0000   1.0000   1.0000
     1.0000   1.0000   1.0000   1.0000   1.0000   1.0000   0.0002   0.0000
     0.0000   0.0000   0.0000   0.0000   0.0000   0.0000   0.0000   0.0000
     0.0000   0.0000   0.0000   0.0000   0.0000   0.0000   0.0000   0.0000
     0.0000   0.0000   0.0000   0.0000   0.0000   0.0000   0.0000   0.0000
     0.0000   0.0000   0.0000   0.0000   0.0000   0.0000   0.0000   0.0000
     0.0000   0.0000   0.0000   0.0000

          k = 0.0000 0.1650 0.0000 (341287 PWs)   bands (ev):

   -51.7619 -51.7619 -51.7619 -51.7619 -51.7619 -51.7619 -51.7618 -51.7618
   -50.8998 -50.8998 -50.8997 -50.8997 -50.8997 -50.8997 -50.8996 -50.8996
   -50.5525 -50.5525 -50.5524 -50.5524 -50.5524 -50.5524 -50.5524 -50.5524
   -50.4013 -50.3970 -50.3967 -50.3967 -50.3920 -50.3909 -50.3908 -50.3908
   -50.3851 -50.3849 -50.3849 -50.3849 -50.3806 -50.3806 -50.3801 -50.3753
   -50.2467 -50.2467 -50.2467 -50.2467 -50.2467 -50.2466 -50.2464 -50.2464
    -7.2601  -6.7857  -6.1292  -5.9355  -5.9038  -5.9038  -5.6589  -5.4721
    -5.4721  -5.4118  -5.4118  -5.2224  -4.9925  -4.9925  -4.8713  -4.8712
    -4.6929  -4.5792  -4.5792  -4.1792  -4.1792  -4.0308  -3.6347  -3.6026
    -3.6026  -3.5945  -3.5194  -3.5194  -3.4052  -3.0513  -3.0513  -2.9353
    -2.9353  -2.8534  -2.8369  -2.3729  -2.3729  -2.3184  -2.1982  -2.0193
    -1.9293  -1.9293  -1.9202  -1.7829  -1.5059  -1.3648  -1.3222  -1.3222
    -1.2232  -1.1967  -0.8715  -0.7303  -0.6643  -0.4960  -0.4703  -0.4703
    -0.4380  -0.4121  -0.3812  -0.3812

     occupation numbers 
     1.0000   1.0000   1.0000   1.0000   1.0000   1.0000   1.0000   1.0000
     1.0000   1.0000   1.0000   1.0000   1.0000   1.0000   1.0000   1.0000
     1.0000   1.0000   1.0000   1.0000   1.0000   1.0000   1.0000   1.0000
     1.0000   1.0000   1.0000   1.0000   1.0000   1.0000   1.0000   1.0000
     1.0000   1.0000   1.0000   1.0000   1.0000   1.0000   1.0000   1.0000
     1.0000   1.0000   1.0000   1.0000   1.0000   1.0000   1.0000   1.0000
     1.0000   1.0000   1.0000   1.0000   1.0000   1.0000   1.0000   1.0000
     1.0000   1.0000   1.0000   1.0000   1.0000   1.0000   1.0000   1.0000
     1.0000   1.0000   1.0000   1.0387   1.0387   1.0066   0.0004   0.0001
     0.0001   0.0001   0.0000   0.0000   0.0000   0.0000   0.0000   0.0000
     0.0000   0.0000   0.0000   0.0000   0.0000   0.0000   0.0000   0.0000
     0.0000   0.0000   0.0000   0.0000   0.0000   0.0000   0.0000   0.0000
     0.0000   0.0000   0.0000   0.0000   0.0000   0.0000   0.0000   0.0000
     0.0000   0.0000   0.0000   0.0000

          k = 0.0000 0.3299 0.0000 (341325 PWs)   bands (ev):

   -51.7619 -51.7619 -51.7619 -51.7619 -51.7619 -51.7619 -51.7618 -51.7618
   -50.8998 -50.8998 -50.8997 -50.8997 -50.8997 -50.8997 -50.8996 -50.8996
   -50.5525 -50.5525 -50.5524 -50.5524 -50.5524 -50.5524 -50.5524 -50.5524
   -50.4007 -50.3977 -50.3968 -50.3968 -50.3918 -50.3911 -50.3907 -50.3907
   -50.3853 -50.3850 -50.3849 -50.3848 -50.3807 -50.3806 -50.3791 -50.3758
   -50.2467 -50.2467 -50.2467 -50.2467 -50.2467 -50.2466 -50.2465 -50.2464
    -7.1634  -6.6890  -6.4849  -6.0340  -6.0340  -6.0120  -5.8390  -5.5636
    -5.5636  -5.1703  -5.1339  -5.1339  -4.7774  -4.7774  -4.7738  -4.6801
    -4.6027  -4.6027  -4.2153  -4.1050  -3.9640  -3.9639  -3.9208  -3.9208
    -3.5477  -3.5476  -3.5141  -3.4194  -3.4194  -3.3970  -3.2775  -2.8156
    -2.7758  -2.7758  -2.7181  -2.7099  -2.6253  -2.6253  -2.3853  -2.2809
    -2.1101  -2.0848  -2.0150  -2.0150  -1.8242  -1.6577  -1.4490  -1.4490
    -1.3472  -1.1410  -0.8648  -0.7901  -0.6126  -0.5773  -0.4888  -0.4444
    -0.4444  -0.4085  -0.3044  -0.2979

     occupation numbers 
     1.0000   1.0000   1.0000   1.0000   1.0000   1.0000   1.0000   1.0000
     1.0000   1.0000   1.0000   1.0000   1.0000   1.0000   1.0000   1.0000
     1.0000   1.0000   1.0000   1.0000   1.0000   1.0000   1.0000   1.0000
     1.0000   1.0000   1.0000   1.0000   1.0000   1.0000   1.0000   1.0000
     1.0000   1.0000   1.0000   1.0000   1.0000   1.0000   1.0000   1.0000
     1.0000   1.0000   1.0000   1.0000   1.0000   1.0000   1.0000   1.0000
     1.0000   1.0000   1.0000   1.0000   1.0000   1.0000   1.0000   1.0000
     1.0000   1.0000   1.0000   1.0000   1.0000   1.0000   1.0000   1.0000
     1.0000   1.0000   1.0197   1.0822   0.7297   0.7297   0.4932   0.4931
     0.0000   0.0000   0.0000   0.0000   0.0000   0.0000   0.0000   0.0000
     0.0000   0.0000   0.0000   0.0000   0.0000   0.0000   0.0000   0.0000
     0.0000   0.0000   0.0000   0.0000   0.0000   0.0000   0.0000   0.0000
     0.0000   0.0000   0.0000   0.0000   0.0000   0.0000   0.0000   0.0000
     0.0000   0.0000   0.0000   0.0000

          k = 0.0000 0.4949 0.0000 (341402 PWs)   bands (ev):

   -51.7619 -51.7619 -51.7619 -51.7619 -51.7619 -51.7619 -51.7618 -51.7618
   -50.8998 -50.8998 -50.8997 -50.8997 -50.8997 -50.8997 -50.8997 -50.8996
   -50.5525 -50.5525 -50.5524 -50.5524 -50.5524 -50.5524 -50.5524 -50.5524
   -50.3998 -50.3987 -50.3969 -50.3969 -50.3916 -50.3913 -50.3907 -50.3907
   -50.3853 -50.3852 -50.3849 -50.3848 -50.3807 -50.3807 -50.3779 -50.3767
   -50.2467 -50.2467 -50.2467 -50.2467 -50.2466 -50.2466 -50.2465 -50.2465
    -7.0020  -6.7759  -6.5279  -6.3022  -6.0994  -6.0994  -5.6786  -5.6274
    -5.6274  -5.4548  -4.8009  -4.8009  -4.7642  -4.7642  -4.6137  -4.4004
    -4.3690  -4.3690  -4.2708  -4.2708  -4.0625  -3.8969  -3.8969  -3.7582
    -3.7582  -3.6101  -3.4376  -3.3886  -3.3886  -3.3702  -3.2246  -3.0648
    -3.0102  -3.0101  -2.9145  -2.7672  -2.6252  -2.6137  -2.6137  -2.4985
    -2.2135  -2.2030  -1.9409  -1.9409  -1.8685  -1.7362  -1.7086  -1.7086
    -1.4496  -1.1595  -1.0025  -0.8634  -0.6293  -0.5292  -0.4822  -0.4461
    -0.3304  -0.3304  -0.2725  -0.2725

     occupation numbers 
     1.0000   1.0000   1.0000   1.0000   1.0000   1.0000   1.0000   1.0000
     1.0000   1.0000   1.0000   1.0000   1.0000   1.0000   1.0000   1.0000
     1.0000   1.0000   1.0000   1.0000   1.0000   1.0000   1.0000   1.0000
     1.0000   1.0000   1.0000   1.0000   1.0000   1.0000   1.0000   1.0000
     1.0000   1.0000   1.0000   1.0000   1.0000   1.0000   1.0000   1.0000
     1.0000   1.0000   1.0000   1.0000   1.0000   1.0000   1.0000   1.0000
     1.0000   1.0000   1.0000   1.0000   1.0000   1.0000   1.0000   1.0000
     1.0000   1.0000   1.0000   1.0000   1.0000   1.0000   1.0000   1.0001
     1.0002   1.0002   1.0051   1.0051   1.0659   0.3703   0.3703   0.0234
     0.0234   0.0001   0.0000   0.0000   0.0000   0.0000   0.0000   0.0000
     0.0000   0.0000   0.0000   0.0000   0.0000   0.0000   0.0000   0.0000
     0.0000   0.0000   0.0000   0.0000   0.0000   0.0000   0.0000   0.0000
     0.0000   0.0000   0.0000   0.0000   0.0000   0.0000   0.0000   0.0000
     0.0000   0.0000   0.0000   0.0000

          k = 0.1429 0.2474 0.0000 (341214 PWs)   bands (ev):

   -51.7619 -51.7619 -51.7619 -51.7619 -51.7619 -51.7619 -51.7618 -51.7618
   -50.8998 -50.8998 -50.8997 -50.8997 -50.8997 -50.8997 -50.8996 -50.8996
   -50.5525 -50.5525 -50.5524 -50.5524 -50.5524 -50.5524 -50.5524 -50.5524
   -50.4009 -50.3973 -50.3973 -50.3966 -50.3919 -50.3909 -50.3909 -50.3907
   -50.3852 -50.3851 -50.3850 -50.3847 -50.3811 -50.3798 -50.3798 -50.3756
   -50.2467 -50.2467 -50.2467 -50.2467 -50.2467 -50.2466 -50.2465 -50.2464
    -7.1956  -6.7213  -6.2912  -6.2912  -5.8712  -5.8191  -5.8191  -5.6248
    -5.6090  -5.1526  -5.1391  -4.9869  -4.9869  -4.9357  -4.9357  -4.8062
    -4.4518  -4.4518  -4.3241  -4.3040  -3.9871  -3.9871  -3.9844  -3.5582
    -3.5582  -3.5402  -3.5104  -3.5104  -3.4601  -3.3969  -2.9680  -2.9680
    -2.9436  -2.7885  -2.7885  -2.6490  -2.4192  -2.4037  -2.2964  -2.2964
    -2.1898  -2.0115  -1.8871  -1.8627  -1.8571  -1.8570  -1.5416  -1.2229
    -1.1824  -1.1823  -0.8078  -0.7052  -0.5329  -0.5161  -0.5161  -0.4576
    -0.4141  -0.3469  -0.3469  -0.2657

     occupation numbers 
     1.0000   1.0000   1.0000   1.0000   1.0000   1.0000   1.0000   1.0000
     1.0000   1.0000   1.0000   1.0000   1.0000   1.0000   1.0000   1.0000
     1.0000   1.0000   1.0000   1.0000   1.0000   1.0000   1.0000   1.0000
     1.0000   1.0000   1.0000   1.0000   1.0000   1.0000   1.0000   1.0000
     1.0000   1.0000   1.0000   1.0000   1.0000   1.0000   1.0000   1.0000
     1.0000   1.0000   1.0000   1.0000   1.0000   1.0000   1.0000   1.0000
     1.0000   1.0000   1.0000   1.0000   1.0000   1.0000   1.0000   1.0000
     1.0000   1.0000   1.0000   1.0000   1.0000   1.0000   1.0000   1.0000
     1.0000   1.0000   1.0010   1.0019   0.8453   0.8453   0.8329   0.0000
     0.0000   0.0000   0.0000   0.0000   0.0000   0.0000   0.0000   0.0000
     0.0000   0.0000   0.0000   0.0000   0.0000   0.0000   0.0000   0.0000
     0.0000   0.0000   0.0000   0.0000   0.0000   0.0000   0.0000   0.0000
     0.0000   0.0000   0.0000   0.0000   0.0000   0.0000   0.0000   0.0000
     0.0000   0.0000   0.0000   0.0000

          k = 0.1429 0.4124 0.0000 (341352 PWs)   bands (ev):

   -51.7619 -51.7619 -51.7619 -51.7619 -51.7619 -51.7619 -51.7618 -51.7618
   -50.8998 -50.8998 -50.8997 -50.8997 -50.8997 -50.8997 -50.8996 -50.8996
   -50.5525 -50.5525 -50.5524 -50.5524 -50.5524 -50.5524 -50.5524 -50.5524
   -50.4001 -50.3981 -50.3975 -50.3965 -50.3917 -50.3911 -50.3909 -50.3905
   -50.3853 -50.3852 -50.3851 -50.3844 -50.3816 -50.3796 -50.3786 -50.3764
   -50.2467 -50.2467 -50.2467 -50.2466 -50.2466 -50.2466 -50.2465 -50.2465
    -7.0666  -6.6144  -6.5924  -6.3886  -6.1410  -5.9158  -5.7427  -5.7152
    -5.2958  -5.2874  -5.2255  -5.0750  -4.8092  -4.6773  -4.5997  -4.4300
    -4.3986  -4.3813  -4.2229  -4.1352  -4.0328  -4.0144  -3.8834  -3.8715
    -3.8239  -3.4401  -3.3892  -3.3708  -3.3521  -3.2544  -3.2342  -3.0682
    -3.0284  -2.8070  -2.7936  -2.7915  -2.7875  -2.7706  -2.5826  -2.4204
    -2.2760  -2.1106  -2.0322  -2.0134  -1.8388  -1.8337  -1.6582  -1.5629
    -1.3103  -1.1831  -1.0934  -0.7891  -0.4969  -0.4462  -0.4370  -0.3417
    -0.3381  -0.2698  -0.2294  -0.2257

     occupation numbers 
     1.0000   1.0000   1.0000   1.0000   1.0000   1.0000   1.0000   1.0000
     1.0000   1.0000   1.0000   1.0000   1.0000   1.0000   1.0000   1.0000
     1.0000   1.0000   1.0000   1.0000   1.0000   1.0000   1.0000   1.0000
     1.0000   1.0000   1.0000   1.0000   1.0000   1.0000   1.0000   1.0000
     1.0000   1.0000   1.0000   1.0000   1.0000   1.0000   1.0000   1.0000
     1.0000   1.0000   1.0000   1.0000   1.0000   1.0000   1.0000   1.0000
     1.0000   1.0000   1.0000   1.0000   1.0000   1.0000   1.0000   1.0000
     1.0000   1.0000   1.0000   1.0000   1.0000   1.0000   1.0000   1.0000
     1.0001   1.0001   1.0167   1.0682   1.0116   0.9564   0.3074   0.2574
     0.1099   0.0000   0.0000   0.0000   0.0000   0.0000   0.0000   0.0000
     0.0000   0.0000   0.0000   0.0000   0.0000   0.0000   0.0000   0.0000
     0.0000   0.0000   0.0000   0.0000   0.0000   0.0000   0.0000   0.0000
     0.0000   0.0000   0.0000   0.0000   0.0000   0.0000   0.0000   0.0000
     0.0000   0.0000   0.0000   0.0000

          k = 0.1429 0.5774 0.0000 (341402 PWs)   bands (ev):

   -51.7619 -51.7619 -51.7619 -51.7619 -51.7619 -51.7619 -51.7618 -51.7618
   -50.8998 -50.8998 -50.8997 -50.8997 -50.8997 -50.8997 -50.8996 -50.8996
   -50.5525 -50.5525 -50.5524 -50.5524 -50.5524 -50.5524 -50.5524 -50.5524
   -50.3992 -50.3991 -50.3975 -50.3965 -50.3914 -50.3914 -50.3909 -50.3905
   -50.3853 -50.3852 -50.3852 -50.3842 -50.3819 -50.3795 -50.3774 -50.3774
   -50.2467 -50.2467 -50.2467 -50.2466 -50.2466 -50.2466 -50.2465 -50.2465
    -6.8729  -6.8728  -6.4212  -6.3989  -6.3989  -5.9481  -5.7481  -5.5505
    -5.5505  -5.2788  -5.1055  -4.8810  -4.8589  -4.5200  -4.4881  -4.4881
    -4.4008  -4.2896  -4.2337  -4.2295  -4.0343  -3.7342  -3.7342  -3.7252
    -3.7238  -3.6739  -3.5535  -3.3632  -3.3631  -3.1979  -3.1752  -3.1751
    -3.1078  -3.1073  -3.1072  -2.8411  -2.6585  -2.5723  -2.5723  -2.5537
    -2.3899  -2.3899  -2.0798  -1.9497  -1.8581  -1.8581  -1.6747  -1.4920
    -1.4381  -1.4381  -0.8198  -0.8198  -0.5571  -0.5571  -0.4615  -0.3900
    -0.3054  -0.3054  -0.1727  -0.1259

     occupation numbers 
     1.0000   1.0000   1.0000   1.0000   1.0000   1.0000   1.0000   1.0000
     1.0000   1.0000   1.0000   1.0000   1.0000   1.0000   1.0000   1.0000
     1.0000   1.0000   1.0000   1.0000   1.0000   1.0000   1.0000   1.0000
     1.0000   1.0000   1.0000   1.0000   1.0000   1.0000   1.0000   1.0000
     1.0000   1.0000   1.0000   1.0000   1.0000   1.0000   1.0000   1.0000
     1.0000   1.0000   1.0000   1.0000   1.0000   1.0000   1.0000   1.0000
     1.0000   1.0000   1.0000   1.0000   1.0000   1.0000   1.0000   1.0000
     1.0000   1.0000   1.0000   1.0000   1.0000   1.0000   1.0000   1.0000
     1.0001   1.0029   1.0131   1.0144   1.0154   0.0119   0.0119   0.0091
     0.0087   0.0017   0.0000   0.0000   0.0000   0.0000   0.0000   0.0000
     0.0000   0.0000   0.0000   0.0000   0.0000   0.0000   0.0000   0.0000
     0.0000   0.0000   0.0000   0.0000   0.0000   0.0000   0.0000   0.0000
     0.0000   0.0000   0.0000   0.0000   0.0000   0.0000   0.0000   0.0000
     0.0000   0.0000   0.0000   0.0000

          k = 0.2857 0.4949 0.0000 (341466 PWs)   bands (ev):

   -51.7619 -51.7619 -51.7619 -51.7619 -51.7619 -51.7619 -51.7618 -51.7618
   -50.8998 -50.8998 -50.8997 -50.8997 -50.8997 -50.8997 -50.8996 -50.8996
   -50.5525 -50.5525 -50.5524 -50.5524 -50.5524 -50.5524 -50.5524 -50.5524
   -50.3993 -50.3984 -50.3984 -50.3963 -50.3915 -50.3912 -50.3912 -50.3904
   -50.3853 -50.3853 -50.3852 -50.3837 -50.3826 -50.3784 -50.3783 -50.3772
   -50.2467 -50.2467 -50.2466 -50.2466 -50.2466 -50.2466 -50.2466 -50.2465
    -6.9052  -6.6792  -6.6792  -6.4312  -6.2056  -6.2056  -5.5824  -5.3589
    -5.3589  -5.3462  -5.3302  -4.9284  -4.8698  -4.8358  -4.5185  -4.4465
    -4.3074  -4.3074  -4.0138  -4.0055  -4.0004  -4.0004  -3.6457  -3.6457
    -3.6146  -3.5317  -3.5317  -3.4197  -3.3743  -3.3078  -3.2191  -3.2191
    -3.0687  -3.0687  -3.0170  -2.9066  -2.8448  -2.8252  -2.5846  -2.5846
    -2.2270  -2.2259  -2.2259  -2.1757  -1.9611  -1.9258  -1.5836  -1.5836
    -1.4749  -1.0777  -1.0777  -0.7083  -0.4421  -0.4286  -0.4133  -0.4133
    -0.3315  -0.3315  -0.2574  -0.2123

     occupation numbers 
     1.0000   1.0000   1.0000   1.0000   1.0000   1.0000   1.0000   1.0000
     1.0000   1.0000   1.0000   1.0000   1.0000   1.0000   1.0000   1.0000
     1.0000   1.0000   1.0000   1.0000   1.0000   1.0000   1.0000   1.0000
     1.0000   1.0000   1.0000   1.0000   1.0000   1.0000   1.0000   1.0000
     1.0000   1.0000   1.0000   1.0000   1.0000   1.0000   1.0000   1.0000
     1.0000   1.0000   1.0000   1.0000   1.0000   1.0000   1.0000   1.0000
     1.0000   1.0000   1.0000   1.0000   1.0000   1.0000   1.0000   1.0000
     1.0000   1.0000   1.0000   1.0000   1.0000   1.0000   1.0000   1.0000
     1.0017   1.0017   0.9546   0.9239   0.9037   0.9037   0.0006   0.0006
     0.0002   0.0000   0.0000   0.0000   0.0000   0.0000   0.0000   0.0000
     0.0000   0.0000   0.0000   0.0000   0.0000   0.0000   0.0000   0.0000
     0.0000   0.0000   0.0000   0.0000   0.0000   0.0000   0.0000   0.0000
     0.0000   0.0000   0.0000   0.0000   0.0000   0.0000   0.0000   0.0000
     0.0000   0.0000   0.0000   0.0000

          k =-0.1429 0.0825 0.0000 (341287 PWs)   bands (ev):

   -51.7619 -51.7619 -51.7619 -51.7619 -51.7619 -51.7619 -51.7618 -51.7618
   -50.8998 -50.8998 -50.8997 -50.8997 -50.8997 -50.8997 -50.8996 -50.8996
   -50.5525 -50.5525 -50.5524 -50.5524 -50.5524 -50.5524 -50.5524 -50.5524
   -50.4013 -50.3970 -50.3968 -50.3967 -50.3920 -50.3909 -50.3908 -50.3908
   -50.3851 -50.3849 -50.3849 -50.3849 -50.3806 -50.3806 -50.3801 -50.3753
   -50.2467 -50.2467 -50.2467 -50.2467 -50.2467 -50.2466 -50.2464 -50.2464
    -7.2601  -6.7857  -6.1292  -5.9355  -5.9038  -5.9038  -5.6589  -5.4721
    -5.4721  -5.4118  -5.4118  -5.2224  -4.9925  -4.9925  -4.8713  -4.8712
    -4.6929  -4.5792  -4.5792  -4.1792  -4.1792  -4.0309  -3.6347  -3.6026
    -3.6026  -3.5945  -3.5194  -3.5194  -3.4052  -3.0513  -3.0513  -2.9353
    -2.9353  -2.8534  -2.8369  -2.3729  -2.3729  -2.3184  -2.1982  -2.0193
    -1.9293  -1.9293  -1.9202  -1.7829  -1.5059  -1.3648  -1.3222  -1.3222
    -1.2231  -1.1967  -0.8715  -0.7303  -0.6643  -0.4961  -0.4703  -0.4703
    -0.4380  -0.4121  -0.3812  -0.3812

     occupation numbers 
     1.0000   1.0000   1.0000   1.0000   1.0000   1.0000   1.0000   1.0000
     1.0000   1.0000   1.0000   1.0000   1.0000   1.0000   1.0000   1.0000
     1.0000   1.0000   1.0000   1.0000   1.0000   1.0000   1.0000   1.0000
     1.0000   1.0000   1.0000   1.0000   1.0000   1.0000   1.0000   1.0000
     1.0000   1.0000   1.0000   1.0000   1.0000   1.0000   1.0000   1.0000
     1.0000   1.0000   1.0000   1.0000   1.0000   1.0000   1.0000   1.0000
     1.0000   1.0000   1.0000   1.0000   1.0000   1.0000   1.0000   1.0000
     1.0000   1.0000   1.0000   1.0000   1.0000   1.0000   1.0000   1.0000
     1.0000   1.0000   1.0000   1.0387   1.0387   1.0067   0.0004   0.0001
     0.0001   0.0001   0.0000   0.0000   0.0000   0.0000   0.0000   0.0000
     0.0000   0.0000   0.0000   0.0000   0.0000   0.0000   0.0000   0.0000
     0.0000   0.0000   0.0000   0.0000   0.0000   0.0000   0.0000   0.0000
     0.0000   0.0000   0.0000   0.0000   0.0000   0.0000   0.0000   0.0000
     0.0000   0.0000   0.0000   0.0000

          k =-0.2857 0.1650 0.0000 (341325 PWs)   bands (ev):

   -51.7619 -51.7619 -51.7619 -51.7619 -51.7619 -51.7619 -51.7618 -51.7618
   -50.8998 -50.8998 -50.8997 -50.8997 -50.8997 -50.8997 -50.8996 -50.8996
   -50.5525 -50.5525 -50.5524 -50.5524 -50.5524 -50.5524 -50.5524 -50.5524
   -50.4007 -50.3977 -50.3968 -50.3968 -50.3918 -50.3911 -50.3907 -50.3907
   -50.3853 -50.3850 -50.3849 -50.3849 -50.3807 -50.3806 -50.3791 -50.3758
   -50.2467 -50.2467 -50.2467 -50.2467 -50.2467 -50.2466 -50.2465 -50.2464
    -7.1634  -6.6890  -6.4849  -6.0340  -6.0340  -6.0120  -5.8390  -5.5636
    -5.5636  -5.1703  -5.1339  -5.1339  -4.7774  -4.7774  -4.7738  -4.6801
    -4.6027  -4.6027  -4.2153  -4.1051  -3.9639  -3.9639  -3.9208  -3.9207
    -3.5477  -3.5476  -3.5141  -3.4194  -3.4194  -3.3970  -3.2775  -2.8156
    -2.7758  -2.7758  -2.7181  -2.7099  -2.6253  -2.6253  -2.3853  -2.2809
    -2.1101  -2.0848  -2.0150  -2.0150  -1.8242  -1.6577  -1.4491  -1.4491
    -1.3472  -1.1410  -0.8648  -0.7901  -0.6126  -0.5773  -0.4888  -0.4444
    -0.4444  -0.4085  -0.3044  -0.2980

     occupation numbers 
     1.0000   1.0000   1.0000   1.0000   1.0000   1.0000   1.0000   1.0000
     1.0000   1.0000   1.0000   1.0000   1.0000   1.0000   1.0000   1.0000
     1.0000   1.0000   1.0000   1.0000   1.0000   1.0000   1.0000   1.0000
     1.0000   1.0000   1.0000   1.0000   1.0000   1.0000   1.0000   1.0000
     1.0000   1.0000   1.0000   1.0000   1.0000   1.0000   1.0000   1.0000
     1.0000   1.0000   1.0000   1.0000   1.0000   1.0000   1.0000   1.0000
     1.0000   1.0000   1.0000   1.0000   1.0000   1.0000   1.0000   1.0000
     1.0000   1.0000   1.0000   1.0000   1.0000   1.0000   1.0000   1.0000
     1.0000   1.0000   1.0197   1.0822   0.7297   0.7296   0.4932   0.4931
     0.0000   0.0000   0.0000   0.0000   0.0000   0.0000   0.0000   0.0000
     0.0000   0.0000   0.0000   0.0000   0.0000   0.0000   0.0000   0.0000
     0.0000   0.0000   0.0000   0.0000   0.0000   0.0000   0.0000   0.0000
     0.0000   0.0000   0.0000   0.0000   0.0000   0.0000   0.0000   0.0000
     0.0000   0.0000   0.0000   0.0000

          k =-0.4286 0.2474 0.0000 (341402 PWs)   bands (ev):

   -51.7619 -51.7619 -51.7619 -51.7619 -51.7619 -51.7619 -51.7618 -51.7618
   -50.8998 -50.8998 -50.8998 -50.8997 -50.8997 -50.8997 -50.8996 -50.8996
   -50.5525 -50.5525 -50.5524 -50.5524 -50.5524 -50.5524 -50.5524 -50.5524
   -50.3998 -50.3987 -50.3969 -50.3969 -50.3916 -50.3913 -50.3907 -50.3907
   -50.3853 -50.3852 -50.3848 -50.3848 -50.3807 -50.3807 -50.3779 -50.3767
   -50.2467 -50.2467 -50.2467 -50.2467 -50.2466 -50.2466 -50.2465 -50.2465
    -7.0020  -6.7759  -6.5279  -6.3022  -6.0994  -6.0994  -5.6786  -5.6274
    -5.6274  -5.4548  -4.8009  -4.8009  -4.7642  -4.7642  -4.6137  -4.4004
    -4.3690  -4.3690  -4.2708  -4.2708  -4.0625  -3.8969  -3.8969  -3.7582
    -3.7582  -3.6101  -3.4376  -3.3886  -3.3886  -3.3702  -3.2246  -3.0648
    -3.0101  -3.0101  -2.9145  -2.7672  -2.6252  -2.6137  -2.6137  -2.4985
    -2.2135  -2.2030  -1.9409  -1.9409  -1.8685  -1.7362  -1.7086  -1.7086
    -1.4496  -1.1595  -1.0025  -0.8634  -0.6293  -0.5293  -0.4822  -0.4461
    -0.3304  -0.3304  -0.2725  -0.2725

     occupation numbers 
     1.0000   1.0000   1.0000   1.0000   1.0000   1.0000   1.0000   1.0000
     1.0000   1.0000   1.0000   1.0000   1.0000   1.0000   1.0000   1.0000
     1.0000   1.0000   1.0000   1.0000   1.0000   1.0000   1.0000   1.0000
     1.0000   1.0000   1.0000   1.0000   1.0000   1.0000   1.0000   1.0000
     1.0000   1.0000   1.0000   1.0000   1.0000   1.0000   1.0000   1.0000
     1.0000   1.0000   1.0000   1.0000   1.0000   1.0000   1.0000   1.0000
     1.0000   1.0000   1.0000   1.0000   1.0000   1.0000   1.0000   1.0000
     1.0000   1.0000   1.0000   1.0000   1.0000   1.0000   1.0000   1.0001
     1.0002   1.0002   1.0051   1.0051   1.0659   0.3703   0.3702   0.0234
     0.0234   0.0001   0.0000   0.0000   0.0000   0.0000   0.0000   0.0000
     0.0000   0.0000   0.0000   0.0000   0.0000   0.0000   0.0000   0.0000
     0.0000   0.0000   0.0000   0.0000   0.0000   0.0000   0.0000   0.0000
     0.0000   0.0000   0.0000   0.0000   0.0000   0.0000   0.0000   0.0000
     0.0000   0.0000   0.0000   0.0000

          k = 0.2857-0.0000 0.0000 (341214 PWs)   bands (ev):

   -51.7619 -51.7619 -51.7619 -51.7619 -51.7619 -51.7619 -51.7618 -51.7618
   -50.8998 -50.8998 -50.8997 -50.8997 -50.8997 -50.8997 -50.8996 -50.8996
   -50.5525 -50.5525 -50.5524 -50.5524 -50.5524 -50.5524 -50.5524 -50.5524
   -50.4009 -50.3973 -50.3973 -50.3966 -50.3919 -50.3909 -50.3909 -50.3907
   -50.3852 -50.3851 -50.3850 -50.3847 -50.3811 -50.3798 -50.3797 -50.3756
   -50.2467 -50.2467 -50.2467 -50.2467 -50.2466 -50.2466 -50.2465 -50.2464
    -7.1956  -6.7213  -6.2912  -6.2912  -5.8712  -5.8191  -5.8191  -5.6248
    -5.6090  -5.1526  -5.1391  -4.9869  -4.9869  -4.9357  -4.9357  -4.8062
    -4.4518  -4.4518  -4.3241  -4.3040  -3.9871  -3.9871  -3.9844  -3.5582
    -3.5582  -3.5402  -3.5104  -3.5104  -3.4601  -3.3969  -2.9680  -2.9680
    -2.9436  -2.7885  -2.7885  -2.6490  -2.4192  -2.4037  -2.2964  -2.2964
    -2.1898  -2.0116  -1.8871  -1.8627  -1.8571  -1.8570  -1.5416  -1.2229
    -1.1823  -1.1823  -0.8078  -0.7052  -0.5329  -0.5161  -0.5161  -0.4576
    -0.4141  -0.3469  -0.3469  -0.2657

     occupation numbers 
     1.0000   1.0000   1.0000   1.0000   1.0000   1.0000   1.0000   1.0000
     1.0000   1.0000   1.0000   1.0000   1.0000   1.0000   1.0000   1.0000
     1.0000   1.0000   1.0000   1.0000   1.0000   1.0000   1.0000   1.0000
     1.0000   1.0000   1.0000   1.0000   1.0000   1.0000   1.0000   1.0000
     1.0000   1.0000   1.0000   1.0000   1.0000   1.0000   1.0000   1.0000
     1.0000   1.0000   1.0000   1.0000   1.0000   1.0000   1.0000   1.0000
     1.0000   1.0000   1.0000   1.0000   1.0000   1.0000   1.0000   1.0000
     1.0000   1.0000   1.0000   1.0000   1.0000   1.0000   1.0000   1.0000
     1.0000   1.0000   1.0010   1.0019   0.8454   0.8453   0.8329   0.0000
     0.0000   0.0000   0.0000   0.0000   0.0000   0.0000   0.0000   0.0000
     0.0000   0.0000   0.0000   0.0000   0.0000   0.0000   0.0000   0.0000
     0.0000   0.0000   0.0000   0.0000   0.0000   0.0000   0.0000   0.0000
     0.0000   0.0000   0.0000   0.0000   0.0000   0.0000   0.0000   0.0000
     0.0000   0.0000   0.0000   0.0000

          k =-0.2857 0.3299 0.0000 (341352 PWs)   bands (ev):

   -51.7619 -51.7619 -51.7619 -51.7619 -51.7619 -51.7619 -51.7618 -51.7618
   -50.8998 -50.8998 -50.8997 -50.8997 -50.8997 -50.8997 -50.8996 -50.8996
   -50.5525 -50.5525 -50.5524 -50.5524 -50.5524 -50.5524 -50.5524 -50.5524
   -50.4001 -50.3981 -50.3975 -50.3965 -50.3917 -50.3911 -50.3909 -50.3905
   -50.3853 -50.3852 -50.3851 -50.3844 -50.3816 -50.3796 -50.3786 -50.3764
   -50.2467 -50.2467 -50.2467 -50.2466 -50.2466 -50.2466 -50.2465 -50.2465
    -7.0666  -6.6144  -6.5924  -6.3886  -6.1410  -5.9158  -5.7427  -5.7152
    -5.2958  -5.2874  -5.2255  -5.0750  -4.8092  -4.6773  -4.5997  -4.4300
    -4.3986  -4.3813  -4.2229  -4.1353  -4.0328  -4.0144  -3.8834  -3.8715
    -3.8239  -3.4401  -3.3892  -3.3708  -3.3521  -3.2544  -3.2342  -3.0682
    -3.0284  -2.8070  -2.7936  -2.7915  -2.7875  -2.7706  -2.5826  -2.4205
    -2.2760  -2.1106  -2.0322  -2.0134  -1.8388  -1.8337  -1.6582  -1.5629
    -1.3103  -1.1831  -1.0934  -0.7891  -0.4969  -0.4462  -0.4370  -0.3417
    -0.3381  -0.2698  -0.2294  -0.2257

     occupation numbers 
     1.0000   1.0000   1.0000   1.0000   1.0000   1.0000   1.0000   1.0000
     1.0000   1.0000   1.0000   1.0000   1.0000   1.0000   1.0000   1.0000
     1.0000   1.0000   1.0000   1.0000   1.0000   1.0000   1.0000   1.0000
     1.0000   1.0000   1.0000   1.0000   1.0000   1.0000   1.0000   1.0000
     1.0000   1.0000   1.0000   1.0000   1.0000   1.0000   1.0000   1.0000
     1.0000   1.0000   1.0000   1.0000   1.0000   1.0000   1.0000   1.0000
     1.0000   1.0000   1.0000   1.0000   1.0000   1.0000   1.0000   1.0000
     1.0000   1.0000   1.0000   1.0000   1.0000   1.0000   1.0000   1.0000
     1.0001   1.0001   1.0167   1.0682   1.0116   0.9564   0.3075   0.2574
     0.1099   0.0000   0.0000   0.0000   0.0000   0.0000   0.0000   0.0000
     0.0000   0.0000   0.0000   0.0000   0.0000   0.0000   0.0000   0.0000
     0.0000   0.0000   0.0000   0.0000   0.0000   0.0000   0.0000   0.0000
     0.0000   0.0000   0.0000   0.0000   0.0000   0.0000   0.0000   0.0000
     0.0000   0.0000   0.0000   0.0000

          k = 0.4286 0.0825 0.0000 (341352 PWs)   bands (ev):

   -51.7619 -51.7619 -51.7619 -51.7619 -51.7619 -51.7619 -51.7618 -51.7618
   -50.8998 -50.8998 -50.8997 -50.8997 -50.8997 -50.8997 -50.8996 -50.8996
   -50.5525 -50.5525 -50.5524 -50.5524 -50.5524 -50.5524 -50.5524 -50.5524
   -50.4001 -50.3981 -50.3975 -50.3965 -50.3917 -50.3911 -50.3909 -50.3905
   -50.3853 -50.3852 -50.3851 -50.3844 -50.3816 -50.3796 -50.3786 -50.3764
   -50.2467 -50.2467 -50.2467 -50.2466 -50.2466 -50.2466 -50.2465 -50.2465
    -7.0666  -6.6144  -6.5924  -6.3886  -6.1410  -5.9158  -5.7427  -5.7152
    -5.2958  -5.2874  -5.2255  -5.0750  -4.8092  -4.6773  -4.5997  -4.4300
    -4.3986  -4.3813  -4.2229  -4.1352  -4.0328  -4.0144  -3.8834  -3.8715
    -3.8239  -3.4401  -3.3892  -3.3707  -3.3521  -3.2544  -3.2342  -3.0682
    -3.0284  -2.8070  -2.7936  -2.7915  -2.7875  -2.7706  -2.5826  -2.4205
    -2.2760  -2.1106  -2.0322  -2.0134  -1.8388  -1.8337  -1.6582  -1.5629
    -1.3103  -1.1831  -1.0934  -0.7891  -0.4969  -0.4462  -0.4370  -0.3417
    -0.3381  -0.2698  -0.2294  -0.2257

     occupation numbers 
     1.0000   1.0000   1.0000   1.0000   1.0000   1.0000   1.0000   1.0000
     1.0000   1.0000   1.0000   1.0000   1.0000   1.0000   1.0000   1.0000
     1.0000   1.0000   1.0000   1.0000   1.0000   1.0000   1.0000   1.0000
     1.0000   1.0000   1.0000   1.0000   1.0000   1.0000   1.0000   1.0000
     1.0000   1.0000   1.0000   1.0000   1.0000   1.0000   1.0000   1.0000
     1.0000   1.0000   1.0000   1.0000   1.0000   1.0000   1.0000   1.0000
     1.0000   1.0000   1.0000   1.0000   1.0000   1.0000   1.0000   1.0000
     1.0000   1.0000   1.0000   1.0000   1.0000   1.0000   1.0000   1.0000
     1.0001   1.0001   1.0167   1.0682   1.0116   0.9564   0.3075   0.2574
     0.1099   0.0000   0.0000   0.0000   0.0000   0.0000   0.0000   0.0000
     0.0000   0.0000   0.0000   0.0000   0.0000   0.0000   0.0000   0.0000
     0.0000   0.0000   0.0000   0.0000   0.0000   0.0000   0.0000   0.0000
     0.0000   0.0000   0.0000   0.0000   0.0000   0.0000   0.0000   0.0000
     0.0000   0.0000   0.0000   0.0000

          k =-0.4286 0.4124 0.0000 (341402 PWs)   bands (ev):

   -51.7619 -51.7619 -51.7619 -51.7619 -51.7619 -51.7619 -51.7618 -51.7618
   -50.8998 -50.8998 -50.8998 -50.8997 -50.8997 -50.8997 -50.8996 -50.8996
   -50.5525 -50.5525 -50.5524 -50.5524 -50.5524 -50.5524 -50.5524 -50.5524
   -50.3992 -50.3992 -50.3975 -50.3965 -50.3914 -50.3914 -50.3909 -50.3905
   -50.3853 -50.3853 -50.3852 -50.3842 -50.3819 -50.3795 -50.3774 -50.3774
   -50.2467 -50.2467 -50.2467 -50.2466 -50.2466 -50.2466 -50.2466 -50.2465
    -6.8729  -6.8728  -6.4212  -6.3989  -6.3989  -5.9481  -5.7481  -5.5505
    -5.5505  -5.2788  -5.1055  -4.8810  -4.8589  -4.5200  -4.4881  -4.4881
    -4.4008  -4.2896  -4.2337  -4.2295  -4.0343  -3.7342  -3.7342  -3.7252
    -3.7238  -3.6739  -3.5536  -3.3632  -3.3632  -3.1979  -3.1751  -3.1751
    -3.1078  -3.1073  -3.1073  -2.8411  -2.6585  -2.5723  -2.5723  -2.5537
    -2.3899  -2.3899  -2.0798  -1.9497  -1.8581  -1.8580  -1.6747  -1.4920
    -1.4381  -1.4381  -0.8198  -0.8198  -0.5571  -0.5571  -0.4615  -0.3900
    -0.3054  -0.3054  -0.1727  -0.1259

     occupation numbers 
     1.0000   1.0000   1.0000   1.0000   1.0000   1.0000   1.0000   1.0000
     1.0000   1.0000   1.0000   1.0000   1.0000   1.0000   1.0000   1.0000
     1.0000   1.0000   1.0000   1.0000   1.0000   1.0000   1.0000   1.0000
     1.0000   1.0000   1.0000   1.0000   1.0000   1.0000   1.0000   1.0000
     1.0000   1.0000   1.0000   1.0000   1.0000   1.0000   1.0000   1.0000
     1.0000   1.0000   1.0000   1.0000   1.0000   1.0000   1.0000   1.0000
     1.0000   1.0000   1.0000   1.0000   1.0000   1.0000   1.0000   1.0000
     1.0000   1.0000   1.0000   1.0000   1.0000   1.0000   1.0000   1.0000
     1.0001   1.0029   1.0131   1.0144   1.0154   0.0119   0.0119   0.0091
     0.0087   0.0017   0.0000   0.0000   0.0000   0.0000   0.0000   0.0000
     0.0000   0.0000   0.0000   0.0000   0.0000   0.0000   0.0000   0.0000
     0.0000   0.0000   0.0000   0.0000   0.0000   0.0000   0.0000   0.0000
     0.0000   0.0000   0.0000   0.0000   0.0000   0.0000   0.0000   0.0000
     0.0000   0.0000   0.0000   0.0000

          k = 0.5714-0.0000 0.0000 (341466 PWs)   bands (ev):

   -51.7619 -51.7619 -51.7619 -51.7619 -51.7619 -51.7619 -51.7618 -51.7618
   -50.8998 -50.8998 -50.8998 -50.8997 -50.8997 -50.8997 -50.8996 -50.8996
   -50.5525 -50.5525 -50.5524 -50.5524 -50.5524 -50.5524 -50.5524 -50.5524
   -50.3993 -50.3984 -50.3984 -50.3963 -50.3915 -50.3912 -50.3912 -50.3904
   -50.3853 -50.3853 -50.3852 -50.3837 -50.3826 -50.3784 -50.3783 -50.3772
   -50.2467 -50.2467 -50.2466 -50.2466 -50.2466 -50.2466 -50.2466 -50.2465
    -6.9052  -6.6792  -6.6792  -6.4312  -6.2056  -6.2056  -5.5824  -5.3589
    -5.3589  -5.3462  -5.3302  -4.9284  -4.8698  -4.8358  -4.5185  -4.4465
    -4.3074  -4.3074  -4.0138  -4.0055  -4.0004  -4.0004  -3.6457  -3.6457
    -3.6146  -3.5317  -3.5317  -3.4197  -3.3743  -3.3078  -3.2191  -3.2191
    -3.0687  -3.0687  -3.0170  -2.9066  -2.8448  -2.8252  -2.5846  -2.5846
    -2.2270  -2.2259  -2.2259  -2.1757  -1.9611  -1.9258  -1.5836  -1.5836
    -1.4749  -1.0777  -1.0777  -0.7083  -0.4421  -0.4286  -0.4133  -0.4133
    -0.3315  -0.3315  -0.2574  -0.2123

     occupation numbers 
     1.0000   1.0000   1.0000   1.0000   1.0000   1.0000   1.0000   1.0000
     1.0000   1.0000   1.0000   1.0000   1.0000   1.0000   1.0000   1.0000
     1.0000   1.0000   1.0000   1.0000   1.0000   1.0000   1.0000   1.0000
     1.0000   1.0000   1.0000   1.0000   1.0000   1.0000   1.0000   1.0000
     1.0000   1.0000   1.0000   1.0000   1.0000   1.0000   1.0000   1.0000
     1.0000   1.0000   1.0000   1.0000   1.0000   1.0000   1.0000   1.0000
     1.0000   1.0000   1.0000   1.0000   1.0000   1.0000   1.0000   1.0000
     1.0000   1.0000   1.0000   1.0000   1.0000   1.0000   1.0000   1.0000
     1.0017   1.0017   0.9545   0.9239   0.9037   0.9037   0.0006   0.0006
     0.0002   0.0000   0.0000   0.0000   0.0000   0.0000   0.0000   0.0000
     0.0000   0.0000   0.0000   0.0000   0.0000   0.0000   0.0000   0.0000
     0.0000   0.0000   0.0000   0.0000   0.0000   0.0000   0.0000   0.0000
     0.0000   0.0000   0.0000   0.0000   0.0000   0.0000   0.0000   0.0000
     0.0000   0.0000   0.0000   0.0000

     the Fermi energy is    -3.9031 ev

!    total energy              =    -721.91739818 Ry
     total all-electron energy =      -721.917788 Ry
     estimated scf accuracy    <       0.00000080 Ry

!    total charge of GC-SCF    =       3.69194872 e
     smearing contrib. (-TS)   =      -0.00085827 Ry
     internal energy E=F+TS    =    -721.91653991 Ry

     The total energy is F=E-TS. E is the sum of the following terms:
     one-electron contribution =   -8705.14110430 Ry
     hartree contribution      =    4267.81515293 Ry
     xc contribution           =    -170.71877465 Ry
     ewald contribution        =    4000.09996929 Ry
     one-center paw contrib.   =       4.23809782 Ry
      -> PAW hartree energy AE =       7.51412961 Ry
      -> PAW hartree energy PS =      -7.29149545 Ry
      -> PAW xc energy AE      =      -3.50148801 Ry
[...]
     atom   32 type  1   force =    -0.00000547   -0.00003374   -3.46328461
     atom   33 type  1   force =     0.00000334    0.00000824   -8.40939498
     atom   34 type  1   force =     0.00000254   -0.00001085   -6.26224205
     atom   35 type  1   force =     0.00001593   -0.00001648  -10.37627022
     atom   36 type  1   force =     0.00000392   -0.00001862   -1.06219091
     atom   37 type  1   force =     0.00001284    0.00000054    1.06237563
     atom   38 type  1   force =     0.00000277    0.00006938   10.37616829
     atom   39 type  1   force =     0.00000364    0.00005114    6.26278315
     atom   40 type  1   force =     0.00000778   -0.00002022    8.40913873
     atom   41 type  1   force =     0.00000335    0.00001806    3.46351306
     atom   42 type  1   force =    -0.00000092    0.00007151   12.51019981
     atom   43 type  1   force =     0.00002225    0.00001054  -12.51034314
     atom   44 type  1   force =     0.00000335    0.00001997   -3.46300575
     atom   45 type  1   force =    -0.00001611    0.00000889   -8.40915068
     atom   46 type  1   force =     0.00003037    0.00000467   -6.26230739
     atom   47 type  1   force =     0.00000335    0.00000313  -10.37595627
     atom   48 type  1   force =    -0.00001710    0.00003366   -1.06202966
     The core correction contribution to forces
     atom    1 type  1   force =     0.00000000    0.00000000    0.00000000
     atom    2 type  1   force =     0.00000000    0.00000000    0.00000000
     atom    3 type  1   force =     0.00000000    0.00000000    0.00000000
     atom    4 type  1   force =     0.00000000    0.00000000    0.00000000
     atom    5 type  1   force =     0.00000000    0.00000000    0.00000000
     atom    6 type  1   force =     0.00000000    0.00000000    0.00000000
     atom    7 type  1   force =     0.00000000    0.00000000    0.00000000
     atom    8 type  1   force =     0.00000000    0.00000000    0.00000000
     atom    9 type  1   force =     0.00000000    0.00000000    0.00000000
     atom   10 type  1   force =     0.00000000    0.00000000    0.00000000
     atom   11 type  1   force =     0.00000000    0.00000000    0.00000000
     atom   12 type  1   force =     0.00000000    0.00000000    0.00000000
     atom   13 type  1   force =     0.00000000    0.00000000    0.00000000
     atom   14 type  1   force =     0.00000000    0.00000000    0.00000000
     atom   15 type  1   force =     0.00000000    0.00000000    0.00000000
     atom   16 type  1   force =     0.00000000    0.00000000    0.00000000
     atom   17 type  1   force =     0.00000000    0.00000000    0.00000000
     atom   18 type  1   force =     0.00000000    0.00000000    0.00000000
     atom   19 type  1   force =     0.00000000    0.00000000    0.00000000
     atom   20 type  1   force =     0.00000000    0.00000000    0.00000000
     atom   21 type  1   force =     0.00000000    0.00000000    0.00000000
     atom   22 type  1   force =     0.00000000    0.00000000    0.00000000
     atom   23 type  1   force =     0.00000000    0.00000000    0.00000000
     atom   24 type  1   force =     0.00000000    0.00000000    0.00000000
     atom   25 type  1   force =     0.00000000    0.00000000    0.00000000
     atom   26 type  1   force =     0.00000000    0.00000000    0.00000000
     atom   27 type  1   force =     0.00000000    0.00000000    0.00000000
     atom   28 type  1   force =     0.00000000    0.00000000    0.00000000
     atom   29 type  1   force =     0.00000000    0.00000000    0.00000000
     atom   30 type  1   force =     0.00000000    0.00000000    0.00000000
     atom   31 type  1   force =     0.00000000    0.00000000    0.00000000
     atom   32 type  1   force =     0.00000000    0.00000000    0.00000000
     atom   33 type  1   force =     0.00000000    0.00000000    0.00000000
     atom   34 type  1   force =     0.00000000    0.00000000    0.00000000
     atom   35 type  1   force =     0.00000000    0.00000000    0.00000000
     atom   36 type  1   force =     0.00000000    0.00000000    0.00000000
     atom   37 type  1   force =     0.00000000    0.00000000    0.00000000
     atom   38 type  1   force =     0.00000000    0.00000000    0.00000000
     atom   39 type  1   force =     0.00000000    0.00000000    0.00000000
     atom   40 type  1   force =     0.00000000    0.00000000    0.00000000
     atom   41 type  1   force =     0.00000000    0.00000000    0.00000000
     atom   42 type  1   force =     0.00000000    0.00000000    0.00000000
     atom   43 type  1   force =     0.00000000    0.00000000    0.00000000
     atom   44 type  1   force =     0.00000000    0.00000000    0.00000000
     atom   45 type  1   force =     0.00000000    0.00000000    0.00000000
     atom   46 type  1   force =     0.00000000    0.00000000    0.00000000
     atom   47 type  1   force =     0.00000000    0.00000000    0.00000000
     atom   48 type  1   force =     0.00000000    0.00000000    0.00000000
     The Hubbard contrib.    to forces
     atom    1 type  1   force =     0.00000000    0.00000000    0.00000000
     atom    2 type  1   force =     0.00000000    0.00000000    0.00000000
     atom    3 type  1   force =     0.00000000    0.00000000    0.00000000
     atom    4 type  1   force =     0.00000000    0.00000000    0.00000000
     atom    5 type  1   force =     0.00000000    0.00000000    0.00000000
     atom    6 type  1   force =     0.00000000    0.00000000    0.00000000
     atom    7 type  1   force =     0.00000000    0.00000000    0.00000000
     atom    8 type  1   force =     0.00000000    0.00000000    0.00000000
     atom    9 type  1   force =     0.00000000    0.00000000    0.00000000
     atom   10 type  1   force =     0.00000000    0.00000000    0.00000000
     atom   11 type  1   force =     0.00000000    0.00000000    0.00000000
     atom   12 type  1   force =     0.00000000    0.00000000    0.00000000
     atom   13 type  1   force =     0.00000000    0.00000000    0.00000000
     atom   14 type  1   force =     0.00000000    0.00000000    0.00000000
     atom   15 type  1   force =     0.00000000    0.00000000    0.00000000
     atom   16 type  1   force =     0.00000000    0.00000000    0.00000000
     atom   17 type  1   force =     0.00000000    0.00000000    0.00000000
     atom   18 type  1   force =     0.00000000    0.00000000    0.00000000
     atom   19 type  1   force =     0.00000000    0.00000000    0.00000000
     atom   20 type  1   force =     0.00000000    0.00000000    0.00000000
     atom   21 type  1   force =     0.00000000    0.00000000    0.00000000
     atom   22 type  1   force =     0.00000000    0.00000000    0.00000000
     atom   23 type  1   force =     0.00000000    0.00000000    0.00000000
     atom   24 type  1   force =     0.00000000    0.00000000    0.00000000
     atom   25 type  1   force =     0.00000000    0.00000000    0.00000000
     atom   26 type  1   force =     0.00000000    0.00000000    0.00000000
     atom   27 type  1   force =     0.00000000    0.00000000    0.00000000
     atom   28 type  1   force =     0.00000000    0.00000000    0.00000000
     atom   29 type  1   force =     0.00000000    0.00000000    0.00000000
     atom   30 type  1   force =     0.00000000    0.00000000    0.00000000
     atom   31 type  1   force =     0.00000000    0.00000000    0.00000000
     atom   32 type  1   force =     0.00000000    0.00000000    0.00000000
     atom   33 type  1   force =     0.00000000    0.00000000    0.00000000
     atom   34 type  1   force =     0.00000000    0.00000000    0.00000000
     atom   35 type  1   force =     0.00000000    0.00000000    0.00000000
     atom   36 type  1   force =     0.00000000    0.00000000    0.00000000
     atom   37 type  1   force =     0.00000000    0.00000000    0.00000000
     atom   38 type  1   force =     0.00000000    0.00000000    0.00000000
     atom   39 type  1   force =     0.00000000    0.00000000    0.00000000
     atom   40 type  1   force =     0.00000000    0.00000000    0.00000000
     atom   41 type  1   force =     0.00000000    0.00000000    0.00000000
     atom   42 type  1   force =     0.00000000    0.00000000    0.00000000
     atom   43 type  1   force =     0.00000000    0.00000000    0.00000000
     atom   44 type  1   force =     0.00000000    0.00000000    0.00000000
     atom   45 type  1   force =     0.00000000    0.00000000    0.00000000
     atom   46 type  1   force =     0.00000000    0.00000000    0.00000000
     atom   47 type  1   force =     0.00000000    0.00000000    0.00000000
     atom   48 type  1   force =     0.00000000    0.00000000    0.00000000
     The SCF correction term to forces
     atom    1 type  1   force =    -0.00000000    0.00000005   -0.00000001
     atom    2 type  1   force =     0.00000004    0.00000007    0.00000082
     atom    3 type  1   force =    -0.00000000    0.00000002    0.00000230
     atom    4 type  1   force =     0.00000000    0.00000009   -0.00000859
     atom    5 type  1   force =     0.00000007    0.00000016    0.00000010
     atom    6 type  1   force =     0.00000000    0.00000000    0.00000050
     atom    7 type  1   force =     0.00000000   -0.00000002   -0.00000079
     atom    8 type  1   force =     0.00000003    0.00000019   -0.00000008
     atom    9 type  1   force =     0.00000000    0.00000017    0.00000867
     atom   10 type  1   force =    -0.00000000   -0.00000002   -0.00000221
     atom   11 type  1   force =    -0.00000001    0.00000012   -0.00000059
     atom   12 type  1   force =    -0.00000000    0.00000014    0.00000013
     atom   13 type  1   force =     0.00000009   -0.00000010   -0.00000005
     atom   14 type  1   force =     0.00000000   -0.00000009    0.00000078
     atom   15 type  1   force =     0.00000009   -0.00000007    0.00000219
     atom   16 type  1   force =    -0.00000005   -0.00000006   -0.00000848
     atom   17 type  1   force =     0.00000000   -0.00000020    0.00000017
     atom   18 type  1   force =     0.00000005   -0.00000003    0.00000046
     atom   19 type  1   force =     0.00000007   -0.00000003   -0.00000080
     atom   20 type  1   force =    -0.00000000   -0.00000022   -0.00000004
     atom   21 type  1   force =    -0.00000017   -0.00000011    0.00000872
     atom   22 type  1   force =     0.00000018   -0.00000008   -0.00000231
     atom   23 type  1   force =     0.00000000   -0.00000013   -0.00000074
     atom   24 type  1   force =    -0.00000008   -0.00000010    0.00000009
     atom   25 type  1   force =     0.00000000    0.00000015   -0.00000013
     atom   26 type  1   force =    -0.00000004    0.00000007    0.00000082
     atom   27 type  1   force =     0.00000000    0.00000012    0.00000224
     atom   28 type  1   force =     0.00000000    0.00000004   -0.00000854
     atom   29 type  1   force =    -0.00000007    0.00000016    0.00000010
     atom   30 type  1   force =     0.00000000    0.00000008    0.00000049
     atom   31 type  1   force =    -0.00000000    0.00000005   -0.00000071
     atom   32 type  1   force =    -0.00000003    0.00000019   -0.00000008
     atom   33 type  1   force =    -0.00000000   -0.00000004    0.00000875
     atom   34 type  1   force =     0.00000000    0.00000018   -0.00000225
     atom   35 type  1   force =     0.00000001    0.00000013   -0.00000059
     atom   36 type  1   force =    -0.00000000    0.00000004    0.00000009
     atom   37 type  1   force =    -0.00000009   -0.00000010   -0.00000005
     atom   38 type  1   force =    -0.00000000   -0.00000005    0.00000086
     atom   39 type  1   force =    -0.00000009   -0.00000007    0.00000219
     atom   40 type  1   force =     0.00000005   -0.00000006   -0.00000848
     atom   41 type  1   force =    -0.00000000   -0.00000012   -0.00000001
     atom   42 type  1   force =    -0.00000005   -0.00000003    0.00000046
     atom   43 type  1   force =    -0.00000006   -0.00000003   -0.00000080
     atom   44 type  1   force =     0.00000000   -0.00000018   -0.00000016
     atom   45 type  1   force =     0.00000017   -0.00000011    0.00000872
     atom   46 type  1   force =    -0.00000018   -0.00000008   -0.00000231
     atom   47 type  1   force =    -0.00000000   -0.00000015   -0.00000057
     atom   48 type  1   force =     0.00000008   -0.00000010    0.00000009

     Total force =     0.001190     Total SCF correction =     0.000025
     Energy error            =      9.1E-06 Ry
     Gradient error          =      3.7E-04 Ry/Bohr

     bfgs converged in  44 scf cycles and  37 bfgs steps
     (criteria: energy <  1.0E-05 Ry, force <  3.9E-04 Ry/Bohr)

     End of BFGS Geometry Optimization

     Final energy             =    -721.9211263868 Ry

     File ./Li/Lithium.bfgs deleted, as requested
Begin final coordinates

ATOMIC_POSITIONS (angstrom)
Li              -0.0000000100       -0.0000085991       25.1610364443
Li               2.4290019754        1.4024299081       21.2889824786
Li               4.8580444100        2.8048239155       22.9634525899
Li               0.0000000100       -0.0000136888       22.1397912483
Li               2.4290325977        1.4024215673       24.1469085563
Li               4.8580445000        2.8046432654       19.7878658907
Li              -0.0000000000       -0.0000932471       31.4183523580
Li               2.4290361386        1.4023707576       27.0604933591
Li               4.8580444100        2.8047526303       29.0673760464
Li              -0.0000000100       -0.0000024789       28.2435568154
Li               2.4290317691        1.4023706394       29.9181904940
Li               4.8580444200        2.8047974124       26.0463079491
Li               2.4290087145        4.2072042708       25.1610294037
Li               4.8580443900        5.6095997045       21.2887773258
Li               7.2870667210        7.0120209362       22.9634593558
Li               2.4290076469        4.2072405044       22.1397758798
Li               4.8580444100        5.6095784473       24.1467841913
Li               7.2870665478        7.0121707962       19.7878497616
Li               2.4289780250        4.2072268263       31.4184117062
Li               4.8580444000        5.6095951050       27.0604106931
Li               7.2870562859        7.0119628020       29.0673393358
Li               2.4290106342        4.2071611132       28.2435776447
Li               4.8580444000        5.6095280217       29.9181239090
Li               7.2870785402        7.0119925317       26.0462773473
Li               4.8580444000       -0.0000073341       25.1610357979
Li               7.2870868446        1.4024298881       21.2889826286
Li               9.7160888200        2.8047953896       22.9634736801
Li               4.8580443900        0.0000360222       22.1397757985
Li               7.2870562223        1.4024215673       24.1469086363
Li               9.7160887400        2.8046777391       19.7878737893
Li               4.8580444000       -0.0001001769       31.4183566938
Li               7.2870526814        1.4023707576       27.0604934091
Li               9.7160888300        2.8047674686       29.0674468753
Li               4.8580444000       -0.0000289983       28.2435349242
Li               7.2870570509        1.4023706294       29.9181905340
Li               9.7160888200        2.8047558710       26.0463481960
Li               7.2870800956        4.2072042808       25.1610294037
Li               9.7160888400        5.6096373712       21.2887823261
Li              12.1451109290        7.0120209462       22.9634593658
Li               7.2870811631        4.2072405244       22.1397758898
Li               9.7160888300        5.6095825619       24.1467753291
Li              12.1451111022        7.0121709062       19.7878497716
Li               7.2871107850        4.2072268363       31.4184116962
Li               9.7160888300        5.6095523219       27.0603839889
Li              12.1451213642        7.0119628020       29.0673393358
Li               7.2870781858        4.2071611132       28.2435776347
Li               9.7160888300        5.6095793278       29.9180467424
Li              12.1450991198        7.0119925417       26.0462773473
End final coordinates



     Writing all to output data dir ./Li/Lithium.save/ :
     XML data file
     init_run     :     17.69s CPU     19.45s WALL (       1 calls)
     electrons    :  27979.65s CPU  28271.94s WALL (      44 calls)
     update_pot   :     11.11s CPU     11.78s WALL (      43 calls)
     forces       :   4932.21s CPU   4946.97s WALL (      44 calls)

     Called by init_run:
     wfcinit      :      2.51s CPU      3.11s WALL (       1 calls)
     wfcinit:wfcr :      2.37s CPU      2.95s WALL (       8 calls)
     potinit      :      0.39s CPU      0.57s WALL (       1 calls)
     hinit0       :      8.45s CPU      9.11s WALL (       1 calls)

     Called by electrons:
     c_bands      :  16038.53s CPU  16261.27s WALL (     766 calls)
     sum_band     :   1023.90s CPU   1041.96s WALL (     766 calls)
     v_of_rho     :    117.38s CPU    118.46s WALL (     767 calls)
     v_h          :     10.31s CPU     10.37s WALL (     767 calls)
     v_xc         :    107.06s CPU    108.07s WALL (     767 calls)
     newd         :     52.05s CPU     53.12s WALL (     767 calls)
     PAW_pot      :     22.65s CPU     23.63s WALL (     810 calls)
     mix_rho      :    285.10s CPU    287.42s WALL (     766 calls)

     Called by c_bands:
     init_us_2    :    125.80s CPU    126.43s WALL (   12960 calls)
     cegterg      :  14169.65s CPU  14383.77s WALL (    8466 calls)

     Called by sum_band:
     sum_band:wei :      3.41s CPU      3.57s WALL (     766 calls)
     sum_band:loo :    952.36s CPU    958.72s WALL (     766 calls)
     sum_band:buf :     11.55s CPU     11.68s WALL (    6128 calls)
     sum_band:ini :     59.63s CPU     59.85s WALL (    6128 calls)
     sum_band:cal :    153.90s CPU    154.98s WALL (    6472 calls)
     sum_band:bec :      3.09s CPU      3.39s WALL (    6472 calls)
     addusdens    :     25.60s CPU     35.86s WALL (     766 calls)
                                        0.00s GPU  (     766 calls)
     addusd:skk   :      5.51s CPU     11.05s WALL (     766 calls)
                                        0.00s GPU  (     766 calls)

     Called by *egterg:
     cdiaghg      :   3606.03s CPU   3635.46s WALL (  132044 calls)
     cegterg:over :   1120.68s CPU   1132.19s WALL (  124382 calls)
     cegterg:upda :    711.57s CPU    727.97s WALL (  124382 calls)
     cegterg:last :    184.31s CPU    184.89s WALL (   10016 calls)
     h_psi        :   7493.55s CPU   7571.09s WALL (  132856 calls)
     s_psi        :    667.26s CPU    672.31s WALL (  132856 calls)
     g_psi        :     16.23s CPU     16.39s WALL (  124382 calls)

     Called by h_psi:
     h_psi:calbec :    891.98s CPU    897.14s WALL (  132856 calls)
     vloc_psi     :   5887.60s CPU   5931.91s WALL (  132856 calls)
                                        0.00s GPU  (  132856 calls)
     add_vuspsi   :    675.84s CPU    678.53s WALL (  132856 calls)

     General routines
     calbec       :   1075.45s CPU   1082.08s WALL (  140736 calls)
     fft          :    108.50s CPU    110.06s WALL (   10057 calls)
     ffts         :    141.63s CPU    142.48s WALL (   85050 calls)
     fftw         :   6075.99s CPU   6118.68s WALL ( 6595738 calls)
     interpolate  :     10.27s CPU     10.46s WALL (     767 calls)
 
     Parallel routines

     PAW routines
     PAW_pot      :     22.65s CPU     23.63s WALL (     810 calls)
     PAW_symme    :      0.78s CPU      0.79s WALL (    1576 calls)
 
     Environ routines
 
     PWSCF        :      9h26m CPU      9h31m WALL

 
   This run was terminated on:   8:50: 6   5Jan2025            

=------------------------------------------------------------------------------=
   JOB DONE.
=------------------------------------------------------------------------------=
