
     Program PWSCF v.7.4 starts on  6Jan2025 at 14:29:54 
        Git branch: develop
        Last git commit: e877ff360aceba4b8d76ffc2fb1c70545fc5dd57
        Last git commit date: Sat Jan 4 12:56:15 2025 +0000
        Last git commit subject: Merge branch 'orthoU' into 'develop'

     This program is part of the open-source Quantum ESPRESSO suite
     for quantum simulation of materials; please cite
         "P. Giannozzi et al., J. Phys.:Condens. Matter 21 395502 (2009);
         "P. Giannozzi et al., J. Phys.:Condens. Matter 29 465901 (2017);
         "P. Giannozzi et al., J. Chem. Phys. 152 154105 (2020);
          URL http://www.quantum-espresso.org", 
     in publications or presentations arising from this work. More details at
     http://www.quantum-espresso.org/quote

     Parallel version (MPI), running on   360 processors

     MPI processes distributed on     9 nodes
     177272 MiB available memory on the printing compute node when the environment starts
 
     Reading input from espresso.pwi
Warning: card &CELL ignored
Warning: card    PRESS_CONV_THR   = 0.1 ignored
Warning: card    CELL_DOFREE      = 'ALL' ignored
Warning: card / ignored
Warning: card &FCP ignored
Warning: card / ignored
Warning: card &RISM ignored
Warning: card / ignored

     Current dimensions of program PWSCF are:
     Max number of different atomic species (ntypx) = 10
     Max number of k-points (npk) =  40000
     Max angular momentum in pseudopotentials (lmaxx) =  4

     IMPORTANT: XC functional enforced from input :
     Exchange-correlation= PBE
                           (   1   4   3   4   0   0   0)
     Any further DFT definition will be discarded
     Please, verify this is what you really want

 
     Reading input from environ.in:
     * using ionic solvent mode
     * setting boundary derivatives method to SSCS default
     * setting electrolyte-boundary derivatives method to SSCS default

Environ Warning (1001): card EOF ignored

     
     Found identity + (  0.5000  0.0000  0.0000) symmetry
     This is a supercell, fractional translations are disabled
 
     K-points division:     npool     =       2
     R & G space division:  proc/nbgrp/npool/nimage =     180
     Subspace diagonalization in iterative solution of the eigenvalue problem:
     a serial algorithm will be used

 
     Parallelization info
     --------------------
     sticks:   dense  smooth     PW     G-vecs:    dense   smooth      PW
     Min          66      26      7                35664     9000    1225
     Max          67      27      8                35727     9059    1269
     Sum       11999    4803   1285              6425037  1625491  225007
 
     Using Slab Decomposition
 


     bravais-lattice index     =            8
     lattice parameter (alat)  =      12.9830  a.u.
     unit-cell volume          =   16814.9378 (a.u.)^3
     number of atoms/cell      =           20
     number of atomic types    =            1
     number of electrons       =        60.00
     number of Kohn-Sham states=           45
     kinetic-energy cutoff     =      80.0000  Ry
     charge density cutoff     =     800.0000  Ry
     scf convergence threshold =      1.0E-06
     mixing beta               =       0.2000
     number of iterations used =            8  local-TF  mixing
     energy convergence thresh.=      1.0E-05
     force convergence thresh. =      3.9E-04
     Exchange-correlation= PBE
                           (   1   4   3   4   0   0   0)
     nstep                     =          999


     ================================================================================
 
                                  Environ Setup Summary

     ================================================================================
 
     Please cite

          O. Andreussi, I. Dabo and N. Marzari, J. Chem. Phys. 136, 064102 (2012)
          F. Nattino, M. Truscott, N. Marzari, and O. Andreussi, J. Chem. Phys. 150, 041722 (2019)

     in publications or presentations arising from this work.

     ================================================================================
 
     Parameters
     ==========

     compensation onset threshold      =               0.1000E+00
     static permittivity               =                    89.90
     surface tension in input (dyn/cm) =                    37.30
     surface tension in internal units =               0.4792E-04

     Solvent Boundary
     ================

     solvent mode                      =                    ionic
     derivatives method                =                   lowmem
     electrolyte derivatives method    =                   lowmem
     numerical core for derivatives    =                      fft
     switching function adopted        =                     SCCS
     density limit for vacuum region   =               0.5000E-02
     density limit for bulk solvent    =               0.1000E-03
     soft-sphere radius mode           =                    bondi
     soft-sphere softness              =                     0.50
     alpha                             =                     1.32

     Electrostatic Setup
     ===================

     electrostatic problem to solve    =                    modpb
     numerical solver adopted          =                   newton
     type of auxiliary density adopted =                     none
     numerical core for poisson        =                      fft
     adopting a nested solver scheme
     inner solver                      =                       cg
     inner core                        =                      fft
     type of pbc corrections           =                parabolic
     numerical core for corrections    =                      1da

     ================================================================================
 

     >>>>> Grand-Canonical SCF is activated <<<<<
     Initial Total Charge  =     0.000000 e
     Target Fermi Energy   =    -4.404000 eV
     Thr. of Fermi Energy  =     0.001000 eV
     Wave-shift of Kerker  =     0.400000 bohr^-1
     Wave-shift of Hartree =     1.500000 bohr^-1
     Mixing Rate of Fermi  =     0.050000

     celldm(1)=  12.983009  celldm(2)=   1.118034  celldm(3)=   6.872491
     celldm(4)=   0.000000  celldm(5)=   0.000000  celldm(6)=   0.000000

     crystal axes: (cart. coord. in units of alat)
               a(1) = (   1.000000   0.000000   0.000000 )  
               a(2) = (   0.000000   1.118034   0.000000 )  
               a(3) = (   0.000000   0.000000   6.872491 )  

     reciprocal axes: (cart. coord. in units 2 pi/alat)
               b(1) = (  1.000000  0.000000  0.000000 )  
               b(2) = (  0.000000  0.894427  0.000000 )  
               b(3) = (  0.000000  0.000000  0.145508 )  


     PseudoPot. # 1 for Li read from file:
     /home/mmm1182/Repos/Pseudopotentials/pslibrary/Li.pbe-sl-kjpaw_psl.1.0.0.UPF
     MD5 check sum: f40bb4162937df3f7c561f1969c76545
     Pseudo is Projector augmented-wave, Zval =  3.0
     Generated using 'atomic' code by A. Dal Corso  v.7.3.1
     Shape of augmentation charge: PSQ
     Using radial grid of 1017 points,  4 beta functions with: 
                l(1) =   0
                l(2) =   0
                l(3) =   1
                l(4) =   1
     Q(r) pseudized with 0 coefficients 


     atomic species   valence    mass     pseudopotential
     Li                3.00     6.94000     Li( 1.00)

      2 Sym. Ops. (no inversion) found


                                    s                        frac. trans.

      isym =  1     identity                                     

 cryst.   s( 1) = (     1          0          0      )
                  (     0          1          0      )
                  (     0          0          1      )

 cart.    s( 1) = (  1.0000000  0.0000000  0.0000000 )
                  (  0.0000000  1.0000000  0.0000000 )
                  (  0.0000000  0.0000000  1.0000000 )


      isym =  2     inv. 180 deg rotation - cart. axis [1,0,0]   

 cryst.   s( 2) = (    -1          0          0      )
                  (     0          1          0      )
                  (     0          0          1      )

 cart.    s( 2) = ( -1.0000000  0.0000000  0.0000000 )
                  (  0.0000000  1.0000000  0.0000000 )
                  (  0.0000000  0.0000000  1.0000000 )


     point group C_s (m)    
     there are  2 classes
     the character table:

       E     s    
A'     1.00  1.00
A''    1.00 -1.00

     the symmetry operations in each class and the name of the first element:

     E        1
          identity                                               
     s        2
          inv. 180 deg rotation - cart. axis [1,0,0]             

   Cartesian axes

     site n.     atom                  positions (alat units)
         1        Li     tau(   1) = (  -0.0000000   0.4609023   3.6983300  )
         2        Li     tau(   2) = (  -0.0000000   0.8849515   3.5050606  )
         3        Li     tau(   3) = (  -0.0000000   0.2319789   3.2598763  )
         4        Li     tau(   4) = (  -0.0000000   0.6178895   3.0175349  )
         5        Li     tau(   5) = (  -0.0000000   0.1129550   3.9976639  )
         6        Li     tau(   6) = (   0.2500010   0.5684963   3.3674408  )
         7        Li     tau(   7) = (   0.2500006   0.9925372   3.1741774  )
         8        Li     tau(   8) = (   0.2500005   0.2224650   2.8747900  )
         9        Li     tau(   9) = (   0.2500013   0.8355401   3.8549492  )
        10        Li     tau(  10) = (   0.2500008   0.1034369   3.6126260  )
        11        Li     tau(  11) = (   0.5000000   0.4609025   3.6983309  )
        12        Li     tau(  12) = (   0.5000000   0.8849515   3.5050619  )
        13        Li     tau(  13) = (   0.5000000   0.2319779   3.2598766  )
        14        Li     tau(  14) = (   0.5000000   0.6178900   3.0175347  )
        15        Li     tau(  15) = (   0.5000000   0.1129548   3.9976581  )
        16        Li     tau(  16) = (   0.7499990   0.5684963   3.3674408  )
        17        Li     tau(  17) = (   0.7499993   0.9925372   3.1741774  )
        18        Li     tau(  18) = (   0.7499995   0.2224650   2.8747900  )
        19        Li     tau(  19) = (   0.7499987   0.8355401   3.8549492  )
        20        Li     tau(  20) = (   0.7499992   0.1034369   3.6126260  )

   Crystallographic axes

     site n.     atom                  positions (cryst. coord.)
         1        Li     tau(   1) = ( -0.0000000  0.4122435  0.5381353  )
         2        Li     tau(   2) = ( -0.0000000  0.7915247  0.5100131  )
         3        Li     tau(   3) = ( -0.0000000  0.2074883  0.4743369  )
         4        Li     tau(   4) = ( -0.0000000  0.5526572  0.4390744  )
         5        Li     tau(   5) = ( -0.0000000  0.1010301  0.5816907  )
         6        Li     tau(   6) = (  0.2500010  0.5084786  0.4899884  )
         7        Li     tau(   7) = (  0.2500006  0.8877522  0.4618671  )
         8        Li     tau(   8) = (  0.2500005  0.1989787  0.4183039  )
         9        Li     tau(   9) = (  0.2500013  0.7473298  0.5609246  )
        10        Li     tau(  10) = (  0.2500008  0.0925168  0.5256647  )
        11        Li     tau(  11) = (  0.5000000  0.4122437  0.5381354  )
        12        Li     tau(  12) = (  0.5000000  0.7915247  0.5100133  )
        13        Li     tau(  13) = (  0.5000000  0.2074873  0.4743370  )
        14        Li     tau(  14) = (  0.5000000  0.5526576  0.4390744  )
        15        Li     tau(  15) = (  0.5000000  0.1010298  0.5816898  )
        16        Li     tau(  16) = (  0.7499990  0.5084786  0.4899884  )
        17        Li     tau(  17) = (  0.7499993  0.8877522  0.4618671  )
        18        Li     tau(  18) = (  0.7499995  0.1989787  0.4183039  )
        19        Li     tau(  19) = (  0.7499987  0.7473298  0.5609246  )
        20        Li     tau(  20) = (  0.7499992  0.0925168  0.5256647  )

     number of k points=    30  Marzari-Vanderbilt smearing, width (Ry)=  0.0100
                       cart. coord. in units 2pi/alat
        k(    1) = (   0.0000000   0.0000000   0.0000000), wk =   0.0222222
        k(    2) = (   0.0000000   0.0993808   0.0000000), wk =   0.0444444
        k(    3) = (   0.0000000   0.1987616   0.0000000), wk =   0.0444444
        k(    4) = (   0.0000000   0.2981424   0.0000000), wk =   0.0444444
        k(    5) = (   0.0000000   0.3975232   0.0000000), wk =   0.0444444
        k(    6) = (   0.1000000   0.0000000   0.0000000), wk =   0.0444444
        k(    7) = (   0.1000000   0.0993808   0.0000000), wk =   0.0888889
        k(    8) = (   0.1000000   0.1987616   0.0000000), wk =   0.0888889
        k(    9) = (   0.1000000   0.2981424   0.0000000), wk =   0.0888889
        k(   10) = (   0.1000000   0.3975232   0.0000000), wk =   0.0888889
        k(   11) = (   0.2000000   0.0000000   0.0000000), wk =   0.0444444
        k(   12) = (   0.2000000   0.0993808   0.0000000), wk =   0.0888889
        k(   13) = (   0.2000000   0.1987616   0.0000000), wk =   0.0888889
        k(   14) = (   0.2000000   0.2981424   0.0000000), wk =   0.0888889
        k(   15) = (   0.2000000   0.3975232   0.0000000), wk =   0.0888889
        k(   16) = (   0.3000000   0.0000000   0.0000000), wk =   0.0444444
        k(   17) = (   0.3000000   0.0993808   0.0000000), wk =   0.0888889
        k(   18) = (   0.3000000   0.1987616   0.0000000), wk =   0.0888889
        k(   19) = (   0.3000000   0.2981424   0.0000000), wk =   0.0888889
        k(   20) = (   0.3000000   0.3975232   0.0000000), wk =   0.0888889
        k(   21) = (   0.4000000   0.0000000   0.0000000), wk =   0.0444444
        k(   22) = (   0.4000000   0.0993808   0.0000000), wk =   0.0888889
        k(   23) = (   0.4000000   0.1987616   0.0000000), wk =   0.0888889
        k(   24) = (   0.4000000   0.2981424   0.0000000), wk =   0.0888889
        k(   25) = (   0.4000000   0.3975232   0.0000000), wk =   0.0888889
        k(   26) = (  -0.5000000   0.0000000   0.0000000), wk =   0.0222222
        k(   27) = (  -0.5000000   0.0993808   0.0000000), wk =   0.0444444
        k(   28) = (  -0.5000000   0.1987616   0.0000000), wk =   0.0444444
        k(   29) = (  -0.5000000   0.2981424   0.0000000), wk =   0.0444444
        k(   30) = (  -0.5000000   0.3975232   0.0000000), wk =   0.0444444

                       cryst. coord.
        k(    1) = (   0.0000000   0.0000000   0.0000000), wk =   0.0222222
        k(    2) = (   0.0000000   0.1111111   0.0000000), wk =   0.0444444
        k(    3) = (   0.0000000   0.2222222   0.0000000), wk =   0.0444444
        k(    4) = (   0.0000000   0.3333333   0.0000000), wk =   0.0444444
        k(    5) = (   0.0000000   0.4444444   0.0000000), wk =   0.0444444
        k(    6) = (   0.1000000   0.0000000   0.0000000), wk =   0.0444444
        k(    7) = (   0.1000000   0.1111111   0.0000000), wk =   0.0888889
        k(    8) = (   0.1000000   0.2222222   0.0000000), wk =   0.0888889
        k(    9) = (   0.1000000   0.3333333   0.0000000), wk =   0.0888889
        k(   10) = (   0.1000000   0.4444444   0.0000000), wk =   0.0888889
        k(   11) = (   0.2000000   0.0000000   0.0000000), wk =   0.0444444
        k(   12) = (   0.2000000   0.1111111   0.0000000), wk =   0.0888889
        k(   13) = (   0.2000000   0.2222222   0.0000000), wk =   0.0888889
        k(   14) = (   0.2000000   0.3333333   0.0000000), wk =   0.0888889
        k(   15) = (   0.2000000   0.4444444   0.0000000), wk =   0.0888889
        k(   16) = (   0.3000000   0.0000000   0.0000000), wk =   0.0444444
        k(   17) = (   0.3000000   0.1111111   0.0000000), wk =   0.0888889
        k(   18) = (   0.3000000   0.2222222   0.0000000), wk =   0.0888889
        k(   19) = (   0.3000000   0.3333333   0.0000000), wk =   0.0888889
        k(   20) = (   0.3000000   0.4444444   0.0000000), wk =   0.0888889
        k(   21) = (   0.4000000   0.0000000   0.0000000), wk =   0.0444444
        k(   22) = (   0.4000000   0.1111111   0.0000000), wk =   0.0888889
        k(   23) = (   0.4000000   0.2222222   0.0000000), wk =   0.0888889
        k(   24) = (   0.4000000   0.3333333   0.0000000), wk =   0.0888889
        k(   25) = (   0.4000000   0.4444444   0.0000000), wk =   0.0888889
        k(   26) = (  -0.5000000   0.0000000   0.0000000), wk =   0.0222222
        k(   27) = (  -0.5000000   0.1111111   0.0000000), wk =   0.0444444
        k(   28) = (  -0.5000000   0.2222222   0.0000000), wk =   0.0444444
        k(   29) = (  -0.5000000   0.3333333   0.0000000), wk =   0.0444444
        k(   30) = (  -0.5000000   0.4444444   0.0000000), wk =   0.0444444

     Dense  grid:  6425037 G-vectors     FFT dimensions: ( 120, 135, 810)

     Smooth grid:  1625491 G-vectors     FFT dimensions: (  75,  90, 512)

     Dynamical RAM for                 wfc:       0.77 MB

     Dynamical RAM for     wfc (w. buffer):      12.39 MB

     Dynamical RAM for           str. fact:       0.54 MB

     Dynamical RAM for           local pot:       0.00 MB

     Dynamical RAM for          nlocal pot:       2.75 MB

     Dynamical RAM for                qrad:       0.65 MB

     Dynamical RAM for          rho,v,vnew:       3.49 MB

     Dynamical RAM for               rhoin:       1.16 MB

     Dynamical RAM for            rho*nmix:       8.72 MB

     Dynamical RAM for           G-vectors:       2.11 MB

     Dynamical RAM for          h,s,v(r/c):       1.48 MB

     Dynamical RAM for          <psi|beta>:       0.11 MB

     Dynamical RAM for                 psi:       3.10 MB

     Dynamical RAM for                hpsi:       3.10 MB

     Dynamical RAM for                spsi:       3.10 MB

     Dynamical RAM for      wfcinit/wfcrot:       1.60 MB

     Dynamical RAM for           addusdens:      17.44 MB

     Dynamical RAM for          addusforce:      27.80 MB

     Estimated static dynamical RAM per process >      27.28 MB

     Estimated max dynamical RAM per process >      98.04 MB

     Estimated total dynamical RAM >      20.90 GB

     Initial potential from superposition of free atoms

     starting charge      59.9078, renormalised to      60.0000

     negative rho (up, down):  2.718E-03 0.000E+00
     Starting wfcs are random
     Checking if some PAW data can be deallocated... 

     total cpu time spent up to now is        7.6 secs

     per-process dynamical memory:   113.0 Mb

     Self-consistent Calculation

     iteration #  1     ecut=    80.00 Ry     beta= 0.20
     Davidson diagonalization with overlap

---- Real-time Memory Report at c_bands before calling an iterative solver
           349 MiB given to the printing process from OS
           110 MiB allocation reported by mallinfo(arena+hblkhd)
        173424 MiB available memory on the node where the printing process lives
------------------
     c_bands:  2 eigenvalues not converged
     c_bands:  1 eigenvalues not converged
     c_bands:  1 eigenvalues not converged
     ethr =  1.00E-12,  avg # of iterations =110.2

     negative rho (up, down):  1.980E-03 0.000E+00

     add environment contribution to local potential

     total cpu time spent up to now is       72.9 secs

     total energy              =    -300.70125968 Ry
     estimated scf accuracy    <       0.09724205 Ry

     total charge of GC-SCF    =       0.07451404 e
     the Fermi energy          =      -4.57533086 eV
                        (error :       0.17133086 eV)
     electrostatic embedding   =       0.00000000 Ry
     cavitation energy         =       0.02342473 Ry
     electrolyte free energy   =       0.00723735 Ry
     correction to one-el term =       0.00000000 Ry

     iteration #  2     ecut=    80.00 Ry     beta= 0.20
     Davidson diagonalization with overlap

---- Real-time Memory Report at c_bands before calling an iterative solver
           349 MiB given to the printing process from OS
           150 MiB allocation reported by mallinfo(arena+hblkhd)
        172392 MiB available memory on the node where the printing process lives
------------------
     ethr =  1.00E-05,  avg # of iterations = 11.9

     negative rho (up, down):  1.430E-03 0.000E+00

     add environment contribution to local potential

     total cpu time spent up to now is       85.7 secs

     total energy              =    -300.61982070 Ry
     estimated scf accuracy    <       0.02649555 Ry

     total charge of GC-SCF    =       0.18567371 e
     the Fermi energy          =      -3.65379175 eV
                        (error :       0.75020825 eV)
     electrostatic embedding   =      -0.02816187 Ry
     cavitation energy         =       0.02342473 Ry
     electrolyte free energy   =      -0.00531194 Ry
     correction to one-el term =      -3.07268122 Ry

     iteration #  3     ecut=    80.00 Ry     beta= 0.20
     Davidson diagonalization with overlap

---- Real-time Memory Report at c_bands before calling an iterative solver
           349 MiB given to the printing process from OS
           150 MiB allocation reported by mallinfo(arena+hblkhd)
        172387 MiB available memory on the node where the printing process lives
------------------
     ethr =  1.00E-05,  avg # of iterations = 10.2

     negative rho (up, down):  1.103E-03 0.000E+00

     add environment contribution to local potential

     total cpu time spent up to now is       97.7 secs

     total energy              =    -300.67407420 Ry
     estimated scf accuracy    <       0.00690710 Ry

     total charge of GC-SCF    =       0.38230727 e
     the Fermi energy          =      -3.14442467 eV
                        (error :       1.25957533 eV)
     electrostatic embedding   =      -0.03063320 Ry
     cavitation energy         =       0.02342473 Ry
     electrolyte free energy   =      -0.00394582 Ry
     correction to one-el term =      -5.77563804 Ry

     iteration #  4     ecut=    80.00 Ry     beta= 0.20
     Davidson diagonalization with overlap

---- Real-time Memory Report at c_bands before calling an iterative solver
           349 MiB given to the printing process from OS
           150 MiB allocation reported by mallinfo(arena+hblkhd)
        172397 MiB available memory on the node where the printing process lives
------------------
     ethr =  1.00E-05,  avg # of iterations = 10.3

     negative rho (up, down):  9.066E-04 0.000E+00

     add environment contribution to local potential

     total cpu time spent up to now is      108.7 secs

     total energy              =    -300.69685585 Ry
     estimated scf accuracy    <       0.00255505 Ry

     total charge of GC-SCF    =       0.63260451 e
     the Fermi energy          =      -2.98897647 eV
                        (error :       1.41502353 eV)
     electrostatic embedding   =      -0.05079639 Ry
     cavitation energy         =       0.02342473 Ry
     electrolyte free energy   =      -0.00325946 Ry
     correction to one-el term =      -9.95915408 Ry

     iteration #  5     ecut=    80.00 Ry     beta= 0.20
     Davidson diagonalization with overlap

---- Real-time Memory Report at c_bands before calling an iterative solver
           349 MiB given to the printing process from OS
           150 MiB allocation reported by mallinfo(arena+hblkhd)
        172394 MiB available memory on the node where the printing process lives
------------------
     ethr =  4.30E-06,  avg # of iterations =  9.9

     negative rho (up, down):  7.894E-04 0.000E+00

     add environment contribution to local potential

     total cpu time spent up to now is      120.6 secs

     total energy              =    -300.69065660 Ry
     estimated scf accuracy    <       0.00133368 Ry

     total charge of GC-SCF    =       1.15892240 e
     the Fermi energy          =      -3.03463654 eV
                        (error :       1.36936346 eV)
     electrostatic embedding   =      -0.10132323 Ry
     cavitation energy         =       0.02342473 Ry
     electrolyte free energy   =      -0.00367116 Ry
     correction to one-el term =     -15.58209116 Ry

     iteration #  6     ecut=    80.00 Ry     beta= 0.20
     Davidson diagonalization with overlap

---- Real-time Memory Report at c_bands before calling an iterative solver
           349 MiB given to the printing process from OS
           150 MiB allocation reported by mallinfo(arena+hblkhd)
        172394 MiB available memory on the node where the printing process lives
------------------
     ethr =  2.27E-06,  avg # of iterations = 15.6

     negative rho (up, down):  6.667E-04 0.000E+00

     add environment contribution to local potential

     total cpu time spent up to now is      134.4 secs

     total energy              =    -300.81896822 Ry
     estimated scf accuracy    <       0.00096581 Ry

     total charge of GC-SCF    =       1.13980425 e
     the Fermi energy          =      -3.21581894 eV
                        (error :       1.18818106 eV)
     electrostatic embedding   =      -0.29303672 Ry
     cavitation energy         =       0.02342473 Ry
     electrolyte free energy   =      -0.00577617 Ry
     correction to one-el term =     -28.50195446 Ry

     iteration #  7     ecut=    80.00 Ry     beta= 0.20
     Davidson diagonalization with overlap

---- Real-time Memory Report at c_bands before calling an iterative solver
           349 MiB given to the printing process from OS
           150 MiB allocation reported by mallinfo(arena+hblkhd)
        172381 MiB available memory on the node where the printing process lives
------------------
     ethr =  1.64E-06,  avg # of iterations =  4.9

     negative rho (up, down):  2.857E-03 0.000E+00

     add environment contribution to local potential

     total cpu time spent up to now is      143.7 secs

     total energy              =    -300.74942887 Ry
     estimated scf accuracy    <       0.00105814 Ry

     total charge of GC-SCF    =       1.46415899 e
     the Fermi energy          =      -3.20541332 eV
                        (error :       1.19858668 eV)
     electrostatic embedding   =      -0.28424936 Ry
     cavitation energy         =       0.02342473 Ry
     electrolyte free energy   =      -0.00564083 Ry
     correction to one-el term =     -27.90174689 Ry

     iteration #  8     ecut=    80.00 Ry     beta= 0.20
     Davidson diagonalization with overlap

---- Real-time Memory Report at c_bands before calling an iterative solver
           349 MiB given to the printing process from OS
           150 MiB allocation reported by mallinfo(arena+hblkhd)
        172375 MiB available memory on the node where the printing process lives
------------------
     ethr =  1.64E-06,  avg # of iterations = 15.0

     negative rho (up, down):  1.576E-03 0.000E+00

     add environment contribution to local potential

     total cpu time spent up to now is      157.6 secs

     total energy              =    -300.81791397 Ry
     estimated scf accuracy    <       0.00081262 Ry

     total charge of GC-SCF    =       1.50171112 e
     the Fermi energy          =      -3.34980806 eV
                        (error :       1.05419194 eV)
     electrostatic embedding   =      -0.45785214 Ry
     cavitation energy         =       0.02342473 Ry
     electrolyte free energy   =      -0.00767162 Ry
     correction to one-el term =     -36.50552899 Ry

     iteration #  9     ecut=    80.00 Ry     beta= 0.20
     Davidson diagonalization with overlap

---- Real-time Memory Report at c_bands before calling an iterative solver
           349 MiB given to the printing process from OS
           150 MiB allocation reported by mallinfo(arena+hblkhd)
        172371 MiB available memory on the node where the printing process lives
------------------
     ethr =  1.39E-06,  avg # of iterations =  9.1

     negative rho (up, down):  6.649E-03 0.000E+00

     add environment contribution to local potential

     total cpu time spent up to now is      169.3 secs

     total energy              =    -300.78299154 Ry
     estimated scf accuracy    <       0.00063081 Ry

     total charge of GC-SCF    =       2.12355111 e
     the Fermi energy          =      -3.38195040 eV
                        (error :       1.02204960 eV)
     electrostatic embedding   =      -0.48301757 Ry
     cavitation energy         =       0.02342473 Ry
     electrolyte free energy   =      -0.00808723 Ry
     correction to one-el term =     -37.80210002 Ry

     iteration # 10     ecut=    80.00 Ry     beta= 0.20
     Davidson diagonalization with overlap

---- Real-time Memory Report at c_bands before calling an iterative solver
           349 MiB given to the printing process from OS
           150 MiB allocation reported by mallinfo(arena+hblkhd)
        172361 MiB available memory on the node where the printing process lives
------------------
     ethr =  1.09E-06,  avg # of iterations = 20.5

     negative rho (up, down):  1.112E-02 0.000E+00

     add environment contribution to local potential

     total cpu time spent up to now is      186.0 secs

     total energy              =    -300.83129673 Ry
     estimated scf accuracy    <       0.00026278 Ry

     total charge of GC-SCF    =       2.36758179 e
     the Fermi energy          =      -3.75096422 eV
                        (error :       0.65303578 eV)
     electrostatic embedding   =      -0.97940061 Ry
     cavitation energy         =       0.02342473 Ry
     electrolyte free energy   =      -0.01442319 Ry
     correction to one-el term =     -54.62130808 Ry

     iteration # 11     ecut=    80.00 Ry     beta= 0.20
     Davidson diagonalization with overlap

---- Real-time Memory Report at c_bands before calling an iterative solver
           349 MiB given to the printing process from OS
           150 MiB allocation reported by mallinfo(arena+hblkhd)
        172364 MiB available memory on the node where the printing process lives
------------------
     ethr =  4.56E-07,  avg # of iterations = 18.2

     negative rho (up, down):  1.572E-02 0.000E+00

     add environment contribution to local potential

     total cpu time spent up to now is      201.8 secs

     total energy              =    -300.84395708 Ry
     estimated scf accuracy    <       0.00022396 Ry

     total charge of GC-SCF    =       2.51342303 e
     the Fermi energy          =      -3.93487573 eV
                        (error :       0.46912427 eV)
     electrostatic embedding   =      -1.22479220 Ry
     cavitation energy         =       0.02342473 Ry
     electrolyte free energy   =      -0.01766603 Ry
     correction to one-el term =     -61.09091436 Ry

     iteration # 12     ecut=    80.00 Ry     beta= 0.20
     Davidson diagonalization with overlap

---- Real-time Memory Report at c_bands before calling an iterative solver
           349 MiB given to the printing process from OS
           150 MiB allocation reported by mallinfo(arena+hblkhd)
        172365 MiB available memory on the node where the printing process lives
------------------
     ethr =  3.90E-07,  avg # of iterations = 11.6

     negative rho (up, down):  1.012E-02 0.000E+00

     add environment contribution to local potential

     total cpu time spent up to now is      216.1 secs

     total energy              =    -300.84722732 Ry
     estimated scf accuracy    <       0.00019622 Ry

     total charge of GC-SCF    =       2.69061490 e
     the Fermi energy          =      -4.03029561 eV
                        (error :       0.37370439 eV)
     electrostatic embedding   =      -1.38944773 Ry
     cavitation energy         =       0.02342473 Ry
     electrolyte free energy   =      -0.01986092 Ry
     correction to one-el term =     -65.11496948 Ry

     iteration # 13     ecut=    80.00 Ry     beta= 0.20
     Davidson diagonalization with overlap

---- Real-time Memory Report at c_bands before calling an iterative solver
           349 MiB given to the printing process from OS
           150 MiB allocation reported by mallinfo(arena+hblkhd)
        172362 MiB available memory on the node where the printing process lives
------------------
     ethr =  3.42E-07,  avg # of iterations = 20.8

     negative rho (up, down):  6.307E-03 0.000E+00

     add environment contribution to local potential

     total cpu time spent up to now is      232.4 secs

     total energy              =    -300.85681690 Ry
     estimated scf accuracy    <       0.00015634 Ry

     total charge of GC-SCF    =       2.65564383 e
     the Fermi energy          =      -4.20540586 eV
                        (error :       0.19859414 eV)
     electrostatic embedding   =      -1.60362369 Ry
     cavitation energy         =       0.02342473 Ry
     electrolyte free energy   =      -0.02277496 Ry
     correction to one-el term =     -69.84195052 Ry

     iteration # 14     ecut=    80.00 Ry     beta= 0.20
     Davidson diagonalization with overlap

---- Real-time Memory Report at c_bands before calling an iterative solver
           349 MiB given to the printing process from OS
           150 MiB allocation reported by mallinfo(arena+hblkhd)
        172360 MiB available memory on the node where the printing process lives
------------------
     ethr =  2.73E-07,  avg # of iterations =  6.9

     negative rho (up, down):  8.324E-03 0.000E+00

     add environment contribution to local potential

     total cpu time spent up to now is      244.7 secs

     total energy              =    -300.85308012 Ry
     estimated scf accuracy    <       0.00013797 Ry

     total charge of GC-SCF    =       2.69517766 e
     the Fermi energy          =      -4.17121480 eV
                        (error :       0.23278520 eV)
     electrostatic embedding   =      -1.56264038 Ry
     cavitation energy         =       0.02342473 Ry
     electrolyte free energy   =      -0.02219776 Ry
     correction to one-el term =     -68.96869564 Ry

     iteration # 15     ecut=    80.00 Ry     beta= 0.20
     Davidson diagonalization with overlap

---- Real-time Memory Report at c_bands before calling an iterative solver
           349 MiB given to the printing process from OS
           150 MiB allocation reported by mallinfo(arena+hblkhd)
        172345 MiB available memory on the node where the printing process lives
------------------
     ethr =  2.41E-07,  avg # of iterations =  8.5

     negative rho (up, down):  1.288E-02 0.000E+00

     add environment contribution to local potential

     total cpu time spent up to now is      257.0 secs

     total energy              =    -300.85612873 Ry
     estimated scf accuracy    <       0.00014050 Ry

     total charge of GC-SCF    =       2.67519368 e
     the Fermi energy          =      -4.21052042 eV
                        (error :       0.19347958 eV)
     electrostatic embedding   =      -1.60993532 Ry
     cavitation energy         =       0.02342473 Ry
     electrolyte free energy   =      -0.02285616 Ry
     correction to one-el term =     -69.97299180 Ry

     iteration # 16     ecut=    80.00 Ry     beta= 0.20
     Davidson diagonalization with overlap

---- Real-time Memory Report at c_bands before calling an iterative solver
           349 MiB given to the printing process from OS
           150 MiB allocation reported by mallinfo(arena+hblkhd)
        172356 MiB available memory on the node where the printing process lives
------------------
     ethr =  2.41E-07,  avg # of iterations =  9.0

     negative rho (up, down):  6.011E-03 0.000E+00

     add environment contribution to local potential

     total cpu time spent up to now is      269.1 secs

     total energy              =    -300.86160619 Ry
     estimated scf accuracy    <       0.00013978 Ry

     total charge of GC-SCF    =       2.58549680 e
     the Fermi energy          =      -4.18770349 eV
                        (error :       0.21629651 eV)
     electrostatic embedding   =      -1.58306519 Ry
     cavitation energy         =       0.02342473 Ry
     electrolyte free energy   =      -0.02250101 Ry
     correction to one-el term =     -69.39533457 Ry

     iteration # 17     ecut=    80.00 Ry     beta= 0.20
     Davidson diagonalization with overlap

---- Real-time Memory Report at c_bands before calling an iterative solver
           349 MiB given to the printing process from OS
           150 MiB allocation reported by mallinfo(arena+hblkhd)
        172356 MiB available memory on the node where the printing process lives
------------------
     ethr =  2.41E-07,  avg # of iterations = 10.7

     negative rho (up, down):  1.216E-03 0.000E+00

     add environment contribution to local potential

     total cpu time spent up to now is      282.5 secs

     total energy              =    -300.85490838 Ry
     estimated scf accuracy    <       0.00010975 Ry

     total charge of GC-SCF    =       2.57780983 e
     the Fermi energy          =      -4.13536339 eV
                        (error :       0.26863661 eV)
     electrostatic embedding   =      -1.47789312 Ry
     cavitation energy         =       0.02342473 Ry
     electrolyte free energy   =      -0.02108522 Ry
     correction to one-el term =     -67.12405093 Ry

     iteration # 18     ecut=    80.00 Ry     beta= 0.20
     Davidson diagonalization with overlap

---- Real-time Memory Report at c_bands before calling an iterative solver
           349 MiB given to the printing process from OS
           150 MiB allocation reported by mallinfo(arena+hblkhd)
        172352 MiB available memory on the node where the printing process lives
------------------
     ethr =  1.91E-07,  avg # of iterations =  9.7

     negative rho (up, down):  5.882E-04 0.000E+00

     add environment contribution to local potential

     total cpu time spent up to now is      295.3 secs

     total energy              =    -300.85767293 Ry
     estimated scf accuracy    <       0.00007497 Ry

     total charge of GC-SCF    =       2.52195265 e
     the Fermi energy          =      -4.15897675 eV
                        (error :       0.24502325 eV)
     electrostatic embedding   =      -1.47258857 Ry
     cavitation energy         =       0.02342473 Ry
     electrolyte free energy   =      -0.02102701 Ry
     correction to one-el term =     -67.02833423 Ry

     iteration # 19     ecut=    80.00 Ry     beta= 0.20
     Davidson diagonalization with overlap

---- Real-time Memory Report at c_bands before calling an iterative solver
           349 MiB given to the printing process from OS
           150 MiB allocation reported by mallinfo(arena+hblkhd)
        172351 MiB available memory on the node where the printing process lives
------------------
     ethr =  1.30E-07,  avg # of iterations = 10.7

     negative rho (up, down):  3.311E-04 0.000E+00

     add environment contribution to local potential

     total cpu time spent up to now is      309.2 secs

     total energy              =    -300.85378268 Ry
     estimated scf accuracy    <       0.00005851 Ry

     total charge of GC-SCF    =       2.51658514 e
     the Fermi energy          =      -4.13469736 eV
                        (error :       0.26930264 eV)
     electrostatic embedding   =      -1.41149354 Ry
     cavitation energy         =       0.02342473 Ry
     electrolyte free energy   =      -0.02022793 Ry
     correction to one-el term =     -65.71051239 Ry

     iteration # 20     ecut=    80.00 Ry     beta= 0.20
     Davidson diagonalization with overlap

---- Real-time Memory Report at c_bands before calling an iterative solver
           349 MiB given to the printing process from OS
           150 MiB allocation reported by mallinfo(arena+hblkhd)
        172352 MiB available memory on the node where the printing process lives
------------------
     ethr =  1.02E-07,  avg # of iterations =  9.2

     negative rho (up, down):  2.688E-04 0.000E+00

     add environment contribution to local potential

     total cpu time spent up to now is      321.8 secs

     total energy              =    -300.85077883 Ry
     estimated scf accuracy    <       0.00004405 Ry

     total charge of GC-SCF    =       2.62098853 e
     the Fermi energy          =      -4.14557772 eV
                        (error :       0.25842228 eV)
     electrostatic embedding   =      -1.40931008 Ry
     cavitation energy         =       0.02342473 Ry
     electrolyte free energy   =      -0.02019778 Ry
     correction to one-el term =     -65.69359169 Ry

     iteration # 21     ecut=    80.00 Ry     beta= 0.20
     Davidson diagonalization with overlap

---- Real-time Memory Report at c_bands before calling an iterative solver
           349 MiB given to the printing process from OS
           150 MiB allocation reported by mallinfo(arena+hblkhd)
        172352 MiB available memory on the node where the printing process lives
------------------
     ethr =  7.68E-08,  avg # of iterations = 20.7

     negative rho (up, down):  2.713E-04 0.000E+00

     add environment contribution to local potential

     total cpu time spent up to now is      338.1 secs

     total energy              =    -300.85290229 Ry
     estimated scf accuracy    <       0.00002436 Ry

     total charge of GC-SCF    =       2.64736519 e
     the Fermi energy          =      -4.24549785 eV
                        (error :       0.15850215 eV)
     electrostatic embedding   =      -1.53103356 Ry
     cavitation energy         =       0.02342473 Ry
     electrolyte free energy   =      -0.02180831 Ry
     correction to one-el term =     -68.34746401 Ry

     iteration # 22     ecut=    80.00 Ry     beta= 0.20
     Davidson diagonalization with overlap

---- Real-time Memory Report at c_bands before calling an iterative solver
           349 MiB given to the printing process from OS
           150 MiB allocation reported by mallinfo(arena+hblkhd)
        172353 MiB available memory on the node where the printing process lives
------------------
     ethr =  4.25E-08,  avg # of iterations = 10.7

     negative rho (up, down):  2.257E-03 0.000E+00

     add environment contribution to local potential

     total cpu time spent up to now is      351.7 secs

     total energy              =    -300.85270009 Ry
     estimated scf accuracy    <       0.00001833 Ry

     total charge of GC-SCF    =       2.70477963 e
     the Fermi energy          =      -4.26742800 eV
                        (error :       0.13657200 eV)
     electrostatic embedding   =      -1.55979490 Ry
     cavitation energy         =       0.02342473 Ry
     electrolyte free energy   =      -0.02220343 Ry
     correction to one-el term =     -68.93171200 Ry

     iteration # 23     ecut=    80.00 Ry     beta= 0.20
     Davidson diagonalization with overlap

---- Real-time Memory Report at c_bands before calling an iterative solver
           349 MiB given to the printing process from OS
           150 MiB allocation reported by mallinfo(arena+hblkhd)
        172353 MiB available memory on the node where the printing process lives
------------------
     ethr =  3.20E-08,  avg # of iterations = 18.2

     negative rho (up, down):  2.140E-03 0.000E+00

     add environment contribution to local potential

     total cpu time spent up to now is      367.7 secs

     total energy              =    -300.85298648 Ry
     estimated scf accuracy    <       0.00000960 Ry

     total charge of GC-SCF    =       2.73323844 e
     the Fermi energy          =      -4.32326380 eV
                        (error :       0.08073620 eV)
     electrostatic embedding   =      -1.62558058 Ry
     cavitation energy         =       0.02342473 Ry
     electrolyte free energy   =      -0.02312158 Ry
     correction to one-el term =     -70.30084024 Ry

     iteration # 24     ecut=    80.00 Ry     beta= 0.20
     Davidson diagonalization with overlap

---- Real-time Memory Report at c_bands before calling an iterative solver
           349 MiB given to the printing process from OS
           150 MiB allocation reported by mallinfo(arena+hblkhd)
        172350 MiB available memory on the node where the printing process lives
------------------
     ethr =  1.68E-08,  avg # of iterations = 11.8

     negative rho (up, down):  3.296E-04 0.000E+00

     add environment contribution to local potential

     total cpu time spent up to now is      381.9 secs

     total energy              =    -300.85318023 Ry
     estimated scf accuracy    <       0.00000747 Ry

     total charge of GC-SCF    =       2.78454618 e
     the Fermi energy          =      -4.34862329 eV
                        (error :       0.05537671 eV)
     electrostatic embedding   =      -1.66124763 Ry
     cavitation energy         =       0.02342473 Ry
     electrolyte free energy   =      -0.02360465 Ry
     correction to one-el term =     -71.04747188 Ry

     iteration # 25     ecut=    80.00 Ry     beta= 0.20
     Davidson diagonalization with overlap

---- Real-time Memory Report at c_bands before calling an iterative solver
           349 MiB given to the printing process from OS
           150 MiB allocation reported by mallinfo(arena+hblkhd)
        172352 MiB available memory on the node where the printing process lives
------------------
     ethr =  1.31E-08,  avg # of iterations = 18.0

     negative rho (up, down):  3.234E-04 0.000E+00

     add environment contribution to local potential

     total cpu time spent up to now is      398.3 secs

     total energy              =    -300.85284000 Ry
     estimated scf accuracy    <       0.00000197 Ry

     total charge of GC-SCF    =       2.79394464 e
     the Fermi energy          =      -4.40724989 eV
                        (error :       0.00324989 eV)
     electrostatic embedding   =      -1.72903428 Ry
     cavitation energy         =       0.02342473 Ry
     electrolyte free energy   =      -0.02451246 Ry
     correction to one-el term =     -72.43578599 Ry

     iteration # 26     ecut=    80.00 Ry     beta= 0.20
     Davidson diagonalization with overlap

---- Real-time Memory Report at c_bands before calling an iterative solver
           349 MiB given to the printing process from OS
           150 MiB allocation reported by mallinfo(arena+hblkhd)
        172352 MiB available memory on the node where the printing process lives
------------------
     ethr =  3.44E-09,  avg # of iterations = 10.1

     negative rho (up, down):  3.392E-04 0.000E+00

     add environment contribution to local potential

     total cpu time spent up to now is      412.7 secs

     total energy              =    -300.85274643 Ry
     estimated scf accuracy    <       0.00000142 Ry

     total charge of GC-SCF    =       2.78856667 e
     the Fermi energy          =      -4.41676654 eV
                        (error :       0.01276654 eV)
     electrostatic embedding   =      -1.74073165 Ry
     cavitation energy         =       0.02342473 Ry
     electrolyte free energy   =      -0.02467583 Ry
     correction to one-el term =     -72.66952834 Ry

     iteration # 27     ecut=    80.00 Ry     beta= 0.20
     Davidson diagonalization with overlap

---- Real-time Memory Report at c_bands before calling an iterative solver
           349 MiB given to the printing process from OS
           150 MiB allocation reported by mallinfo(arena+hblkhd)
        172349 MiB available memory on the node where the printing process lives
------------------
     ethr =  2.48E-09,  avg # of iterations = 10.3

     negative rho (up, down):  3.779E-04 0.000E+00

     add environment contribution to local potential

     total cpu time spent up to now is      426.4 secs

     total energy              =    -300.85278378 Ry
     estimated scf accuracy    <       0.00000066 Ry

     total charge of GC-SCF    =       2.78669004 e
     the Fermi energy          =      -4.41317923 eV
                        (error :       0.00917923 eV)
     electrostatic embedding   =      -1.73288494 Ry
     cavitation energy         =       0.02342473 Ry
     electrolyte free energy   =      -0.02457733 Ry
     correction to one-el term =     -72.50898882 Ry

     iteration # 28     ecut=    80.00 Ry     beta= 0.20
     Davidson diagonalization with overlap

---- Real-time Memory Report at c_bands before calling an iterative solver
           349 MiB given to the printing process from OS
           150 MiB allocation reported by mallinfo(arena+hblkhd)
        172352 MiB available memory on the node where the printing process lives
------------------
     ethr =  1.15E-09,  avg # of iterations =  8.8

     negative rho (up, down):  5.279E-04 0.000E+00

     add environment contribution to local potential

     total cpu time spent up to now is      439.2 secs

     total energy              =    -300.85280040 Ry
     estimated scf accuracy    <       0.00000033 Ry

     total charge of GC-SCF    =       2.78544094 e
     the Fermi energy          =      -4.41101972 eV
                        (error :       0.00701972 eV)
     electrostatic embedding   =      -1.73026637 Ry
     cavitation energy         =       0.02342473 Ry
     electrolyte free energy   =      -0.02454316 Ry
     correction to one-el term =     -72.45592448 Ry

     iteration # 29     ecut=    80.00 Ry     beta= 0.20
     Davidson diagonalization with overlap

---- Real-time Memory Report at c_bands before calling an iterative solver
           349 MiB given to the printing process from OS
           150 MiB allocation reported by mallinfo(arena+hblkhd)
        172350 MiB available memory on the node where the printing process lives
------------------
     ethr =  5.78E-10,  avg # of iterations =  9.5

     negative rho (up, down):  5.278E-04 0.000E+00

     add environment contribution to local potential

     total cpu time spent up to now is      453.1 secs

     total energy              =    -300.85281351 Ry
     estimated scf accuracy    <       0.00000010 Ry

     total charge of GC-SCF    =       2.78554230 e
     the Fermi energy          =      -4.40944349 eV
                        (error :       0.00544349 eV)
     electrostatic embedding   =      -1.72856445 Ry
     cavitation energy         =       0.02342473 Ry
     electrolyte free energy   =      -0.02452103 Ry
     correction to one-el term =     -72.42367704 Ry

     iteration # 30     ecut=    80.00 Ry     beta= 0.20
     Davidson diagonalization with overlap

---- Real-time Memory Report at c_bands before calling an iterative solver
           349 MiB given to the printing process from OS
           150 MiB allocation reported by mallinfo(arena+hblkhd)
        172347 MiB available memory on the node where the printing process lives
------------------
     ethr =  1.82E-10,  avg # of iterations =  3.3

     negative rho (up, down):  5.072E-04 0.000E+00

     add environment contribution to local potential

     total cpu time spent up to now is      463.8 secs

     total energy              =    -300.85281403 Ry
     estimated scf accuracy    <       0.00000011 Ry

     total charge of GC-SCF    =       2.78686149 e
     the Fermi energy          =      -4.40954017 eV
                        (error :       0.00554017 eV)
     electrostatic embedding   =      -1.72870108 Ry
     cavitation energy         =       0.02342473 Ry
     electrolyte free energy   =      -0.02452287 Ry
     correction to one-el term =     -72.42645035 Ry

     iteration # 31     ecut=    80.00 Ry     beta= 0.20
     Davidson diagonalization with overlap

---- Real-time Memory Report at c_bands before calling an iterative solver
           349 MiB given to the printing process from OS
           150 MiB allocation reported by mallinfo(arena+hblkhd)
        172347 MiB available memory on the node where the printing process lives
------------------
     ethr =  1.82E-10,  avg # of iterations = 10.1

     negative rho (up, down):  4.224E-04 0.000E+00

     add environment contribution to local potential

     total cpu time spent up to now is      476.9 secs

     total energy              =    -300.85280420 Ry
     estimated scf accuracy    <       0.00000009 Ry

     total charge of GC-SCF    =       2.78532411 e
     the Fermi energy          =      -4.41067959 eV
                        (error :       0.00667959 eV)
     electrostatic embedding   =      -1.73036571 Ry
     cavitation energy         =       0.02342473 Ry
     electrolyte free energy   =      -0.02454560 Ry
     correction to one-el term =     -72.45957037 Ry

     iteration # 32     ecut=    80.00 Ry     beta= 0.20
     Davidson diagonalization with overlap

---- Real-time Memory Report at c_bands before calling an iterative solver
           349 MiB given to the printing process from OS
           150 MiB allocation reported by mallinfo(arena+hblkhd)
        172348 MiB available memory on the node where the printing process lives
------------------
     ethr =  1.64E-10,  avg # of iterations = 10.0

     negative rho (up, down):  3.378E-04 0.000E+00

     add environment contribution to local potential

     total cpu time spent up to now is      490.0 secs

     total energy              =    -300.85281655 Ry
     estimated scf accuracy    <       0.00000007 Ry

     total charge of GC-SCF    =       2.77915691 e
     the Fermi energy          =      -4.40945766 eV
                        (error :       0.00545766 eV)
     electrostatic embedding   =      -1.72856385 Ry
     cavitation energy         =       0.02342473 Ry
     electrolyte free energy   =      -0.02451951 Ry
     correction to one-el term =     -72.42334091 Ry

     iteration # 33     ecut=    80.00 Ry     beta= 0.20
     Davidson diagonalization with overlap

---- Real-time Memory Report at c_bands before calling an iterative solver
           349 MiB given to the printing process from OS
           150 MiB allocation reported by mallinfo(arena+hblkhd)
        172336 MiB available memory on the node where the printing process lives
------------------
     ethr =  1.26E-10,  avg # of iterations = 22.5

     negative rho (up, down):  3.362E-04 0.000E+00

     total cpu time spent up to now is      501.6 secs

     End of self-consistent calculation

          k = 0.0000 0.0000 0.0000 (203379 PWs)   bands (ev):

   -52.2344 -52.2342 -52.2331 -52.2329 -51.8038 -51.8037 -51.8024 -51.8023
   -51.3884 -51.3883 -51.3869 -51.3868 -50.8981 -50.8904 -50.8904 -50.8888
   -50.8838 -50.8812 -50.8811 -50.8784  -7.5335  -6.5085  -5.6786  -5.5541
    -5.1276  -5.1157  -5.1157  -4.6600  -4.1735  -4.1735  -4.1230  -3.6771
    -3.6770  -3.1151  -3.1151  -3.0005  -2.9492  -2.9491  -2.7580  -2.4107
    -2.0153  -1.1701  -1.1701  -0.9141  -0.9141

     occupation numbers 
     1.0000   1.0000   1.0000   1.0000   1.0000   1.0000   1.0000   1.0000
     1.0000   1.0000   1.0000   1.0000   1.0000   1.0000   1.0000   1.0000
     1.0000   1.0000   1.0000   1.0000   1.0000   1.0000   1.0000   1.0000
     1.0000   1.0000   1.0000   1.0523   0.0016   0.0016   0.0002   0.0000
     0.0000   0.0000   0.0000   0.0000   0.0000   0.0000   0.0000   0.0000
     0.0000   0.0000   0.0000   0.0000   0.0000

          k = 0.0000 0.0994 0.0000 (203275 PWs)   bands (ev):

   -52.2344 -52.2342 -52.2331 -52.2329 -51.8038 -51.8037 -51.8024 -51.8023
   -51.3884 -51.3883 -51.3869 -51.3868 -50.8981 -50.8904 -50.8904 -50.8890
   -50.8835 -50.8812 -50.8811 -50.8785  -7.5101  -6.4937  -5.9968  -5.2756
    -5.1167  -5.0951  -5.0950  -4.7270  -4.1832  -4.1832  -3.9437  -3.7774
    -3.7773  -3.1589  -3.1575  -3.1575  -2.7941  -2.7940  -2.7940  -2.1622
    -2.0228  -1.2091  -1.2091  -1.0355  -0.8139

     occupation numbers 
     1.0000   1.0000   1.0000   1.0000   1.0000   1.0000   1.0000   1.0000
     1.0000   1.0000   1.0000   1.0000   1.0000   1.0000   1.0000   1.0000
     1.0000   1.0000   1.0000   1.0000   1.0000   1.0000   1.0000   1.0000
     1.0000   1.0000   1.0000   1.0157   0.0022   0.0022   0.0000   0.0000
     0.0000   0.0000   0.0000   0.0000   0.0000   0.0000   0.0000   0.0000
     0.0000   0.0000   0.0000   0.0000   0.0000

          k = 0.0000 0.1988 0.0000 (203225 PWs)   bands (ev):

   -52.2344 -52.2342 -52.2331 -52.2329 -51.8038 -51.8037 -51.8024 -51.8023
   -51.3884 -51.3883 -51.3869 -51.3868 -50.8979 -50.8904 -50.8904 -50.8896
   -50.8830 -50.8812 -50.8811 -50.8787  -7.4398  -6.4973  -6.2712  -5.4215
    -5.0334  -5.0334  -4.8291  -4.6457  -4.2505  -4.2505  -3.9172  -3.9171
    -3.6294  -3.4385  -3.2270  -3.2270  -2.7354  -2.5169  -2.5168  -2.1436
    -1.6908  -1.2207  -1.2207  -1.1685  -0.6486

     occupation numbers 
     1.0000   1.0000   1.0000   1.0000   1.0000   1.0000   1.0000   1.0000
     1.0000   1.0000   1.0000   1.0000   1.0000   1.0000   1.0000   1.0000
     1.0000   1.0000   1.0000   1.0000   1.0000   1.0000   1.0000   1.0000
     1.0000   1.0000   1.0008   1.0621   0.0183   0.0183   0.0000   0.0000
     0.0000   0.0000   0.0000   0.0000   0.0000   0.0000   0.0000   0.0000
     0.0000   0.0000   0.0000   0.0000   0.0000

          k = 0.0000 0.2981 0.0000 (203169 PWs)   bands (ev):

   -52.2344 -52.2342 -52.2331 -52.2329 -51.8038 -51.8037 -51.8024 -51.8023
   -51.3884 -51.3883 -51.3869 -51.3868 -50.8977 -50.8904 -50.8904 -50.8901
   -50.8823 -50.8812 -50.8811 -50.8790  -7.3229  -6.7066  -6.2559  -5.6594
    -4.9317  -4.9317  -4.7495  -4.4174  -4.4173  -4.2428  -3.9547  -3.9546
    -3.7005  -3.3293  -3.3018  -3.3018  -2.6330  -2.2672  -2.2671  -2.2650
    -1.3892  -1.1511  -1.1414  -1.1413  -0.8713

     occupation numbers 
     1.0000   1.0000   1.0000   1.0000   1.0000   1.0000   1.0000   1.0000
     1.0000   1.0000   1.0000   1.0000   1.0000   1.0000   1.0000   1.0000
     1.0000   1.0000   1.0000   1.0000   1.0000   1.0000   1.0000   1.0000
     1.0000   1.0000   1.0092   0.4685   0.4684   0.0148   0.0000   0.0000
     0.0000   0.0000   0.0000   0.0000   0.0000   0.0000   0.0000   0.0000
     0.0000   0.0000   0.0000   0.0000   0.0000

          k = 0.0000 0.3975 0.0000 (203234 PWs)   bands (ev):

   -52.2344 -52.2342 -52.2331 -52.2329 -51.8038 -51.8037 -51.8024 -51.8023
   -51.3884 -51.3883 -51.3869 -51.3868 -50.8976 -50.8904 -50.8904 -50.8904
   -50.8818 -50.8812 -50.8811 -50.8792  -7.1600  -6.9514  -6.1311  -5.8700
    -4.7942  -4.7942  -4.6960  -4.6088  -4.6088  -3.9607  -3.9471  -3.9470
    -3.7834  -3.3528  -3.3528  -3.2151  -2.5355  -2.4040  -2.1269  -2.1267
    -1.3486  -1.1819  -1.0024  -1.0022  -0.7951

     occupation numbers 
     1.0000   1.0000   1.0000   1.0000   1.0000   1.0000   1.0000   1.0000
     1.0000   1.0000   1.0000   1.0000   1.0000   1.0000   1.0000   1.0000
     1.0000   1.0000   1.0000   1.0000   1.0000   1.0000   1.0000   1.0000
     1.0026   1.0026   1.0295   1.0816   1.0816   0.0000   0.0000   0.0000
     0.0000   0.0000   0.0000   0.0000   0.0000   0.0000   0.0000   0.0000
     0.0000   0.0000   0.0000   0.0000   0.0000

          k = 0.1000 0.0000 0.0000 (203333 PWs)   bands (ev):

   -52.2344 -52.2342 -52.2331 -52.2329 -51.8037 -51.8037 -51.8024 -51.8024
   -51.3883 -51.3883 -51.3869 -51.3869 -50.8980 -50.8913 -50.8897 -50.8888
   -50.8838 -50.8816 -50.8808 -50.8784  -7.5095  -6.4840  -5.6541  -5.5759
    -5.5299  -5.1023  -4.6349  -4.6117  -4.5755  -4.0979  -3.9834  -3.8256
    -3.6119  -3.3080  -3.1157  -2.9793  -2.8700  -2.7723  -2.7297  -2.3909
    -1.9901  -1.3109  -1.1233  -0.8374  -0.8162

     occupation numbers 
     1.0000   1.0000   1.0000   1.0000   1.0000   1.0000   1.0000   1.0000
     1.0000   1.0000   1.0000   1.0000   1.0000   1.0000   1.0000   1.0000
     1.0000   1.0000   1.0000   1.0000   1.0000   1.0000   1.0000   1.0000
     1.0000   1.0000   1.0691   1.0807   1.0766   0.0001   0.0000   0.0000
     0.0000   0.0000   0.0000   0.0000   0.0000   0.0000   0.0000   0.0000
     0.0000   0.0000   0.0000   0.0000   0.0000

          k = 0.1000 0.0994 0.0000 (203258 PWs)   bands (ev):

   -52.2344 -52.2342 -52.2331 -52.2329 -51.8037 -51.8037 -51.8024 -51.8024
   -51.3883 -51.3883 -51.3869 -51.3869 -50.8979 -50.8913 -50.8897 -50.8890
   -50.8835 -50.8816 -50.8808 -50.8785  -7.4861  -6.4692  -5.9727  -5.5541
    -5.2504  -5.0920  -4.7021  -4.5937  -4.5682  -4.1912  -3.9180  -3.7554
    -3.5884  -3.3347  -3.1364  -3.1210  -2.9167  -2.7694  -2.5729  -2.1370
    -2.0008  -1.3204  -1.0911  -1.0158  -0.8927

     occupation numbers 
     1.0000   1.0000   1.0000   1.0000   1.0000   1.0000   1.0000   1.0000
     1.0000   1.0000   1.0000   1.0000   1.0000   1.0000   1.0000   1.0000
     1.0000   1.0000   1.0000   1.0000   1.0000   1.0000   1.0000   1.0000
     1.0000   1.0000   1.0263   1.0832   1.0706   0.0029   0.0000   0.0000
     0.0000   0.0000   0.0000   0.0000   0.0000   0.0000   0.0000   0.0000
     0.0000   0.0000   0.0000   0.0000   0.0000

          k = 0.1000 0.1988 0.0000 (203264 PWs)   bands (ev):

   -52.2344 -52.2342 -52.2331 -52.2329 -51.8037 -51.8037 -51.8024 -51.8024
   -51.3883 -51.3883 -51.3869 -51.3869 -50.8978 -50.8913 -50.8898 -50.8895
   -50.8829 -50.8816 -50.8808 -50.8787  -7.4158  -6.4730  -6.2469  -5.4887
    -5.3964  -4.8046  -4.6202  -4.6028  -4.5393  -4.4034  -3.8081  -3.6689
    -3.6024  -3.4155  -3.3675  -3.1193  -2.7188  -2.7123  -2.3308  -2.1178
    -1.6680  -1.3877  -1.1501  -0.9955  -0.8648

     occupation numbers 
     1.0000   1.0000   1.0000   1.0000   1.0000   1.0000   1.0000   1.0000
     1.0000   1.0000   1.0000   1.0000   1.0000   1.0000   1.0000   1.0000
     1.0000   1.0000   1.0000   1.0000   1.0000   1.0000   1.0000   1.0000
     1.0000   1.0019   1.0772   1.0828   1.0245   0.3961   0.0000   0.0000
     0.0000   0.0000   0.0000   0.0000   0.0000   0.0000   0.0000   0.0000
     0.0000   0.0000   0.0000   0.0000   0.0000

          k = 0.1000 0.2981 0.0000 (203250 PWs)   bands (ev):

   -52.2344 -52.2342 -52.2331 -52.2329 -51.8037 -51.8037 -51.8024 -51.8024
   -51.3883 -51.3883 -51.3869 -51.3869 -50.8976 -50.8913 -50.8900 -50.8898
   -50.8823 -50.8815 -50.8808 -50.8790  -7.2989  -6.6826  -6.2313  -5.6346
    -5.3804  -4.8090  -4.7249  -4.4586  -4.3979  -4.2158  -3.9159  -3.8452
    -3.6776  -3.3758  -3.3007  -3.0968  -2.6108  -2.4349  -2.2408  -2.1466
    -1.4301  -1.3654  -1.1346  -0.8731  -0.8647

     occupation numbers 
     1.0000   1.0000   1.0000   1.0000   1.0000   1.0000   1.0000   1.0000
     1.0000   1.0000   1.0000   1.0000   1.0000   1.0000   1.0000   1.0000
     1.0000   1.0000   1.0000   1.0000   1.0000   1.0000   1.0000   1.0000
     1.0000   1.0017   1.0164   0.6947   0.3690   0.0065   0.0000   0.0000
     0.0000   0.0000   0.0000   0.0000   0.0000   0.0000   0.0000   0.0000
     0.0000   0.0000   0.0000   0.0000   0.0000

          k = 0.1000 0.3975 0.0000 (203200 PWs)   bands (ev):

   -52.2344 -52.2342 -52.2331 -52.2329 -51.8037 -51.8037 -51.8024 -51.8024
   -51.3883 -51.3883 -51.3869 -51.3869 -50.8975 -50.8912 -50.8904 -50.8898
   -50.8819 -50.8815 -50.8808 -50.8792  -7.1361  -6.9274  -6.1065  -5.8453
    -5.2317  -5.0313  -4.6713  -4.3801  -4.3358  -4.0097  -3.9906  -3.9328
    -3.7588  -3.3720  -3.1869  -3.0869  -2.5138  -2.3811  -2.2160  -2.1044
    -1.3299  -1.2912  -1.1682  -0.9459  -0.7820

     occupation numbers 
     1.0000   1.0000   1.0000   1.0000   1.0000   1.0000   1.0000   1.0000
     1.0000   1.0000   1.0000   1.0000   1.0000   1.0000   1.0000   1.0000
     1.0000   1.0000   1.0000   1.0000   1.0000   1.0000   1.0000   1.0000
     1.0000   1.0000   1.0445   0.2878   0.1356   0.0000   0.0000   0.0000
     0.0000   0.0000   0.0000   0.0000   0.0000   0.0000   0.0000   0.0000
     0.0000   0.0000   0.0000   0.0000   0.0000

          k = 0.2000 0.0000 0.0000 (203263 PWs)   bands (ev):

   -52.2343 -52.2341 -52.2332 -52.2330 -51.8036 -51.8036 -51.8025 -51.8025
   -51.3882 -51.3882 -51.3870 -51.3870 -50.8976 -50.8923 -50.8892 -50.8887
   -50.8836 -50.8819 -50.8804 -50.8785  -7.4375  -6.4104  -5.9882  -5.5810
    -5.4575  -5.0266  -4.9668  -4.5602  -4.2319  -4.1308  -4.0542  -4.0234
    -3.6493  -3.2554  -3.2383  -2.9172  -2.7498  -2.6451  -2.5415  -2.3351
    -1.9147  -1.3706  -1.0051  -0.7638  -0.7389

     occupation numbers 
     1.0000   1.0000   1.0000   1.0000   1.0000   1.0000   1.0000   1.0000
     1.0000   1.0000   1.0000   1.0000   1.0000   1.0000   1.0000   1.0000
     1.0000   1.0000   1.0000   1.0000   1.0000   1.0000   1.0000   1.0000
     1.0000   1.0000   1.0000   1.0617   0.0107   0.0003   0.0000   0.0000
     0.0000   0.0000   0.0000   0.0000   0.0000   0.0000   0.0000   0.0000
     0.0000   0.0000   0.0000   0.0000   0.0000

          k = 0.2000 0.0994 0.0000 (203259 PWs)   bands (ev):

   -52.2343 -52.2341 -52.2332 -52.2330 -51.8036 -51.8036 -51.8025 -51.8025
   -51.3882 -51.3882 -51.3870 -51.3870 -50.8976 -50.8923 -50.8892 -50.8889
   -50.8834 -50.8819 -50.8804 -50.8786  -7.4141  -6.3956  -5.9657  -5.9003
    -5.1752  -5.0183  -4.9557  -4.6280  -4.5221  -4.0673  -3.8423  -3.8412
    -3.6828  -3.3754  -3.0787  -3.0706  -2.7986  -2.6967  -2.4458  -2.0651
    -1.9344  -1.4249  -0.9634  -0.9432  -0.8022

     occupation numbers 
     1.0000   1.0000   1.0000   1.0000   1.0000   1.0000   1.0000   1.0000
     1.0000   1.0000   1.0000   1.0000   1.0000   1.0000   1.0000   1.0000
     1.0000   1.0000   1.0000   1.0000   1.0000   1.0000   1.0000   1.0000
     1.0000   1.0000   1.0000   1.0732   0.9779   0.0000   0.0000   0.0000
     0.0000   0.0000   0.0000   0.0000   0.0000   0.0000   0.0000   0.0000
     0.0000   0.0000   0.0000   0.0000   0.0000

          k = 0.2000 0.1988 0.0000 (203186 PWs)   bands (ev):

   -52.2343 -52.2341 -52.2332 -52.2330 -51.8036 -51.8036 -51.8025 -51.8025
   -51.3882 -51.3882 -51.3870 -51.3870 -50.8974 -50.8922 -50.8894 -50.8893
   -50.8829 -50.8819 -50.8804 -50.8788  -7.3438  -6.4001  -6.1742  -5.8983
    -5.3215  -4.9790  -4.7640  -4.7313  -4.5442  -4.0889  -3.8697  -3.5337
    -3.5220  -3.3724  -3.3473  -2.9797  -2.7793  -2.6444  -2.2626  -2.0418
    -1.6023  -1.5383  -1.1007  -0.9545  -0.7585

     occupation numbers 
     1.0000   1.0000   1.0000   1.0000   1.0000   1.0000   1.0000   1.0000
     1.0000   1.0000   1.0000   1.0000   1.0000   1.0000   1.0000   1.0000
     1.0000   1.0000   1.0000   1.0000   1.0000   1.0000   1.0000   1.0000
     1.0000   1.0000   1.0063   1.0142   1.0350   0.0001   0.0000   0.0000
     0.0000   0.0000   0.0000   0.0000   0.0000   0.0000   0.0000   0.0000
     0.0000   0.0000   0.0000   0.0000   0.0000

          k = 0.2000 0.2981 0.0000 (203209 PWs)   bands (ev):

   -52.2343 -52.2341 -52.2332 -52.2330 -51.8036 -51.8036 -51.8025 -51.8025
   -51.3882 -51.3882 -51.3870 -51.3870 -50.8973 -50.8922 -50.8899 -50.8893
   -50.8823 -50.8818 -50.8804 -50.8790  -7.2270  -6.6105  -6.1579  -5.7864
    -5.5604  -5.1933  -4.7429  -4.6515  -4.2306  -4.1350  -3.8676  -3.6097
    -3.5385  -3.3037  -3.2152  -2.9034  -2.5787  -2.5460  -2.1697  -2.1000
    -1.6273  -1.3008  -1.0901  -1.0325  -0.8501

     occupation numbers 
     1.0000   1.0000   1.0000   1.0000   1.0000   1.0000   1.0000   1.0000
     1.0000   1.0000   1.0000   1.0000   1.0000   1.0000   1.0000   1.0000
     1.0000   1.0000   1.0000   1.0000   1.0000   1.0000   1.0000   1.0000
     1.0000   1.0000   1.0108   1.0582   0.0103   0.0004   0.0000   0.0000
     0.0000   0.0000   0.0000   0.0000   0.0000   0.0000   0.0000   0.0000
     0.0000   0.0000   0.0000   0.0000   0.0000

          k = 0.2000 0.3975 0.0000 (203166 PWs)   bands (ev):

   -52.2343 -52.2341 -52.2332 -52.2330 -51.8036 -51.8036 -51.8025 -51.8025
   -51.3882 -51.3882 -51.3870 -51.3870 -50.8972 -50.8922 -50.8902 -50.8894
   -50.8819 -50.8818 -50.8804 -50.8793  -7.0642  -6.8554  -6.0331  -5.7713
    -5.6319  -5.4264  -4.6401  -4.5979  -4.3945  -3.8502  -3.8099  -3.6849
    -3.5998  -3.2979  -3.1029  -2.8537  -2.4510  -2.3142  -2.3127  -2.0791
    -1.6150  -1.2853  -1.1284  -1.0799  -0.7458

     occupation numbers 
     1.0000   1.0000   1.0000   1.0000   1.0000   1.0000   1.0000   1.0000
     1.0000   1.0000   1.0000   1.0000   1.0000   1.0000   1.0000   1.0000
     1.0000   1.0000   1.0000   1.0000   1.0000   1.0000   1.0000   1.0000
     1.0000   1.0000   1.0658   1.0833   0.3529   0.0000   0.0000   0.0000
     0.0000   0.0000   0.0000   0.0000   0.0000   0.0000   0.0000   0.0000
     0.0000   0.0000   0.0000   0.0000   0.0000

          k = 0.3000 0.0000 0.0000 (203139 PWs)   bands (ev):

   -52.2341 -52.2339 -52.2334 -52.2331 -51.8035 -51.8034 -51.8027 -51.8026
   -51.3881 -51.3880 -51.3872 -51.3871 -50.8971 -50.8933 -50.8889 -50.8887
   -50.8834 -50.8823 -50.8800 -50.8787  -7.3173  -6.3517  -6.2880  -5.4597
    -5.3375  -5.3207  -4.9013  -4.5368  -4.4372  -4.4234  -3.9548  -3.9012
    -3.6572  -3.3188  -3.1546  -2.8202  -2.5431  -2.5067  -2.4014  -2.2550
    -1.7895  -1.2856  -1.2499  -0.7894  -0.6465

     occupation numbers 
     1.0000   1.0000   1.0000   1.0000   1.0000   1.0000   1.0000   1.0000
     1.0000   1.0000   1.0000   1.0000   1.0000   1.0000   1.0000   1.0000
     1.0000   1.0000   1.0000   1.0000   1.0000   1.0000   1.0000   1.0000
     1.0000   1.0000   1.0001   1.0187   0.5766   0.5007   0.0000   0.0000
     0.0000   0.0000   0.0000   0.0000   0.0000   0.0000   0.0000   0.0000
     0.0000   0.0000   0.0000   0.0000   0.0000

          k = 0.3000 0.0994 0.0000 (203174 PWs)   bands (ev):

   -52.2341 -52.2339 -52.2334 -52.2331 -51.8035 -51.8034 -51.8027 -51.8026
   -51.3881 -51.3880 -51.3872 -51.3871 -50.8970 -50.8933 -50.8889 -50.8888
   -50.8833 -50.8822 -50.8800 -50.8788  -7.2939  -6.3288  -6.2733  -5.7801
    -5.3080  -5.0506  -4.8964  -4.8485  -4.5060  -4.1179  -4.0015  -3.7154
    -3.6851  -3.3479  -2.9673  -2.9669  -2.5803  -2.5757  -2.4041  -1.9617
    -1.8206  -1.4461  -1.0983  -0.9320  -0.6300

     occupation numbers 
     1.0000   1.0000   1.0000   1.0000   1.0000   1.0000   1.0000   1.0000
     1.0000   1.0000   1.0000   1.0000   1.0000   1.0000   1.0000   1.0000
     1.0000   1.0000   1.0000   1.0000   1.0000   1.0000   1.0000   1.0000
     1.0000   1.0000   1.0001   1.0004   0.9210   0.0002   0.0000   0.0000
     0.0000   0.0000   0.0000   0.0000   0.0000   0.0000   0.0000   0.0000
     0.0000   0.0000   0.0000   0.0000   0.0000

          k = 0.3000 0.1988 0.0000 (203207 PWs)   bands (ev):

   -52.2341 -52.2339 -52.2334 -52.2331 -51.8035 -51.8034 -51.8027 -51.8026
   -51.3881 -51.3880 -51.3872 -51.3871 -50.8969 -50.8932 -50.8893 -50.8890
   -50.8828 -50.8822 -50.8801 -50.8789  -7.2238  -6.2790  -6.2602  -6.0532
    -5.3251  -5.1976  -5.1046  -4.6106  -4.4190  -4.2688  -3.7830  -3.5524
    -3.3906  -3.3255  -3.2375  -2.7420  -2.6385  -2.5380  -2.3450  -1.9214
    -1.6028  -1.5049  -1.0618  -0.9961  -0.6569

     occupation numbers 
     1.0000   1.0000   1.0000   1.0000   1.0000   1.0000   1.0000   1.0000
     1.0000   1.0000   1.0000   1.0000   1.0000   1.0000   1.0000   1.0000
     1.0000   1.0000   1.0000   1.0000   1.0000   1.0000   1.0000   1.0000
     1.0000   1.0000   1.0000   1.0810   0.4772   0.0299   0.0000   0.0000
     0.0000   0.0000   0.0000   0.0000   0.0000   0.0000   0.0000   0.0000
     0.0000   0.0000   0.0000   0.0000   0.0000

          k = 0.3000 0.2981 0.0000 (203169 PWs)   bands (ev):

   -52.2341 -52.2339 -52.2334 -52.2331 -51.8035 -51.8034 -51.8027 -51.8026
   -51.3881 -51.3880 -51.3872 -51.3871 -50.8967 -50.8932 -50.8897 -50.8891
   -50.8823 -50.8821 -50.8801 -50.8792  -7.1070  -6.4906  -6.1462  -6.0358
    -5.5415  -5.4374  -5.0814  -4.5306  -4.5053  -4.0023  -3.7280  -3.4999
    -3.2717  -3.1985  -3.0741  -2.7785  -2.6109  -2.4467  -2.0792  -2.0575
    -1.7687  -1.2368  -1.0418  -0.9926  -0.8349

     occupation numbers 
     1.0000   1.0000   1.0000   1.0000   1.0000   1.0000   1.0000   1.0000
     1.0000   1.0000   1.0000   1.0000   1.0000   1.0000   1.0000   1.0000
     1.0000   1.0000   1.0000   1.0000   1.0000   1.0000   1.0000   1.0000
     1.0000   1.0000   1.0000   1.0029   0.9185   0.0000   0.0000   0.0000
     0.0000   0.0000   0.0000   0.0000   0.0000   0.0000   0.0000   0.0000
     0.0000   0.0000   0.0000   0.0000   0.0000

          k = 0.3000 0.3975 0.0000 (203179 PWs)   bands (ev):

   -52.2341 -52.2339 -52.2334 -52.2331 -51.8035 -51.8034 -51.8027 -51.8026
   -51.3881 -51.3880 -51.3872 -51.3871 -50.8966 -50.8932 -50.8899 -50.8892
   -50.8820 -50.8820 -50.8801 -50.8793  -6.9444  -6.7354  -5.9881  -5.9111
    -5.7804  -5.6486  -4.9656  -4.7054  -4.4772  -3.7165  -3.7040  -3.5615
    -3.2023  -3.0596  -2.9659  -2.7814  -2.4986  -2.3554  -2.2100  -1.9723
    -1.7798  -1.2679  -1.0836  -1.0635  -0.9811

     occupation numbers 
     1.0000   1.0000   1.0000   1.0000   1.0000   1.0000   1.0000   1.0000
     1.0000   1.0000   1.0000   1.0000   1.0000   1.0000   1.0000   1.0000
     1.0000   1.0000   1.0000   1.0000   1.0000   1.0000   1.0000   1.0000
     1.0000   1.0000   1.0000   1.0247   0.7917   0.0000   0.0000   0.0000
     0.0000   0.0000   0.0000   0.0000   0.0000   0.0000   0.0000   0.0000
     0.0000   0.0000   0.0000   0.0000   0.0000

          k = 0.4000 0.0000 0.0000 (203087 PWs)   bands (ev):

   -52.2339 -52.2338 -52.2335 -52.2333 -51.8033 -51.8032 -51.8029 -51.8028
   -51.3879 -51.3878 -51.3874 -51.3873 -50.8963 -50.8944 -50.8887 -50.8886
   -50.8832 -50.8826 -50.8796 -50.8790  -7.1489  -6.6663  -6.1170  -5.6321
    -5.2916  -5.1712  -4.8248  -4.7279  -4.7090  -4.2686  -4.2483  -3.8256
    -3.7354  -3.3200  -2.8275  -2.7016  -2.3732  -2.3271  -2.2771  -2.1774
    -1.6165  -1.6163  -1.2422  -1.2135  -0.6725

     occupation numbers 
     1.0000   1.0000   1.0000   1.0000   1.0000   1.0000   1.0000   1.0000
     1.0000   1.0000   1.0000   1.0000   1.0000   1.0000   1.0000   1.0000
     1.0000   1.0000   1.0000   1.0000   1.0000   1.0000   1.0000   1.0000
     1.0000   1.0000   1.0010   1.0154   1.0230   0.0298   0.0172   0.0000
     0.0000   0.0000   0.0000   0.0000   0.0000   0.0000   0.0000   0.0000
     0.0000   0.0000   0.0000   0.0000   0.0000

          k = 0.4000 0.0994 0.0000 (203147 PWs)   bands (ev):

   -52.2339 -52.2338 -52.2335 -52.2333 -51.8033 -51.8032 -51.8029 -51.8028
   -51.3879 -51.3878 -51.3874 -51.3873 -50.8963 -50.8943 -50.8888 -50.8887
   -50.8831 -50.8825 -50.8797 -50.8790  -7.1255  -6.6431  -6.1026  -5.6185
    -5.6130  -5.1441  -4.8783  -4.7283  -4.4035  -4.3385  -4.2694  -3.8946
    -3.5448  -3.1224  -2.8517  -2.8388  -2.4349  -2.4088  -2.3026  -1.8663
    -1.6623  -1.5702  -1.2404  -1.1868  -0.7060

     occupation numbers 
     1.0000   1.0000   1.0000   1.0000   1.0000   1.0000   1.0000   1.0000
     1.0000   1.0000   1.0000   1.0000   1.0000   1.0000   1.0000   1.0000
     1.0000   1.0000   1.0000   1.0000   1.0000   1.0000   1.0000   1.0000
     1.0000   1.0000   1.0001   1.0152   0.3966   0.1428   0.0305   0.0000
     0.0000   0.0000   0.0000   0.0000   0.0000   0.0000   0.0000   0.0000
     0.0000   0.0000   0.0000   0.0000   0.0000

          k = 0.4000 0.1988 0.0000 (203116 PWs)   bands (ev):

   -52.2339 -52.2338 -52.2335 -52.2333 -51.8033 -51.8032 -51.8029 -51.8028
   -51.3879 -51.3878 -51.3874 -51.3873 -50.8961 -50.8943 -50.8891 -50.8889
   -50.8827 -50.8824 -50.8797 -50.8791  -7.0555  -6.5738  -6.1099  -5.8845
    -5.6313  -5.4082  -5.0259  -4.5525  -4.4448  -4.2475  -4.0046  -3.7933
    -3.2147  -3.0932  -2.9402  -2.7576  -2.4763  -2.4096  -2.3185  -1.7806
    -1.5510  -1.4426  -1.2460  -1.1299  -0.7727

     occupation numbers 
     1.0000   1.0000   1.0000   1.0000   1.0000   1.0000   1.0000   1.0000
     1.0000   1.0000   1.0000   1.0000   1.0000   1.0000   1.0000   1.0000
     1.0000   1.0000   1.0000   1.0000   1.0000   1.0000   1.0000   1.0000
     1.0000   1.0000   1.0000   1.0503   0.6191   0.0168   0.0000   0.0000
     0.0000   0.0000   0.0000   0.0000   0.0000   0.0000   0.0000   0.0000
     0.0000   0.0000   0.0000   0.0000   0.0000

          k = 0.4000 0.2981 0.0000 (203047 PWs)   bands (ev):

   -52.2339 -52.2338 -52.2335 -52.2333 -51.8033 -51.8032 -51.8029 -51.8028
   -51.3879 -51.3878 -51.3874 -51.3873 -50.8960 -50.8942 -50.8894 -50.8891
   -50.8823 -50.8822 -50.8798 -50.8793  -6.9389  -6.4585  -6.3231  -5.8656
    -5.8474  -5.3859  -5.2669  -4.7940  -4.3654  -3.9328  -3.8214  -3.3635
    -3.3547  -3.0633  -2.8807  -2.5154  -2.4685  -2.3344  -2.2549  -1.9295
    -1.6467  -1.3669  -1.1201  -1.0424  -0.8615

     occupation numbers 
     1.0000   1.0000   1.0000   1.0000   1.0000   1.0000   1.0000   1.0000
     1.0000   1.0000   1.0000   1.0000   1.0000   1.0000   1.0000   1.0000
     1.0000   1.0000   1.0000   1.0000   1.0000   1.0000   1.0000   1.0000
     1.0000   1.0000   1.0000   1.0027   0.2289   0.0000   0.0000   0.0000
     0.0000   0.0000   0.0000   0.0000   0.0000   0.0000   0.0000   0.0000
     0.0000   0.0000   0.0000   0.0000   0.0000

          k = 0.4000 0.3975 0.0000 (203101 PWs)   bands (ev):

   -52.2339 -52.2338 -52.2335 -52.2333 -51.8033 -51.8032 -51.8029 -51.8028
   -51.3879 -51.3878 -51.3874 -51.3873 -50.8959 -50.8941 -50.8897 -50.8892
   -50.8821 -50.8820 -50.8798 -50.8795  -6.7767  -6.5676  -6.2983  -6.0895
    -5.7413  -5.4781  -5.2649  -5.0017  -4.3127  -3.8902  -3.5410  -3.3876
    -3.1589  -2.9294  -2.7847  -2.6127  -2.4260  -2.2494  -2.1047  -2.0945
    -1.7154  -1.3795  -1.1742  -1.0216  -0.9322

     occupation numbers 
     1.0000   1.0000   1.0000   1.0000   1.0000   1.0000   1.0000   1.0000
     1.0000   1.0000   1.0000   1.0000   1.0000   1.0000   1.0000   1.0000
     1.0000   1.0000   1.0000   1.0000   1.0000   1.0000   1.0000   1.0000
     1.0000   1.0000   1.0000   1.0000   0.0848   0.0000   0.0000   0.0000
     0.0000   0.0000   0.0000   0.0000   0.0000   0.0000   0.0000   0.0000
     0.0000   0.0000   0.0000   0.0000   0.0000

          k =-0.5000 0.0000 0.0000 (203092 PWs)   bands (ev):

   -52.2337 -52.2337 -52.2336 -52.2335 -51.8031 -51.8031 -51.8030 -51.8030
   -51.3876 -51.3876 -51.3876 -51.3876 -50.8954 -50.8954 -50.8886 -50.8886
   -50.8829 -50.8829 -50.8793 -50.8793  -6.9319  -6.9319  -5.8981  -5.8981
    -5.0788  -5.0788  -4.9605  -4.9604  -4.5087  -4.5087  -4.0602  -4.0602
    -3.5348  -3.5347  -2.6037  -2.6037  -2.2257  -2.2257  -2.1575  -2.1575
    -1.7308  -1.7308  -1.4049  -1.4049  -0.4322

     occupation numbers 
     1.0000   1.0000   1.0000   1.0000   1.0000   1.0000   1.0000   1.0000
     1.0000   1.0000   1.0000   1.0000   1.0000   1.0000   1.0000   1.0000
     1.0000   1.0000   1.0000   1.0000   1.0000   1.0000   1.0000   1.0000
     1.0000   1.0000   1.0000   1.0000   0.9316   0.9316   0.0000   0.0000
     0.0000   0.0000   0.0000   0.0000   0.0000   0.0000   0.0000   0.0000
     0.0000   0.0000   0.0000   0.0000   0.0000

          k =-0.5000 0.0994 0.0000 (203092 PWs)   bands (ev):

   -52.2337 -52.2337 -52.2336 -52.2335 -51.8031 -51.8031 -51.8030 -51.8030
   -51.3876 -51.3876 -51.3876 -51.3876 -50.8953 -50.8953 -50.8887 -50.8887
   -50.8828 -50.8828 -50.8793 -50.8793  -6.9086  -6.9086  -5.8840  -5.8839
    -5.4003  -5.4002  -4.6609  -4.6609  -4.5172  -4.5172  -4.1308  -4.1308
    -3.3389  -3.3388  -2.7243  -2.7243  -2.3118  -2.3118  -2.0168  -2.0168
    -1.6590  -1.6590  -1.3868  -1.3868  -0.5335

     occupation numbers 
     1.0000   1.0000   1.0000   1.0000   1.0000   1.0000   1.0000   1.0000
     1.0000   1.0000   1.0000   1.0000   1.0000   1.0000   1.0000   1.0000
     1.0000   1.0000   1.0000   1.0000   1.0000   1.0000   1.0000   1.0000
     1.0000   1.0000   1.0517   1.0517   0.9620   0.9620   0.0003   0.0003
     0.0000   0.0000   0.0000   0.0000   0.0000   0.0000   0.0000   0.0000
     0.0000   0.0000   0.0000   0.0000   0.0000

          k =-0.5000 0.1988 0.0000 (202990 PWs)   bands (ev):

   -52.2337 -52.2337 -52.2336 -52.2335 -51.8031 -51.8031 -51.8030 -51.8030
   -51.3876 -51.3876 -51.3876 -51.3876 -50.8953 -50.8953 -50.8889 -50.8889
   -50.8826 -50.8826 -50.8794 -50.8794  -6.8389  -6.8389  -5.8936  -5.8936
    -5.6691  -5.6690  -4.8092  -4.8092  -4.2391  -4.2391  -4.0351  -4.0351
    -3.0176  -3.0176  -2.9259  -2.9259  -2.3059  -2.3059  -1.9760  -1.9760
    -1.5809  -1.5809  -1.2374  -1.2374  -0.6858

     occupation numbers 
     1.0000   1.0000   1.0000   1.0000   1.0000   1.0000   1.0000   1.0000
[...]
     1.0000   1.0000   1.0000   1.0000   1.0000   1.0000   1.0000   1.0000
     1.0000   1.0000   1.0000   1.0000   0.0007   0.0007   0.0000   0.0000
     0.0000   0.0000   0.0000   0.0000   0.0000   0.0000   0.0000   0.0000
     0.0000   0.0000   0.0000   0.0000   0.0000

     the Fermi energy is    -4.4040 ev

!    total energy              =    -300.85446826 Ry
     total all-electron energy =      -300.854631 Ry
     estimated scf accuracy    <          6.5E-13 Ry

!    total charge of GC-SCF    =       2.88202120 e
     smearing contrib. (-TS)   =       0.00054889 Ry
     internal energy E=F+TS    =    -300.85501716 Ry

     The total energy is F=E-TS. E is the sum of the following terms:
     one-electron contribution =   -2460.77354265 Ry
     hartree contribution      =    1193.40024796 Ry
     xc contribution           =     -70.34858693 Ry
     ewald contribution        =    1111.30743829 Ry
     one-center paw contrib.   =       1.77118442 Ry
      -> PAW hartree energy AE =       7.34565897 Ry
      -> PAW hartree energy PS =      -7.12262982 Ry
      -> PAW xc energy AE      =      -3.46947897 Ry
      -> PAW xc energy PS      =       3.33479917 Ry
      -> total E_H with PAW    =    1193.62327710 Ry
      -> total E_XC with PAW   =     -70.48326672 Ry
     pot.stat. contrib. (-muN) =      -0.93287576 Ry
     electrostatic embedding   =      -1.81297081 Ry
     cavitation energy         =       0.02410274 Ry
     electrolyte free energy   =      -0.02704770 Ry
     correction to one-el term =     -73.46296672 Ry

     WARNING: you are using the parabolic pbc correction;
              the potential shift above must be added to 
              band and Fermi energies.

     convergence has been achieved in  16 iterations
     The dielectric solvent contribution to forces
     atom    1 type  1   force =     0.00000000    0.00718811    0.05072465
     atom    2 type  1   force =     0.00000000   -0.00475589    0.00526396
     atom    3 type  1   force =     0.00000000   -0.00659473   -0.01754310
     atom    4 type  1   force =     0.00000000    0.02602978   -0.02207874
     atom    5 type  1   force =     0.00000000    0.01651394   -0.04745462
     atom    6 type  1   force =     0.00000001    0.00475579   -0.00526531
     atom    7 type  1   force =     0.00000001   -0.00718891   -0.05072554
     atom    8 type  1   force =     0.00000001   -0.01651369    0.04745515
     atom    9 type  1   force =     0.00000002   -0.02602992    0.02207668
     atom   10 type  1   force =     0.00000001    0.00659532    0.01754217
     atom   11 type  1   force =    -0.00000000    0.00718813    0.05072468
     atom   12 type  1   force =    -0.00000000   -0.00475590    0.00526395
     atom   13 type  1   force =    -0.00000000   -0.00659473   -0.01754310
     atom   14 type  1   force =    -0.00000000    0.02602978   -0.02207875
     atom   15 type  1   force =    -0.00000000    0.01651389   -0.04745422
     atom   16 type  1   force =    -0.00000001    0.00475579   -0.00526531
     atom   17 type  1   force =    -0.00000001   -0.00718891   -0.05072554
     atom   18 type  1   force =    -0.00000001   -0.01651369    0.04745515
     atom   19 type  1   force =    -0.00000002   -0.02602992    0.02207668
     atom   20 type  1   force =    -0.00000001    0.00659532    0.01754217
 

     Forces acting on atoms (cartesian axes, Ry/au):

     atom    1 type  1   force =     0.00000000    0.00019606   -0.00017327
     atom    2 type  1   force =     0.00000000    0.00022038    0.00001111
     atom    3 type  1   force =     0.00000000    0.00010280   -0.00038575
     atom    4 type  1   force =     0.00000000   -0.00018490   -0.00024661
     atom    5 type  1   force =     0.00000000    0.00031709   -0.00013867
     atom    6 type  1   force =     0.00000011   -0.00022056   -0.00001011
     atom    7 type  1   force =    -0.00000002   -0.00019560    0.00017337
     atom    8 type  1   force =    -0.00000001   -0.00031637    0.00013830
     atom    9 type  1   force =     0.00000003    0.00018479    0.00024536
     atom   10 type  1   force =     0.00000002   -0.00010371    0.00038624
     atom   11 type  1   force =     0.00000000    0.00019613   -0.00017338
     atom   12 type  1   force =     0.00000000    0.00022023    0.00001121
     atom   13 type  1   force =     0.00000000    0.00010286   -0.00038570
     atom   14 type  1   force =     0.00000000   -0.00018488   -0.00024658
     atom   15 type  1   force =     0.00000000    0.00031710   -0.00013867
     atom   16 type  1   force =    -0.00000011   -0.00022056   -0.00001011
     atom   17 type  1   force =     0.00000002   -0.00019560    0.00017337
     atom   18 type  1   force =     0.00000001   -0.00031637    0.00013830
     atom   19 type  1   force =    -0.00000003    0.00018479    0.00024536
     atom   20 type  1   force =    -0.00000002   -0.00010371    0.00038624
     The non-local contrib.  to forces
     atom    1 type  1   force =     0.00000000    0.00069041    0.05244705
     atom    2 type  1   force =     0.00000000    0.00599963   -0.00179246
     atom    3 type  1   force =     0.00000000    0.00319934    0.00178975
     atom    4 type  1   force =     0.00000000    0.02325404   -0.08021567
     atom    5 type  1   force =     0.00000000    0.01701086    0.08261072
     atom    6 type  1   force =     0.00000016   -0.00599892    0.00179396
     atom    7 type  1   force =    -0.00000001   -0.00069112   -0.05244660
     atom    8 type  1   force =     0.00000001   -0.01701029   -0.08261041
     atom    9 type  1   force =     0.00000008   -0.02325485    0.08021518
     atom   10 type  1   force =     0.00000004   -0.00319977   -0.00178905
     atom   11 type  1   force =     0.00000000    0.00069054    0.05244703
     atom   12 type  1   force =     0.00000000    0.00599949   -0.00179230
     atom   13 type  1   force =     0.00000000    0.00319942    0.00178987
     atom   14 type  1   force =     0.00000000    0.02325408   -0.08021556
     atom   15 type  1   force =     0.00000000    0.01701081    0.08261083
     atom   16 type  1   force =    -0.00000016   -0.00599892    0.00179396
     atom   17 type  1   force =     0.00000001   -0.00069112   -0.05244660
     atom   18 type  1   force =    -0.00000001   -0.01701029   -0.08261041
     atom   19 type  1   force =    -0.00000008   -0.02325485    0.08021518
     atom   20 type  1   force =    -0.00000004   -0.00319977   -0.00178905
     The ionic contribution  to forces
     atom    1 type  1   force =    -0.00000002    0.04088860    4.57962999
     atom    2 type  1   force =    -0.00000002    0.02656165    1.26135556
     atom    3 type  1   force =    -0.00000003   -0.12398294   -2.96952772
     atom    4 type  1   force =    -0.00000001    0.33051163   -6.90945819
     atom    5 type  1   force =    -0.00000000    0.20708606    8.12032372
     atom    6 type  1   force =     0.00000344   -0.02656216   -1.26131493
     atom    7 type  1   force =     0.00000041   -0.04088620   -4.57961604
     atom    8 type  1   force =     0.00000013   -0.20707226   -8.12033665
     atom    9 type  1   force =     0.00000154   -0.33051741    6.90947033
     atom   10 type  1   force =     0.00000116    0.12397294    2.96947207
     atom   11 type  1   force =     0.00000001    0.04089063    4.57963248
     atom   12 type  1   force =     0.00000001    0.02655869    1.26135590
     atom   13 type  1   force =     0.00000002   -0.12398122   -2.96952542
     atom   14 type  1   force =     0.00000001    0.33051181   -6.90945605
     atom   15 type  1   force =     0.00000000    0.20708527    8.12032022
     atom   16 type  1   force =    -0.00000343   -0.02656217   -1.26131495
     atom   17 type  1   force =    -0.00000041   -0.04088619   -4.57961602
     atom   18 type  1   force =    -0.00000013   -0.20707225   -8.12033662
     atom   19 type  1   force =    -0.00000154   -0.33051741    6.90947031
     atom   20 type  1   force =    -0.00000115    0.12397294    2.96947202
     The local contribution  to forces
     atom    1 type  1   force =     0.00000349   -0.04857105   -4.68297194
     atom    2 type  1   force =     0.00000348   -0.02758455   -1.26482386
     atom    3 type  1   force =     0.00000291    0.12748238    2.98487286
     atom    4 type  1   force =     0.00000408   -0.37997903    7.01150492
     atom    5 type  1   force =     0.00000408   -0.24027244   -8.15561475
     atom    6 type  1   force =     0.00000119    0.02758400    1.26478370
     atom    7 type  1   force =     0.00000400    0.04857065    4.68295872
     atom    8 type  1   force =     0.00000456    0.24025836    8.15562718
     atom    9 type  1   force =     0.00000252    0.37998588   -7.01151600
     atom   10 type  1   force =     0.00000322   -0.12747347   -2.98481718
     atom   11 type  1   force =     0.00000442   -0.04857317   -4.68297457
     atom   12 type  1   force =     0.00000440   -0.02758159   -1.26482425
     atom   13 type  1   force =     0.00000557    0.12748064    2.98487050
     atom   14 type  1   force =     0.00000500   -0.37997924    7.01150270
     atom   15 type  1   force =     0.00000384   -0.24027155   -8.15561175
     atom   16 type  1   force =     0.00000820    0.02758458    1.26478431
     atom   17 type  1   force =     0.00000484    0.04857065    4.68295811
     atom   18 type  1   force =     0.00000486    0.24025895    8.15562600
     atom   19 type  1   force =     0.00000574    0.37998588   -7.01151540
     atom   20 type  1   force =     0.00000560   -0.12747347   -2.98481598
     The core correction contribution to forces
     atom    1 type  1   force =     0.00000000    0.00000000    0.00000000
     atom    2 type  1   force =     0.00000000    0.00000000    0.00000000
     atom    3 type  1   force =     0.00000000    0.00000000    0.00000000
     atom    4 type  1   force =     0.00000000    0.00000000    0.00000000
     atom    5 type  1   force =     0.00000000    0.00000000    0.00000000
     atom    6 type  1   force =     0.00000000    0.00000000    0.00000000
     atom    7 type  1   force =     0.00000000    0.00000000    0.00000000
     atom    8 type  1   force =     0.00000000    0.00000000    0.00000000
     atom    9 type  1   force =     0.00000000    0.00000000    0.00000000
     atom   10 type  1   force =     0.00000000    0.00000000    0.00000000
     atom   11 type  1   force =     0.00000000    0.00000000    0.00000000
     atom   12 type  1   force =     0.00000000    0.00000000    0.00000000
     atom   13 type  1   force =     0.00000000    0.00000000    0.00000000
     atom   14 type  1   force =     0.00000000    0.00000000    0.00000000
     atom   15 type  1   force =     0.00000000    0.00000000    0.00000000
     atom   16 type  1   force =     0.00000000    0.00000000    0.00000000
     atom   17 type  1   force =     0.00000000    0.00000000    0.00000000
     atom   18 type  1   force =     0.00000000    0.00000000    0.00000000
     atom   19 type  1   force =     0.00000000    0.00000000    0.00000000
     atom   20 type  1   force =     0.00000000    0.00000000    0.00000000
     The Hubbard contrib.    to forces
     atom    1 type  1   force =     0.00000000    0.00000000    0.00000000
     atom    2 type  1   force =     0.00000000    0.00000000    0.00000000
     atom    3 type  1   force =     0.00000000    0.00000000    0.00000000
     atom    4 type  1   force =     0.00000000    0.00000000    0.00000000
     atom    5 type  1   force =     0.00000000    0.00000000    0.00000000
     atom    6 type  1   force =     0.00000000    0.00000000    0.00000000
     atom    7 type  1   force =     0.00000000    0.00000000    0.00000000
     atom    8 type  1   force =     0.00000000    0.00000000    0.00000000
     atom    9 type  1   force =     0.00000000    0.00000000    0.00000000
     atom   10 type  1   force =     0.00000000    0.00000000    0.00000000
     atom   11 type  1   force =     0.00000000    0.00000000    0.00000000
     atom   12 type  1   force =     0.00000000    0.00000000    0.00000000
     atom   13 type  1   force =     0.00000000    0.00000000    0.00000000
     atom   14 type  1   force =     0.00000000    0.00000000    0.00000000
     atom   15 type  1   force =     0.00000000    0.00000000    0.00000000
     atom   16 type  1   force =     0.00000000    0.00000000    0.00000000
     atom   17 type  1   force =     0.00000000    0.00000000    0.00000000
     atom   18 type  1   force =     0.00000000    0.00000000    0.00000000
     atom   19 type  1   force =     0.00000000    0.00000000    0.00000000
     atom   20 type  1   force =     0.00000000    0.00000000    0.00000000
     The SCF correction term to forces
     atom    1 type  1   force =    -0.00000000   -0.00000000   -0.00000300
     atom    2 type  1   force =     0.00000000   -0.00000046    0.00000793
     atom    3 type  1   force =     0.00000000   -0.00000125    0.00002246
     atom    4 type  1   force =     0.00000000   -0.00000131    0.00000110
     atom    5 type  1   force =     0.00000000   -0.00002132   -0.00000372
     atom    6 type  1   force =    -0.00000000    0.00000045   -0.00000780
     atom    7 type  1   force =    -0.00000001   -0.00000003    0.00000314
     atom    8 type  1   force =    -0.00000001    0.00002122    0.00000363
     atom    9 type  1   force =     0.00000000    0.00000110   -0.00000111
     atom   10 type  1   force =     0.00000000    0.00000128   -0.00002232
     atom   11 type  1   force =     0.00000000   -0.00000000   -0.00000298
     atom   12 type  1   force =     0.00000000   -0.00000046    0.00000793
     atom   13 type  1   force =     0.00000000   -0.00000125    0.00002246
     atom   14 type  1   force =     0.00000000   -0.00000131    0.00000110
     atom   15 type  1   force =     0.00000000   -0.00002131   -0.00000372
     atom   16 type  1   force =     0.00000000    0.00000045   -0.00000780
     atom   17 type  1   force =     0.00000001   -0.00000003    0.00000314
     atom   18 type  1   force =     0.00000001    0.00002122    0.00000363
     atom   19 type  1   force =    -0.00000000    0.00000110   -0.00000111
     atom   20 type  1   force =    -0.00000000    0.00000128   -0.00002232

     Total force =     0.001401     Total SCF correction =     0.000065
     Energy error            =      8.8E-06 Ry
     Gradient error          =      3.9E-04 Ry/Bohr

     bfgs converged in  50 scf cycles and  39 bfgs steps
     (criteria: energy <  1.0E-05 Ry, force <  3.9E-04 Ry/Bohr)

     End of BFGS Geometry Optimization

     Final energy             =    -300.8544682619 Ry

     File ./Li/Lithium.bfgs deleted, as requested
Begin final coordinates

ATOMIC_POSITIONS (angstrom)
Li              -0.0000000600        3.1644437143       25.3744290441
Li              -0.0000000600        6.0565576832       24.1239947003
Li              -0.0000000500        1.6087638198       22.3788343243
Li              -0.0000000700        4.2350940141       20.6443303583
Li              -0.0000000700        0.8560031946       27.6177047437
Li               1.7175769841        3.9290883054       23.0921712526
Li               1.7175779046        6.8211711849       21.8417254932
Li               1.7175779883        1.4483202033       19.5984296188
Li               1.7175766548        5.7505088839       26.5718401454
Li               1.7175763279        0.6956418593       24.8372918153
Li               3.4351561700        3.1644424216       25.3744311783
Li               3.4351561700        6.0565609019       24.1239945359
Li               3.4351561500        1.6087626859       22.3788346804
Li               3.4351561600        4.2350927391       20.6443307251
Li               3.4351561800        0.8559976646       27.6177009223
Li               5.1527353459        3.9290882954       23.0921712426
Li               5.1527344354        6.8211711849       21.8417255032
Li               5.1527343417        1.4483201933       19.5984296387
Li               5.1527356952        5.7505088839       26.5718401354
Li               5.1527360121        0.6956418593       24.8372917953
End final coordinates



     Writing all to output data dir ./Li/Lithium.save/ :
     XML data file
     init_run     :      6.73s CPU      7.36s WALL (       1 calls)
     electrons    :  10837.44s CPU  10910.18s WALL (      50 calls)
     update_pot   :      6.52s CPU      6.65s WALL (      49 calls)
     forces       :    461.76s CPU    463.45s WALL (      50 calls)

     Called by init_run:
     wfcinit      :      1.36s CPU      1.39s WALL (       1 calls)
     wfcinit:wfcr :      1.29s CPU      1.31s WALL (      15 calls)
     potinit      :      0.19s CPU      0.22s WALL (       1 calls)
     hinit0       :      1.72s CPU      2.20s WALL (       1 calls)

     Called by electrons:
     c_bands      :   5301.40s CPU   5340.99s WALL (     823 calls)
     sum_band     :    479.39s CPU    483.14s WALL (     823 calls)
     v_of_rho     :     62.81s CPU     63.41s WALL (     824 calls)
     v_h          :      5.62s CPU      5.66s WALL (     824 calls)
     v_xc         :     57.18s CPU     57.75s WALL (     824 calls)
     newd         :     19.38s CPU     19.70s WALL (     824 calls)
     PAW_pot      :     20.30s CPU     20.68s WALL (     873 calls)
     mix_rho      :    157.85s CPU    158.81s WALL (     823 calls)

     Called by c_bands:
     init_us_2    :     59.34s CPU     59.89s WALL (   26190 calls)
     cegterg      :   4464.00s CPU   4496.12s WALL (   13192 calls)

     Called by sum_band:
     sum_band:wei :      2.27s CPU      2.29s WALL (     823 calls)
     sum_band:loo :    427.06s CPU    430.16s WALL (     823 calls)
     sum_band:buf :      4.79s CPU      4.86s WALL (   12345 calls)
     sum_band:ini :     28.47s CPU     28.63s WALL (   12345 calls)
     sum_band:cal :     41.67s CPU     41.98s WALL (   13080 calls)
     sum_band:bec :      1.52s CPU      1.62s WALL (   13080 calls)
     addusdens    :     14.53s CPU     14.74s WALL (     823 calls)
                                        0.00s GPU  (     823 calls)
     addusd:skk   :      1.94s CPU      1.95s WALL (     823 calls)
                                        0.00s GPU  (     823 calls)

     Called by *egterg:
     cdiaghg      :    664.04s CPU    668.55s WALL (  152067 calls)
     cegterg:over :    339.13s CPU    341.88s WALL (  140514 calls)
     cegterg:upda :    190.43s CPU    191.71s WALL (  140514 calls)
     cegterg:last :     36.75s CPU     36.92s WALL (   16449 calls)
     h_psi        :   2964.17s CPU   2986.41s WALL (  153721 calls)
     s_psi        :    137.80s CPU    139.11s WALL (  153721 calls)
     g_psi        :      6.32s CPU      6.37s WALL (  140514 calls)

     Called by h_psi:
     h_psi:calbec :    234.36s CPU    236.93s WALL (  153721 calls)
     vloc_psi     :   2564.19s CPU   2582.86s WALL (  153721 calls)
                                        0.00s GPU  (  153721 calls)
     add_vuspsi   :    153.64s CPU    154.81s WALL (  153721 calls)

     General routines
     calbec       :    283.84s CPU    286.96s WALL (  169801 calls)
     fft          :     59.17s CPU     60.08s WALL (   10810 calls)
     ffts         :     82.64s CPU     83.13s WALL (   90699 calls)
     fftw         :   2777.84s CPU   2798.12s WALL ( 4828903 calls)
     interpolate  :      4.47s CPU      4.70s WALL (     824 calls)
 
     Parallel routines

     PAW routines
     PAW_pot      :     20.30s CPU     20.68s WALL (     873 calls)
     PAW_symme    :      0.40s CPU      0.40s WALL (    1696 calls)
 
     Environ routines
 
     PWSCF        :      3h15m CPU      3h17m WALL

 
   This run was terminated on:  17:46:59   6Jan2025            

=------------------------------------------------------------------------------=
   JOB DONE.
=------------------------------------------------------------------------------=
