
     Program PWSCF v.7.4 starts on 21Jan2025 at 10:58:19 

     This program is part of the open-source Quantum ESPRESSO suite
     for quantum simulation of materials; please cite
         "P. Giannozzi et al., J. Phys.:Condens. Matter 21 395502 (2009);
         "P. Giannozzi et al., J. Phys.:Condens. Matter 29 465901 (2017);
         "P. Giannozzi et al., J. Chem. Phys. 152 154105 (2020);
          URL http://www.quantum-espresso.org", 
     in publications or presentations arising from this work. More details at
     http://www.quantum-espresso.org/quote

     Parallel version (MPI & OpenMP), running on     512 processor cores
     Number of MPI processes:               512
     Threads/MPI process:                     1

     MPI processes distributed on     4 nodes
     233080 MiB available memory on the printing compute node when the environment starts

     Reading input from espresso.pwi
Warning: card &CELL ignored
Warning: card    PRESS_CONV_THR   = 0.1 ignored
Warning: card    CELL_DOFREE      = 'ALL' ignored
Warning: card / ignored
Warning: card &FCP ignored
Warning: card / ignored
Warning: card &RISM ignored
Warning: card / ignored

     Current dimensions of program PWSCF are:
     Max number of different atomic species (ntypx) = 10
     Max number of k-points (npk) =  40000
     Max angular momentum in pseudopotentials (lmaxx) =  4

     IMPORTANT: XC functional enforced from input :
     Exchange-correlation= PBE
                           (   1   4   3   4   0   0   0)
     Any further DFT definition will be discarded
     Please, verify this is what you really want


     Reading input from environ.in:
     * using ionic solvent mode
     * setting boundary derivatives method to SSCS default
     * setting electrolyte-boundary derivatives method to SSCS default

Environ Warning (1001): card EOF ignored

     

     K-points division:     npool     =       2
     R & G space division:  proc/nbgrp/npool/nimage =     256
     Subspace diagonalization in iterative solution of the eigenvalue problem:
     one sub-group per band group will be used
     ELPA distributed-memory algorithm (size of sub-group:  2*  2 procs)


     Parallelization info
     --------------------
     sticks:   dense  smooth     PW     G-vecs:    dense   smooth      PW
     Min          91      36      9                56517    14280    1907
     Max          92      37     10                56562    14325    1964
     Sum       23389    9361   2459             14473305  3661695  495499

     Using Slab Decomposition



     bravais-lattice index     =           12
     lattice parameter (alat)  =      18.3607  a.u.
     unit-cell volume          =   37876.5244 (a.u.)^3
     number of atoms/cell      =           76
     number of atomic types    =            1
     number of electrons       =       228.00
     number of Kohn-Sham states=          171
     kinetic-energy cutoff     =      80.0000  Ry
     charge density cutoff     =     800.0000  Ry
     scf convergence threshold =      1.0E-16
     mixing beta               =       0.2000
     number of iterations used =            8  local-TF  mixing
     Exchange-correlation= PBE
                           (   1   4   3   4   0   0   0)

     ================================================================================

                                  Environ Setup Summary

     ================================================================================

     Please cite

          O. Andreussi, I. Dabo and N. Marzari, J. Chem. Phys. 136, 064102 (2012)
          F. Nattino, M. Truscott, N. Marzari, and O. Andreussi, J. Chem. Phys. 150, 041722 (2019)

     in publications or presentations arising from this work.

     ================================================================================

     Parameters
     ==========

     compensation onset threshold      =               0.1000E+00
     static permittivity               =                    89.90
     surface tension in input (dyn/cm) =                    37.30
     surface tension in internal units =               0.4792E-04

     Solvent Boundary
     ================

     solvent mode                      =                    ionic
     derivatives method                =                   lowmem
     electrolyte derivatives method    =                   lowmem
     numerical core for derivatives    =                      fft
     switching function adopted        =                     SCCS
     density limit for vacuum region   =               0.5000E-02
     density limit for bulk solvent    =               0.1000E-03
     soft-sphere radius mode           =                    bondi
     soft-sphere softness              =                     0.50
     alpha                             =                     1.32

     Electrostatic Setup
     ===================

     electrostatic problem to solve    =                    modpb
     numerical solver adopted          =                   newton
     type of auxiliary density adopted =                     none
     numerical core for poisson        =                      fft
     adopting a nested solver scheme
     inner solver                      =                       cg
     inner core                        =                      fft
     type of pbc corrections           =                parabolic
     numerical core for corrections    =                      1da

     ================================================================================


     >>>>> Grand-Canonical SCF is activated <<<<<
     Initial Total Charge  =     0.000000 e
     Target Fermi Energy   =    -5.404000 eV
     Thr. of Fermi Energy  =     0.001000 eV
     Wave-shift of Kerker  =     0.400000 bohr^-1
     Wave-shift of Hartree =     1.500000 bohr^-1
     Mixing Rate of Fermi  =     0.050000

     celldm(1)=  18.360747  celldm(2)=   1.118034  celldm(3)=   5.615419
     celldm(4)=   0.223607  celldm(5)=   0.000000  celldm(6)=   0.000000

     crystal axes: (cart. coord. in units of alat)
               a(1) = (   1.000000   0.000000   0.000000 )  
               a(2) = (   0.250000   1.089725   0.000000 )  
               a(3) = (   0.000000   0.000000   5.615419 )  

     reciprocal axes: (cart. coord. in units 2 pi/alat)
               b(1) = (  1.000000 -0.229416  0.000000 )  
               b(2) = (  0.000000  0.917663  0.000000 )  
               b(3) = (  0.000000  0.000000  0.178081 )  


     PseudoPot. # 1 for Li read from file:
     /work/e89/e89/ba3g18/Repos/Pseudopotentials/Pslibrary/Li.pbe-sl-kjpaw_psl.1.0.0.UPF
     MD5 check sum: 3f4d2cafebb47c6c3aa8ed472e6f074d
     Pseudo is Projector augmented-wave, Zval =  3.0
     Generated using 'atomic' code by A. Dal Corso  v.7.4
     Shape of augmentation charge: PSQ
     Using radial grid of 1017 points,  4 beta functions with: 
                l(1) =   0
                l(2) =   0
                l(3) =   1
                l(4) =   1
     Q(r) pseudized with 0 coefficients 


     atomic species   valence    mass     pseudopotential
     Li                3.00     6.94000     Li( 1.00)

     No symmetry found


                                    s                        frac. trans.

      isym =  1     identity                                     

 cryst.   s( 1) = (     1          0          0      )
                  (     0          1          0      )
                  (     0          0          1      )

 cart.    s( 1) = (  1.0000000  0.0000000  0.0000000 )
                  (  0.0000000  1.0000000  0.0000000 )
                  (  0.0000000  0.0000000  1.0000000 )


     point group C_1 (1)    
     there are  1 classes
     the character table:

       E    
A      1.00

     the symmetry operations in each class and the name of the first element:

     E        1
          identity                                               

   Cartesian axes

     site n.     atom                  positions (alat units)
         1        Li     tau(   1) = (   0.0010561  -0.1123642   3.5992759  )
         2        Li     tau(   2) = (   0.2488911   0.7744397   2.0690103  )
         3        Li     tau(   3) = (   0.2488373   0.3816473   2.1847404  )
         4        Li     tau(   4) = (   0.2487648   0.0507373   2.3159096  )
         5        Li     tau(   5) = (   0.4988079   0.8076182   2.3148500  )
         6        Li     tau(   6) = (   0.4988330   0.4465442   2.3986963  )
         7        Li     tau(   7) = (   0.4988604   0.1191461   2.4955993  )
         8        Li     tau(   8) = (   0.2492531   0.8522408   2.5854124  )
         9        Li     tau(   9) = (   0.2494376   0.5195376   2.6633830  )
        10        Li     tau(  10) = (   0.2495473   0.1730453   2.7440642  )
        11        Li     tau(  11) = (   0.5002357   0.9105072   2.8392160  )
        12        Li     tau(  12) = (   0.5005176   0.5717033   2.9096297  )
        13        Li     tau(  13) = (   0.5006523   0.2359270   3.0046138  )
        14        Li     tau(  14) = (   0.2508777   0.9914629   3.0500175  )
        15        Li     tau(  15) = (   0.2511953   0.6237102   3.1457247  )
        16        Li     tau(  16) = (   0.2511772   0.2859130   3.2541707  )
        17        Li     tau(  17) = (   0.5012249   1.0372970   3.3077353  )
        18        Li     tau(  18) = (   0.5011926   0.7314894   3.4220903  )
        19        Li     tau(  19) = (   0.5010784   0.3491441   3.5028071  )
        20        Li     tau(  20) = (   0.2487733   0.9701030   2.3076956  )
        21        Li     tau(  21) = (   0.2488248   0.6317504   2.3612703  )
        22        Li     tau(  22) = (   0.2488044   0.2939379   2.4696947  )
        23        Li     tau(  23) = (   0.4991249   1.0159561   2.5653116  )
        24        Li     tau(  24) = (   0.4993542   0.6817563   2.6107969  )
        25        Li     tau(  25) = (   0.4994764   0.3459786   2.7057796  )
        26        Li     tau(  26) = (   0.4997666   0.0071870   2.7761839  )
        27        Li     tau(  27) = (   0.2504515   0.7446213   2.8713346  )
        28        Li     tau(  28) = (   0.2505622   0.3981320   2.9519905  )
        29        Li     tau(  29) = (   0.2507446   0.0654322   3.0299934  )
        30        Li     tau(  30) = (   0.5011378   0.7985234   3.1197757  )
        31        Li     tau(  31) = (   0.5011690   0.4711191   3.2167502  )
        32        Li     tau(  32) = (   0.5011962   0.1100293   3.3005815  )
        33        Li     tau(  33) = (   0.2512357   0.8669229   3.2995155  )
        34        Li     tau(  34) = (   0.2511638   0.5360058   3.4307246  )
        35        Li     tau(  35) = (   0.2511102   0.1431794   3.5464517  )
        36        Li     tau(  36) = (   0.4989401   1.0299913   2.0161484  )
        37        Li     tau(  37) = (   0.4988858   0.5684677   2.1126582  )
        38        Li     tau(  38) = (   0.4988227   0.1861966   2.1933258  )
        39        Li     tau(  39) = (   0.5011026  -0.1123519   3.5992921  )
        40        Li     tau(  40) = (   0.7488781   0.7744059   2.0690280  )
        41        Li     tau(  41) = (   0.7488488   0.3816725   2.1847392  )
        42        Li     tau(  42) = (   0.7487656   0.0507293   2.3159066  )
        43        Li     tau(  43) = (   0.9988063   0.8076267   2.3148520  )
        44        Li     tau(  44) = (   0.9988311   0.4465330   2.3986936  )
        45        Li     tau(  45) = (   0.9988637   0.1191551   2.4955895  )
        46        Li     tau(  46) = (   0.7492579   0.8522490   2.5854206  )
        47        Li     tau(  47) = (   0.7494354   0.5195301   2.6633868  )
        48        Li     tau(  48) = (   0.7495515   0.1730532   2.7440779  )
        49        Li     tau(  49) = (   1.0002304   0.9105057   2.8392101  )
        50        Li     tau(  50) = (   1.0005237   0.5717058   2.9096277  )
        51        Li     tau(  51) = (   1.0006437   0.2359211   3.0046045  )
        52        Li     tau(  52) = (   0.7508667   0.9914586   3.0500202  )
        53        Li     tau(  53) = (   0.7512088   0.6237201   3.1457489  )
        54        Li     tau(  54) = (   0.7511693   0.2859136   3.2541670  )
        55        Li     tau(  55) = (   1.0012359   1.0372926   3.3077619  )
        56        Li     tau(  56) = (   1.0011748   0.7314660   3.4220641  )
        57        Li     tau(  57) = (   1.0011206   0.3491572   3.5028052  )
        58        Li     tau(  58) = (   0.7487667   0.9701050   2.3076896  )
        59        Li     tau(  59) = (   0.7488301   0.6317530   2.3612842  )
        60        Li     tau(  60) = (   0.7487934   0.2939308   2.4696937  )
        61        Li     tau(  61) = (   0.9991305   1.0159658   2.5653160  )
        62        Li     tau(  62) = (   0.9993495   0.6817527   2.6107921  )
        63        Li     tau(  63) = (   0.9994807   0.3459811   2.7057765  )
        64        Li     tau(  64) = (   0.9997648   0.0071792   2.7761744  )
        65        Li     tau(  65) = (   0.7504493   0.7446122   2.8713422  )
        66        Li     tau(  66) = (   0.7505640   0.3981456   2.9520025  )
        67        Li     tau(  67) = (   0.7507422   0.0654187   3.0300065  )
        68        Li     tau(  68) = (   1.0011377   0.7985378   3.1197692  )
        69        Li     tau(  69) = (   1.0011675   0.4711037   3.2167448  )
        70        Li     tau(  70) = (   1.0011908   0.1100374   3.3005761  )
        71        Li     tau(  71) = (   0.7512362   0.8669418   3.2995245  )
        72        Li     tau(  72) = (   0.7511508   0.5359728   3.4307462  )
        73        Li     tau(  73) = (   0.7511196   0.1432284   3.5464464  )
        74        Li     tau(  74) = (   0.9989009   1.0299777   2.0161461  )
        75        Li     tau(  75) = (   0.9989146   0.5684853   2.1126616  )
        76        Li     tau(  76) = (   0.9988105   0.1861795   2.1933000  )

   Crystallographic axes

     site n.     atom                  positions (cryst. coord.)
         1        Li     tau(   1) = (  0.0268342 -0.1031124  0.6409630  )
         2        Li     tau(   2) = (  0.0712225  0.7106745  0.3684516  )
         3        Li     tau(   3) = (  0.1612814  0.3502235  0.3890610  )
         4        Li     tau(   4) = (  0.2371249  0.0465597  0.4124197  )
         5        Li     tau(   5) = (  0.3135277  0.7411211  0.4122310  )
         6        Li     tau(   6) = (  0.3963888  0.4097770  0.4271625  )
         7        Li     tau(   7) = (  0.4715265  0.1093359  0.4444191  )
         8        Li     tau(   8) = (  0.0537357  0.7820696  0.4604131  )
         9        Li     tau(   9) = (  0.1302475  0.4767603  0.4742982  )
        10        Li     tau(  10) = (  0.2098480  0.1587972  0.4886660  )
        11        Li     tau(  11) = (  0.2913510  0.8355385  0.5056107  )
        12        Li     tau(  12) = (  0.3693599  0.5246308  0.5181501  )
        13        Li     tau(  13) = (  0.4465270  0.2165014  0.5350649  )
        14        Li     tau(  14) = (  0.0234206  0.9098285  0.5431505  )
        15        Li     tau(  15) = (  0.1081064  0.5723556  0.5601941  )
        16        Li     tau(  16) = (  0.1855843  0.2623717  0.5795063  )
        17        Li     tau(  17) = (  0.2632527  0.9518888  0.5890451  )
        18        Li     tau(  18) = (  0.3333775  0.6712605  0.6094096  )
        19        Li     tau(  19) = (  0.4209792  0.3203965  0.6237837  )
        20        Li     tau(  20) = (  0.0262164  0.8902274  0.4109570  )
        21        Li     tau(  21) = (  0.1038914  0.5797338  0.4204976  )
        22        Li     tau(  22) = (  0.1813705  0.2697358  0.4398059  )
        23        Li     tau(  23) = (  0.2660486  0.9323050  0.4568335  )
        24        Li     tau(  24) = (  0.3429486  0.6256223  0.4649336  )
        25        Li     tau(  25) = (  0.4201035  0.3174916  0.4818482  )
        26        Li     tau(  26) = (  0.4981178  0.0065952  0.4943859  )
        27        Li     tau(  27) = (  0.0796238  0.6833112  0.5113304  )
        28        Li     tau(  28) = (  0.1592244  0.3653508  0.5256937  )
        29        Li     tau(  29) = (  0.2357334  0.0600447  0.5395846  )
        30        Li     tau(  30) = (  0.3179440  0.7327751  0.5555731  )
        31        Li     tau(  31) = (  0.3930869  0.4323285  0.5728424  )
        32        Li     tau(  32) = (  0.4759537  0.1009697  0.5877712  )
        33        Li     tau(  33) = (  0.0523500  0.7955428  0.5875814  )
        34        Li     tau(  34) = (  0.1281956  0.4918725  0.6109472  )
        35        Li     tau(  35) = (  0.2182626  0.1313904  0.6315560  )
        36        Li     tau(  36) = (  0.2626439  0.9451846  0.3590379  )
        37        Li     tau(  37) = (  0.3684704  0.5216616  0.3762245  )
        38        Li     tau(  38) = (  0.4561063  0.1708657  0.3905899  )
        39        Li     tau(  39) = (  0.5268779 -0.1031012  0.6409659  )
        40        Li     tau(  40) = (  0.5712173  0.7106434  0.3684548  )
        41        Li     tau(  41) = (  0.6612871  0.3502466  0.3890608  )
        42        Li     tau(  42) = (  0.7371275  0.0465524  0.4124192  )
        43        Li     tau(  43) = (  0.8135240  0.7411289  0.4122314  )
        44        Li     tau(  44) = (  0.8963894  0.4097667  0.4271620  )
        45        Li     tau(  45) = (  0.9715276  0.1093442  0.4444173  )
        46        Li     tau(  46) = (  0.5537386  0.7820771  0.4604145  )
        47        Li     tau(  47) = (  0.6302470  0.4767534  0.4742989  )
        48        Li     tau(  48) = (  0.7098504  0.1588045  0.4886684  )
        49        Li     tau(  49) = (  0.7913462  0.8355371  0.5056097  )
        50        Li     tau(  50) = (  0.8693654  0.5246331  0.5181497  )
        51        Li     tau(  51) = (  0.9465197  0.2164960  0.5350633  )
        52        Li     tau(  52) = (  0.5234106  0.9098246  0.5431509  )
        53        Li     tau(  53) = (  0.6081176  0.5723647  0.5601984  )
        54        Li     tau(  54) = (  0.6855763  0.2623722  0.5795056  )
        55        Li     tau(  55) = (  0.7632647  0.9518848  0.5890499  )
        56        Li     tau(  56) = (  0.8333651  0.6712391  0.6094049  )
        57        Li     tau(  57) = (  0.9210185  0.3204085  0.6237834  )
        58        Li     tau(  58) = (  0.5262094  0.8902292  0.4109559  )
        59        Li     tau(  59) = (  0.6038961  0.5797361  0.4205001  )
        60        Li     tau(  60) = (  0.6813611  0.2697293  0.4398058  )
        61        Li     tau(  61) = (  0.7660520  0.9323139  0.4568343  )
        62        Li     tau(  62) = (  0.8429448  0.6256190  0.4649327  )
        63        Li     tau(  63) = (  0.9201073  0.3174939  0.4818477  )
        64        Li     tau(  64) = (  0.9981178  0.0065881  0.4943842  )
        65        Li     tau(  65) = (  0.5796236  0.6833028  0.5113318  )
        66        Li     tau(  66) = (  0.6592232  0.3653633  0.5256959  )
        67        Li     tau(  67) = (  0.7357341  0.0600323  0.5395869  )
        68        Li     tau(  68) = (  0.8179406  0.7327883  0.5555719  )
        69        Li     tau(  69) = (  0.8930889  0.4323143  0.5728415  )
        70        Li     tau(  70) = (  0.9759465  0.1009772  0.5877702  )
        71        Li     tau(  71) = (  0.5523461  0.7955601  0.5875829  )
        72        Li     tau(  72) = (  0.6281902  0.4918423  0.6109511  )
        73        Li     tau(  73) = (  0.7182608  0.1314354  0.6315551  )
        74        Li     tau(  74) = (  0.7626079  0.9451721  0.3590375  )
        75        Li     tau(  75) = (  0.8684951  0.5216778  0.3762251  )
        76        Li     tau(  76) = (  0.9560980  0.1708500  0.3905853  )

     number of k points=    22  Marzari-Vanderbilt smearing, width (Ry)=  0.0100
                       cart. coord. in units 2pi/alat
        k(    1) = (   0.0000000   0.0000000   0.0000000), wk =   0.0476190
        k(    2) = (   0.0000000   0.1529438   0.0000000), wk =   0.0952381
        k(    3) = (   0.0000000   0.3058876   0.0000000), wk =   0.0952381
        k(    4) = (   0.0000000  -0.4588314   0.0000000), wk =   0.0476190
        k(    5) = (   0.1428571  -0.0327737   0.0000000), wk =   0.0952381
        k(    6) = (   0.1428571   0.1201701   0.0000000), wk =   0.0952381
        k(    7) = (   0.1428571   0.2731139   0.0000000), wk =   0.0952381
        k(    8) = (   0.1428571  -0.4916050   0.0000000), wk =   0.0952381
        k(    9) = (   0.1428571  -0.3386612   0.0000000), wk =   0.0952381
        k(   10) = (   0.1428571  -0.1857175   0.0000000), wk =   0.0952381
        k(   11) = (   0.2857143  -0.0655473   0.0000000), wk =   0.0952381
        k(   12) = (   0.2857143   0.0873964   0.0000000), wk =   0.0952381
        k(   13) = (   0.2857143   0.2403402   0.0000000), wk =   0.0952381
        k(   14) = (   0.2857143  -0.5243787   0.0000000), wk =   0.0952381
        k(   15) = (   0.2857143  -0.3714349   0.0000000), wk =   0.0952381
        k(   16) = (   0.2857143  -0.2184911   0.0000000), wk =   0.0952381
        k(   17) = (   0.4285714  -0.0983210   0.0000000), wk =   0.0952381
        k(   18) = (   0.4285714   0.0546228   0.0000000), wk =   0.0952381
        k(   19) = (   0.4285714   0.2075666   0.0000000), wk =   0.0952381
        k(   20) = (   0.4285714  -0.5571524   0.0000000), wk =   0.0952381
        k(   21) = (   0.4285714  -0.4042086   0.0000000), wk =   0.0952381
        k(   22) = (   0.4285714  -0.2512648   0.0000000), wk =   0.0952381

                       cryst. coord.
        k(    1) = (   0.0000000   0.0000000   0.0000000), wk =   0.0476190
        k(    2) = (   0.0000000   0.1666667   0.0000000), wk =   0.0952381
        k(    3) = (   0.0000000   0.3333333   0.0000000), wk =   0.0952381
        k(    4) = (   0.0000000  -0.5000000   0.0000000), wk =   0.0476190
        k(    5) = (   0.1428571   0.0000000   0.0000000), wk =   0.0952381
        k(    6) = (   0.1428571   0.1666667   0.0000000), wk =   0.0952381
        k(    7) = (   0.1428571   0.3333333   0.0000000), wk =   0.0952381
        k(    8) = (   0.1428571  -0.5000000   0.0000000), wk =   0.0952381
        k(    9) = (   0.1428571  -0.3333333   0.0000000), wk =   0.0952381
        k(   10) = (   0.1428571  -0.1666667   0.0000000), wk =   0.0952381
        k(   11) = (   0.2857143   0.0000000   0.0000000), wk =   0.0952381
        k(   12) = (   0.2857143   0.1666667   0.0000000), wk =   0.0952381
        k(   13) = (   0.2857143   0.3333333   0.0000000), wk =   0.0952381
        k(   14) = (   0.2857143  -0.5000000   0.0000000), wk =   0.0952381
        k(   15) = (   0.2857143  -0.3333333   0.0000000), wk =   0.0952381
        k(   16) = (   0.2857143  -0.1666667   0.0000000), wk =   0.0952381
        k(   17) = (   0.4285714   0.0000000   0.0000000), wk =   0.0952381
        k(   18) = (   0.4285714   0.1666667   0.0000000), wk =   0.0952381
        k(   19) = (   0.4285714   0.3333333   0.0000000), wk =   0.0952381
        k(   20) = (   0.4285714  -0.5000000   0.0000000), wk =   0.0952381
        k(   21) = (   0.4285714  -0.3333333   0.0000000), wk =   0.0952381
        k(   22) = (   0.4285714  -0.1666667   0.0000000), wk =   0.0952381

     Dense  grid: 14473305 G-vectors     FFT dimensions: ( 180, 192, 960)

     Smooth grid:  3661695 G-vectors     FFT dimensions: ( 108, 120, 600)

     Dynamical RAM for                 wfc:       4.66 MB

     Dynamical RAM for     wfc (w. buffer):      55.95 MB

     Dynamical RAM for           str. fact:       0.86 MB

     Dynamical RAM for           local pot:       0.00 MB

     Dynamical RAM for          nlocal pot:      16.58 MB

     Dynamical RAM for                qrad:       0.65 MB

     Dynamical RAM for          rho,v,vnew:       5.75 MB

     Dynamical RAM for               rhoin:       1.92 MB

     Dynamical RAM for            rho*nmix:      13.80 MB

     Dynamical RAM for           G-vectors:       3.34 MB

     Dynamical RAM for          h,s,v(r/c):       5.35 MB

     Dynamical RAM for          <psi|beta>:       1.59 MB

     Dynamical RAM for                 psi:      18.65 MB

     Dynamical RAM for                hpsi:      18.65 MB

     Dynamical RAM for                spsi:      18.65 MB

     Dynamical RAM for      wfcinit/wfcrot:      10.00 MB

     Dynamical RAM for           addusdens:      51.75 MB

     Dynamical RAM for          addusforce:     116.51 MB

     Estimated static dynamical RAM per process >      92.05 MB

     Estimated max dynamical RAM per process >     222.36 MB

     Estimated total dynamical RAM >     107.73 GB

     Initial potential from superposition of free atoms

     starting charge     227.6497, renormalised to     228.0000

     negative rho (up, down):  6.188E-03 0.000E+00
     Starting wfcs are random
     Checking if some PAW data can be deallocated... 

     total cpu time spent up to now is       51.4 secs

     Self-consistent Calculation

     iteration #  1     ecut=    80.00 Ry     beta= 0.20
     Davidson diagonalization with overlap

---- Real-time Memory Report at c_bands before calling an iterative solver
          1418 MiB given to the printing process from OS
             0 MiB allocation reported by mallinfo(arena+hblkhd)
        210410 MiB available memory on the node where the printing process lives
------------------
     c_bands:  3 eigenvalues not converged
     c_bands:  3 eigenvalues not converged
     c_bands:  2 eigenvalues not converged
     ethr =  1.00E-12,  avg # of iterations =135.3

     negative rho (up, down):  4.585E-03 0.000E+00

     total cpu time spent up to now is      766.4 secs

     total energy              =   -1142.86063419 Ry
     estimated scf accuracy    <       0.20231069 Ry

     total charge of GC-SCF    =       0.25909252 e
     the Fermi energy          =      -4.30099815 eV
                        (error :       1.10300185 eV)
     electrostatic embedding   =       0.00000000 Ry
     cavitation energy         =       0.04435275 Ry
     electrolyte free energy   =       0.01630252 Ry
     correction to one-el term =      -0.00000000 Ry

     iteration #  2     ecut=    80.00 Ry     beta= 0.20
     Davidson diagonalization with overlap

---- Real-time Memory Report at c_bands before calling an iterative solver
          1418 MiB given to the printing process from OS
             0 MiB allocation reported by mallinfo(arena+hblkhd)
        207151 MiB available memory on the node where the printing process lives
------------------
     ethr =  1.00E-05,  avg # of iterations = 12.5

     negative rho (up, down):  3.527E-03 0.000E+00

     add environment contribution to local potential

     total cpu time spent up to now is      855.8 secs

     total energy              =   -1143.26593963 Ry
     estimated scf accuracy    <       0.09916159 Ry

     total charge of GC-SCF    =       0.43872652 e
     the Fermi energy          =      -3.86878812 eV
                        (error :       1.53521188 eV)
     electrostatic embedding   =       0.00244985 Ry
     cavitation energy         =       0.04435275 Ry
     electrolyte free energy   =       0.01630252 Ry
     correction to one-el term =      -0.00000000 Ry

     iteration #  3     ecut=    80.00 Ry     beta= 0.20
     Davidson diagonalization with overlap

---- Real-time Memory Report at c_bands before calling an iterative solver
          1418 MiB given to the printing process from OS
             0 MiB allocation reported by mallinfo(arena+hblkhd)
        206805 MiB available memory on the node where the printing process lives
------------------
     ethr =  1.00E-05,  avg # of iterations = 24.9

     negative rho (up, down):  2.737E-03 0.000E+00

     add environment contribution to local potential

     total cpu time spent up to now is      999.8 secs

     total energy              =   -1143.20026579 Ry
     estimated scf accuracy    <       0.04743385 Ry

     total charge of GC-SCF    =       0.87648671 e
     the Fermi energy          =      -3.40571359 eV
                        (error :       1.99828641 eV)
     electrostatic embedding   =      -0.04760418 Ry
     cavitation energy         =       0.04435275 Ry
     electrolyte free energy   =      -0.01189333 Ry
     correction to one-el term =     -13.14157149 Ry

     iteration #  4     ecut=    80.00 Ry     beta= 0.20
     Davidson diagonalization with overlap

---- Real-time Memory Report at c_bands before calling an iterative solver
          1418 MiB given to the printing process from OS
             0 MiB allocation reported by mallinfo(arena+hblkhd)
        206703 MiB available memory on the node where the printing process lives
------------------
     ethr =  1.00E-05,  avg # of iterations = 16.8

     negative rho (up, down):  2.155E-03 0.000E+00

     add environment contribution to local potential

     total cpu time spent up to now is     1123.2 secs

     total energy              =   -1143.13129164 Ry
     estimated scf accuracy    <       0.05144010 Ry

     total charge of GC-SCF    =       1.38599053 e
     the Fermi energy          =      -3.88409759 eV
                        (error :       1.51990241 eV)
     electrostatic embedding   =      -0.06456957 Ry
     cavitation energy         =       0.04435275 Ry
     electrolyte free energy   =      -0.01430079 Ry
     correction to one-el term =     -24.61398424 Ry

     iteration #  5     ecut=    80.00 Ry     beta= 0.20
     Davidson diagonalization with overlap

---- Real-time Memory Report at c_bands before calling an iterative solver
          1418 MiB given to the printing process from OS
             0 MiB allocation reported by mallinfo(arena+hblkhd)
        206701 MiB available memory on the node where the printing process lives
------------------
     ethr =  1.00E-05,  avg # of iterations = 16.9

     negative rho (up, down):  1.728E-03 0.000E+00

     add environment contribution to local potential

     total cpu time spent up to now is     1220.7 secs

     total energy              =   -1142.87557189 Ry
     estimated scf accuracy    <       0.02453212 Ry

     total charge of GC-SCF    =       2.84616725 e
     the Fermi energy          =      -3.58888138 eV
                        (error :       1.81511862 eV)
     electrostatic embedding   =      -0.14172289 Ry
     cavitation energy         =       0.04435275 Ry
     electrolyte free energy   =      -0.01419565 Ry
     correction to one-el term =     -41.62217523 Ry

     iteration #  6     ecut=    80.00 Ry     beta= 0.20
     Davidson diagonalization with overlap

---- Real-time Memory Report at c_bands before calling an iterative solver
          1418 MiB given to the printing process from OS
             0 MiB allocation reported by mallinfo(arena+hblkhd)
        206748 MiB available memory on the node where the printing process lives
------------------
     ethr =  1.00E-05,  avg # of iterations = 21.1

     negative rho (up, down):  1.587E-02 0.000E+00

     add environment contribution to local potential

     total cpu time spent up to now is     1355.6 secs

     total energy              =   -1143.33739293 Ry
     estimated scf accuracy    <       0.00991340 Ry

     total charge of GC-SCF    =       3.96856931 e
     the Fermi energy          =      -3.34881819 eV
                        (error :       2.05518181 eV)
     electrostatic embedding   =      -0.62816787 Ry
     cavitation energy         =       0.04435275 Ry
     electrolyte free energy   =      -0.01776671 Ry
     correction to one-el term =     -87.89613666 Ry

     iteration #  7     ecut=    80.00 Ry     beta= 0.20
     Davidson diagonalization with overlap

---- Real-time Memory Report at c_bands before calling an iterative solver
          1418 MiB given to the printing process from OS
             0 MiB allocation reported by mallinfo(arena+hblkhd)
        206594 MiB available memory on the node where the printing process lives
------------------
     ethr =  4.43E-06,  avg # of iterations = 27.0

     negative rho (up, down):  5.391E-03 0.000E+00

     add environment contribution to local potential

     total cpu time spent up to now is     1503.9 secs

     total energy              =   -1143.66409982 Ry
     estimated scf accuracy    <       0.01435908 Ry

     total charge of GC-SCF    =       4.28263574 e
     the Fermi energy          =      -3.90871425 eV
                        (error :       1.49528575 eV)
     electrostatic embedding   =      -1.21320004 Ry
     cavitation energy         =       0.04435275 Ry
     electrolyte free energy   =      -0.02985720 Ry
     correction to one-el term =    -120.12393655 Ry

     iteration #  8     ecut=    80.00 Ry     beta= 0.20
     Davidson diagonalization with overlap

---- Real-time Memory Report at c_bands before calling an iterative solver
          1418 MiB given to the printing process from OS
             0 MiB allocation reported by mallinfo(arena+hblkhd)
        206429 MiB available memory on the node where the printing process lives
------------------
     ethr =  4.43E-06,  avg # of iterations = 13.3

     negative rho (up, down):  3.226E-03 0.000E+00

     add environment contribution to local potential

     total cpu time spent up to now is     1594.2 secs

     total energy              =   -1144.02312771 Ry
     estimated scf accuracy    <       0.00531641 Ry

     total charge of GC-SCF    =       3.91140415 e
     the Fermi energy          =      -3.93195253 eV
                        (error :       1.47204747 eV)
     electrostatic embedding   =      -1.42400251 Ry
     cavitation energy         =       0.04435275 Ry
     electrolyte free energy   =      -0.03407821 Ry
     correction to one-el term =    -130.32500382 Ry

     iteration #  9     ecut=    80.00 Ry     beta= 0.20
     Davidson diagonalization with overlap

---- Real-time Memory Report at c_bands before calling an iterative solver
          1418 MiB given to the printing process from OS
             0 MiB allocation reported by mallinfo(arena+hblkhd)
        206482 MiB available memory on the node where the printing process lives
------------------
     ethr =  2.37E-06,  avg # of iterations = 18.5

     negative rho (up, down):  2.073E-02 0.000E+00

     add environment contribution to local potential

     total cpu time spent up to now is     1715.0 secs

     total energy              =   -1143.31783304 Ry
     estimated scf accuracy    <       0.00622689 Ry

     total charge of GC-SCF    =       5.34688721 e
     the Fermi energy          =      -3.79074090 eV
                        (error :       1.61325910 eV)
     electrostatic embedding   =      -1.18435246 Ry
     cavitation energy         =       0.04435275 Ry
     electrolyte free energy   =      -0.02954874 Ry
     correction to one-el term =    -119.17437068 Ry

     iteration # 10     ecut=    80.00 Ry     beta= 0.20
     Davidson diagonalization with overlap

---- Real-time Memory Report at c_bands before calling an iterative solver
          1418 MiB given to the printing process from OS
             0 MiB allocation reported by mallinfo(arena+hblkhd)
        206462 MiB available memory on the node where the printing process lives
------------------
     ethr =  2.37E-06,  avg # of iterations = 25.4

     negative rho (up, down):  2.746E-03 0.000E+00

     add environment contribution to local potential

     total cpu time spent up to now is     1856.9 secs

     total energy              =   -1143.75618210 Ry
     estimated scf accuracy    <       0.00720134 Ry

     total charge of GC-SCF    =       5.34334248 e
     the Fermi energy          =      -4.46969540 eV
                        (error :       0.93430460 eV)
     electrostatic embedding   =      -2.23421731 Ry
     cavitation energy         =       0.04435275 Ry
     electrolyte free energy   =      -0.04918403 Ry
     correction to one-el term =    -161.93772955 Ry

     iteration # 11     ecut=    80.00 Ry     beta= 0.20
     Davidson diagonalization with overlap

---- Real-time Memory Report at c_bands before calling an iterative solver
          1418 MiB given to the printing process from OS
             0 MiB allocation reported by mallinfo(arena+hblkhd)
        206081 MiB available memory on the node where the printing process lives
------------------
     ethr =  2.37E-06,  avg # of iterations = 12.3

     negative rho (up, down):  3.515E-02 0.000E+00

     add environment contribution to local potential

     total cpu time spent up to now is     1955.1 secs

     total energy              =   -1143.57451164 Ry
     estimated scf accuracy    <       0.00255951 Ry

     total charge of GC-SCF    =       6.61983103 e
     the Fermi energy          =      -4.37940104 eV
                        (error :       1.02459896 eV)
     electrostatic embedding   =      -2.26678157 Ry
     cavitation energy         =       0.04435275 Ry
     electrolyte free energy   =      -0.04954590 Ry
     correction to one-el term =    -164.28970013 Ry

     iteration # 12     ecut=    80.00 Ry     beta= 0.20
     Davidson diagonalization with overlap

---- Real-time Memory Report at c_bands before calling an iterative solver
          1418 MiB given to the printing process from OS
             0 MiB allocation reported by mallinfo(arena+hblkhd)
        206253 MiB available memory on the node where the printing process lives
------------------
     ethr =  1.16E-06,  avg # of iterations = 33.1

     negative rho (up, down):  4.910E-02 0.000E+00

     add environment contribution to local potential

     total cpu time spent up to now is     2118.5 secs

     total energy              =   -1143.70413811 Ry
     estimated scf accuracy    <       0.00091903 Ry

     total charge of GC-SCF    =       7.01956422 e
     the Fermi energy          =      -4.98850441 eV
                        (error :       0.41549559 eV)
     electrostatic embedding   =      -3.52944735 Ry
     cavitation energy         =       0.04435275 Ry
     electrolyte free energy   =      -0.07489513 Ry
     correction to one-el term =    -202.93196886 Ry

     iteration # 13     ecut=    80.00 Ry     beta= 0.20
     Davidson diagonalization with overlap

---- Real-time Memory Report at c_bands before calling an iterative solver
          1418 MiB given to the printing process from OS
             0 MiB allocation reported by mallinfo(arena+hblkhd)
        206074 MiB available memory on the node where the printing process lives
------------------
     c_bands:  1 eigenvalues not converged
     ethr =  4.16E-07,  avg # of iterations = 43.6

     negative rho (up, down):  1.832E-02 0.000E+00

     add environment contribution to local potential

     total cpu time spent up to now is     2338.5 secs

     total energy              =   -1143.73125682 Ry
     estimated scf accuracy    <       0.00056374 Ry

     total charge of GC-SCF    =       6.84803239 e
     the Fermi energy          =      -5.27604116 eV
                        (error :       0.12795884 eV)
     electrostatic embedding   =      -3.97954651 Ry
     cavitation energy         =       0.04435275 Ry
     electrolyte free energy   =      -0.08506744 Ry
     correction to one-el term =    -215.08945742 Ry

     iteration # 14     ecut=    80.00 Ry     beta= 0.20
     Davidson diagonalization with overlap

---- Real-time Memory Report at c_bands before calling an iterative solver
          1418 MiB given to the printing process from OS
             0 MiB allocation reported by mallinfo(arena+hblkhd)
        206038 MiB available memory on the node where the printing process lives
------------------
     ethr =  2.55E-07,  avg # of iterations = 12.5

     negative rho (up, down):  1.282E-03 0.000E+00

     add environment contribution to local potential

     total cpu time spent up to now is     2431.9 secs

     total energy              =   -1143.71847562 Ry
     estimated scf accuracy    <       0.00032834 Ry

     total charge of GC-SCF    =       6.95385283 e
     the Fermi energy          =      -5.28086959 eV
                        (error :       0.12313041 eV)
     electrostatic embedding   =      -3.78387325 Ry
     cavitation energy         =       0.04435275 Ry
     electrolyte free energy   =      -0.08066030 Ry
     correction to one-el term =    -210.23298364 Ry

     iteration # 15     ecut=    80.00 Ry     beta= 0.20
     Davidson diagonalization with overlap

---- Real-time Memory Report at c_bands before calling an iterative solver
          1418 MiB given to the printing process from OS
             0 MiB allocation reported by mallinfo(arena+hblkhd)
        206159 MiB available memory on the node where the printing process lives
------------------
     ethr =  1.49E-07,  avg # of iterations = 20.9

     negative rho (up, down):  1.089E-03 0.000E+00

     add environment contribution to local potential

     total cpu time spent up to now is     2576.7 secs

     total energy              =   -1143.71913565 Ry
     estimated scf accuracy    <       0.00015364 Ry

     total charge of GC-SCF    =       6.98972681 e
     the Fermi energy          =      -5.42704738 eV
                        (error :       0.02304738 eV)
     electrostatic embedding   =      -3.92131982 Ry
     cavitation energy         =       0.04435275 Ry
     electrolyte free energy   =      -0.08352203 Ry
     correction to one-el term =    -214.14878175 Ry

     iteration # 16     ecut=    80.00 Ry     beta= 0.20
     Davidson diagonalization with overlap

---- Real-time Memory Report at c_bands before calling an iterative solver
          1418 MiB given to the printing process from OS
             0 MiB allocation reported by mallinfo(arena+hblkhd)
        206026 MiB available memory on the node where the printing process lives
------------------
     ethr =  6.95E-08,  avg # of iterations = 12.3

     negative rho (up, down):  1.826E-03 0.000E+00

     add environment contribution to local potential

     total cpu time spent up to now is     2667.1 secs

     total energy              =   -1143.71858510 Ry
     estimated scf accuracy    <       0.00011662 Ry

     total charge of GC-SCF    =       6.98139602 e
     the Fermi energy          =      -5.42643824 eV
                        (error :       0.02243824 eV)
     electrostatic embedding   =      -3.96538067 Ry
     cavitation energy         =       0.04435275 Ry
     electrolyte free energy   =      -0.08446575 Ry
     correction to one-el term =    -215.25948448 Ry

     iteration # 17     ecut=    80.00 Ry     beta= 0.20
     Davidson diagonalization with overlap

---- Real-time Memory Report at c_bands before calling an iterative solver
          1418 MiB given to the printing process from OS
             0 MiB allocation reported by mallinfo(arena+hblkhd)
        206135 MiB available memory on the node where the printing process lives
------------------
     ethr =  5.28E-08,  avg # of iterations = 12.7

     negative rho (up, down):  2.547E-03 0.000E+00

     add environment contribution to local potential

     total cpu time spent up to now is     2766.3 secs

     total energy              =   -1143.71887790 Ry
     estimated scf accuracy    <       0.00005475 Ry

     total charge of GC-SCF    =       6.98175594 e
     the Fermi energy          =      -5.42973733 eV
                        (error :       0.02573733 eV)
     electrostatic embedding   =      -3.94752956 Ry
     cavitation energy         =       0.04435275 Ry
     electrolyte free energy   =      -0.08422111 Ry
     correction to one-el term =    -214.69268985 Ry

     iteration # 18     ecut=    80.00 Ry     beta= 0.20
     Davidson diagonalization with overlap

---- Real-time Memory Report at c_bands before calling an iterative solver
          1418 MiB given to the printing process from OS
             0 MiB allocation reported by mallinfo(arena+hblkhd)
        206144 MiB available memory on the node where the printing process lives
------------------
     ethr =  2.48E-08,  avg # of iterations =  9.2

     negative rho (up, down):  2.933E-03 0.000E+00

     add environment contribution to local potential

     total cpu time spent up to now is     2847.5 secs

     total energy              =   -1143.71887631 Ry
     estimated scf accuracy    <       0.00004184 Ry

     total charge of GC-SCF    =       6.95092867 e
     the Fermi energy          =      -5.42828222 eV
                        (error :       0.02428222 eV)
     electrostatic embedding   =      -3.94453783 Ry
     cavitation energy         =       0.04435275 Ry
     electrolyte free energy   =      -0.08421699 Ry
     correction to one-el term =    -214.57806819 Ry

     iteration # 19     ecut=    80.00 Ry     beta= 0.20
     Davidson diagonalization with overlap

---- Real-time Memory Report at c_bands before calling an iterative solver
          1418 MiB given to the printing process from OS
             0 MiB allocation reported by mallinfo(arena+hblkhd)
        206144 MiB available memory on the node where the printing process lives
------------------
     ethr =  1.89E-08,  avg # of iterations = 12.7

     negative rho (up, down):  5.280E-03 0.000E+00

     add environment contribution to local potential

     total cpu time spent up to now is     2950.4 secs

     total energy              =   -1143.71940071 Ry
     estimated scf accuracy    <       0.00002427 Ry

     total charge of GC-SCF    =       6.97515785 e
     the Fermi energy          =      -5.42212198 eV
                        (error :       0.01812198 eV)
     electrostatic embedding   =      -3.90407905 Ry
     cavitation energy         =       0.04435275 Ry
     electrolyte free energy   =      -0.08339457 Ry
     correction to one-el term =    -213.54343155 Ry

     iteration # 20     ecut=    80.00 Ry     beta= 0.20
     Davidson diagonalization with overlap

---- Real-time Memory Report at c_bands before calling an iterative solver
          1418 MiB given to the printing process from OS
             0 MiB allocation reported by mallinfo(arena+hblkhd)
        206095 MiB available memory on the node where the printing process lives
------------------
     ethr =  1.10E-08,  avg # of iterations = 11.1

     negative rho (up, down):  4.211E-03 0.000E+00

     add environment contribution to local potential

     total cpu time spent up to now is     3040.4 secs

     total energy              =   -1143.71915522 Ry
     estimated scf accuracy    <       0.00001468 Ry

     total charge of GC-SCF    =       6.96753513 e
     the Fermi energy          =      -5.42167952 eV
                        (error :       0.01767952 eV)
     electrostatic embedding   =      -3.93169820 Ry
     cavitation energy         =       0.04435275 Ry
     electrolyte free energy   =      -0.08402101 Ry
     correction to one-el term =    -214.23138399 Ry

     iteration # 21     ecut=    80.00 Ry     beta= 0.20
     Davidson diagonalization with overlap

---- Real-time Memory Report at c_bands before calling an iterative solver
          1418 MiB given to the printing process from OS
             0 MiB allocation reported by mallinfo(arena+hblkhd)
        206134 MiB available memory on the node where the printing process lives
------------------
     ethr =  6.64E-09,  avg # of iterations = 11.1

     negative rho (up, down):  2.514E-03 0.000E+00

     add environment contribution to local potential

     total cpu time spent up to now is     3132.8 secs

     total energy              =   -1143.71942086 Ry
     estimated scf accuracy    <       0.00000506 Ry

     total charge of GC-SCF    =       6.96317969 e
     the Fermi energy          =      -5.41103657 eV
                        (error :       0.00703657 eV)
     electrostatic embedding   =      -3.92351982 Ry
     cavitation energy         =       0.04435275 Ry
     electrolyte free energy   =      -0.08381593 Ry
     correction to one-el term =    -213.99029293 Ry

     iteration # 22     ecut=    80.00 Ry     beta= 0.20
     Davidson diagonalization with overlap

---- Real-time Memory Report at c_bands before calling an iterative solver
          1418 MiB given to the printing process from OS
             0 MiB allocation reported by mallinfo(arena+hblkhd)
        206116 MiB available memory on the node where the printing process lives
------------------
     ethr =  2.29E-09,  avg # of iterations = 12.9

     negative rho (up, down):  8.951E-04 0.000E+00

     add environment contribution to local potential

     total cpu time spent up to now is     3229.4 secs

     total energy              =   -1143.71948115 Ry
     estimated scf accuracy    <       0.00000355 Ry

     total charge of GC-SCF    =       6.94854816 e
     the Fermi energy          =      -5.40835598 eV
                        (error :       0.00435598 eV)
     electrostatic embedding   =      -3.91979280 Ry
     cavitation energy         =       0.04435275 Ry
     electrolyte free energy   =      -0.08370549 Ry
     correction to one-el term =    -213.89518715 Ry

     iteration # 23     ecut=    80.00 Ry     beta= 0.20
     Davidson diagonalization with overlap

---- Real-time Memory Report at c_bands before calling an iterative solver
          1418 MiB given to the printing process from OS
             0 MiB allocation reported by mallinfo(arena+hblkhd)
        206117 MiB available memory on the node where the printing process lives
------------------
     ethr =  1.61E-09,  avg # of iterations = 15.1

     negative rho (up, down):  8.220E-04 0.000E+00

     add environment contribution to local potential

     total cpu time spent up to now is     3349.4 secs

     total energy              =   -1143.71959951 Ry
     estimated scf accuracy    <       0.00000134 Ry

     total charge of GC-SCF    =       6.94373888 e
     the Fermi energy          =      -5.40204063 eV
                        (error :       0.00195937 eV)
     electrostatic embedding   =      -3.90610605 Ry
     cavitation energy         =       0.04435275 Ry
     electrolyte free energy   =      -0.08333459 Ry
     correction to one-el term =    -213.57103297 Ry

     iteration # 24     ecut=    80.00 Ry     beta= 0.20
     Davidson diagonalization with overlap

---- Real-time Memory Report at c_bands before calling an iterative solver
          1418 MiB given to the printing process from OS
             0 MiB allocation reported by mallinfo(arena+hblkhd)
        205907 MiB available memory on the node where the printing process lives
------------------
     ethr =  6.08E-10,  avg # of iterations = 16.7

     negative rho (up, down):  7.635E-04 0.000E+00

     add environment contribution to local potential

     total cpu time spent up to now is     3458.5 secs

     total energy              =   -1143.71965340 Ry
     estimated scf accuracy    <       0.00000105 Ry

     total charge of GC-SCF    =       6.94517049 e
     the Fermi energy          =      -5.39937734 eV
                        (error :       0.00462266 eV)
     electrostatic embedding   =      -3.90100601 Ry
     cavitation energy         =       0.04435275 Ry
     electrolyte free energy   =      -0.08321032 Ry
     correction to one-el term =    -213.44169316 Ry

     iteration # 25     ecut=    80.00 Ry     beta= 0.20
     Davidson diagonalization with overlap

---- Real-time Memory Report at c_bands before calling an iterative solver
          1418 MiB given to the printing process from OS
             0 MiB allocation reported by mallinfo(arena+hblkhd)
        206045 MiB available memory on the node where the printing process lives
------------------
     ethr =  4.77E-10,  avg # of iterations = 15.0

     negative rho (up, down):  7.724E-04 0.000E+00

     add environment contribution to local potential

     total cpu time spent up to now is     3566.4 secs

     total energy              =   -1143.71964525 Ry
     estimated scf accuracy    <       0.00000066 Ry

     total charge of GC-SCF    =       6.94791406 e
     the Fermi energy          =      -5.39977677 eV
                        (error :       0.00422323 eV)
     electrostatic embedding   =      -3.90233012 Ry
     cavitation energy         =       0.04435275 Ry
     electrolyte free energy   =      -0.08324632 Ry
     correction to one-el term =    -213.46844902 Ry

     iteration # 26     ecut=    80.00 Ry     beta= 0.20
     Davidson diagonalization with overlap

---- Real-time Memory Report at c_bands before calling an iterative solver
          1418 MiB given to the printing process from OS
             0 MiB allocation reported by mallinfo(arena+hblkhd)
        206014 MiB available memory on the node where the printing process lives
------------------
     ethr =  2.97E-10,  avg # of iterations = 15.8

     negative rho (up, down):  8.900E-04 0.000E+00

     add environment contribution to local potential

     total cpu time spent up to now is     3672.2 secs

     total energy              =   -1143.71962070 Ry
     estimated scf accuracy    <       0.00000042 Ry

     total charge of GC-SCF    =       6.95062553 e
     the Fermi energy          =      -5.40093626 eV
                        (error :       0.00306374 eV)
     electrostatic embedding   =      -3.90503553 Ry
     cavitation energy         =       0.04435275 Ry
     electrolyte free energy   =      -0.08331620 Ry
     correction to one-el term =    -213.53309185 Ry

     iteration # 27     ecut=    80.00 Ry     beta= 0.20
     Davidson diagonalization with overlap

---- Real-time Memory Report at c_bands before calling an iterative solver
          1418 MiB given to the printing process from OS
             0 MiB allocation reported by mallinfo(arena+hblkhd)
        206021 MiB available memory on the node where the printing process lives
------------------
     ethr =  1.88E-10,  avg # of iterations = 14.3

     negative rho (up, down):  1.053E-03 0.000E+00

     add environment contribution to local potential

     total cpu time spent up to now is     3780.8 secs

     total energy              =   -1143.71957756 Ry
     estimated scf accuracy    <       0.00000024 Ry

     total charge of GC-SCF    =       6.95179415 e
     the Fermi energy          =      -5.40291355 eV
                        (error :       0.00108645 eV)
     electrostatic embedding   =      -3.90761663 Ry
     cavitation energy         =       0.04435275 Ry
     electrolyte free energy   =      -0.08338559 Ry
     correction to one-el term =    -213.60019829 Ry

     iteration # 28     ecut=    80.00 Ry     beta= 0.20
     Davidson diagonalization with overlap

---- Real-time Memory Report at c_bands before calling an iterative solver
          1418 MiB given to the printing process from OS
             0 MiB allocation reported by mallinfo(arena+hblkhd)
        205980 MiB available memory on the node where the printing process lives
------------------
     ethr =  1.07E-10,  avg # of iterations = 14.1

     negative rho (up, down):  9.709E-04 0.000E+00

     add environment contribution to local potential

     total cpu time spent up to now is     3884.8 secs

     total energy              =   -1143.71956856 Ry
     estimated scf accuracy    <       0.00000019 Ry

     total charge of GC-SCF    =       6.95470004 e
     the Fermi energy          =      -5.40340070 eV
                        (error :       0.00059930 eV)
     electrostatic embedding   =      -3.90858906 Ry
     cavitation energy         =       0.04435275 Ry
     electrolyte free energy   =      -0.08341467 Ry
     correction to one-el term =    -213.62346255 Ry

     iteration # 29     ecut=    80.00 Ry     beta= 0.20
     Davidson diagonalization with overlap

---- Real-time Memory Report at c_bands before calling an iterative solver
          1418 MiB given to the printing process from OS
             0 MiB allocation reported by mallinfo(arena+hblkhd)
        205998 MiB available memory on the node where the printing process lives
------------------
     ethr =  8.51E-11,  avg # of iterations = 15.0

     negative rho (up, down):  9.058E-04 0.000E+00

     add environment contribution to local potential

     total cpu time spent up to now is     4004.2 secs

     total energy              =   -1143.71953658 Ry
     estimated scf accuracy    <       0.00000008 Ry

     total charge of GC-SCF    =       6.95524719 e
     the Fermi energy          =      -5.40480732 eV
                        (error :       0.00080732 eV)
     electrostatic embedding   =      -3.91222566 Ry
     cavitation energy         =       0.04435275 Ry
     electrolyte free energy   =      -0.08349164 Ry
     correction to one-el term =    -213.71844200 Ry

     iteration # 30     ecut=    80.00 Ry     beta= 0.20
     Davidson diagonalization with overlap

---- Real-time Memory Report at c_bands before calling an iterative solver
          1418 MiB given to the printing process from OS
             0 MiB allocation reported by mallinfo(arena+hblkhd)
        205773 MiB available memory on the node where the printing process lives
------------------
     ethr =  3.45E-11,  avg # of iterations = 14.1

     negative rho (up, down):  8.875E-04 0.000E+00

     add environment contribution to local potential

     total cpu time spent up to now is     4114.2 secs

     total energy              =   -1143.71953195 Ry
     estimated scf accuracy    <       0.00000006 Ry

     total charge of GC-SCF    =       6.95522237 e
     the Fermi energy          =      -5.40496777 eV
                        (error :       0.00096777 eV)
     electrostatic embedding   =      -3.91309938 Ry
     cavitation energy         =       0.04435275 Ry
     electrolyte free energy   =      -0.08350682 Ry
     correction to one-el term =    -213.74202179 Ry

     iteration # 31     ecut=    80.00 Ry     beta= 0.20
     Davidson diagonalization with overlap

---- Real-time Memory Report at c_bands before calling an iterative solver
          1418 MiB given to the printing process from OS
             0 MiB allocation reported by mallinfo(arena+hblkhd)
        205986 MiB available memory on the node where the printing process lives
------------------
     ethr =  2.72E-11,  avg # of iterations =  9.0

     negative rho (up, down):  8.804E-04 0.000E+00

     add environment contribution to local potential

     total cpu time spent up to now is     4193.4 secs

     total energy              =   -1143.71953392 Ry
     estimated scf accuracy    <       0.00000005 Ry

     total charge of GC-SCF    =       6.95476237 e
     the Fermi energy          =      -5.40483213 eV
                        (error :       0.00083213 eV)
     electrostatic embedding   =      -3.91311235 Ry
     cavitation energy         =       0.04435275 Ry
     electrolyte free energy   =      -0.08350636 Ry
     correction to one-el term =    -213.74285692 Ry

     iteration # 32     ecut=    80.00 Ry     beta= 0.20
     Davidson diagonalization with overlap

---- Real-time Memory Report at c_bands before calling an iterative solver
          1418 MiB given to the printing process from OS
             0 MiB allocation reported by mallinfo(arena+hblkhd)
        205966 MiB available memory on the node where the printing process lives
------------------
     ethr =  2.10E-11,  avg # of iterations = 14.7

     negative rho (up, down):  8.705E-04 0.000E+00

     add environment contribution to local potential

     total cpu time spent up to now is     4297.1 secs

     total energy              =   -1143.71954377 Ry
     estimated scf accuracy    <       0.00000003 Ry

     total charge of GC-SCF    =       6.95406499 e
     the Fermi energy          =      -5.40434720 eV
                        (error :       0.00034720 eV)
     electrostatic embedding   =      -3.91261202 Ry
     cavitation energy         =       0.04435275 Ry
     electrolyte free energy   =      -0.08349434 Ry
     correction to one-el term =    -213.72997959 Ry

     iteration # 33     ecut=    80.00 Ry     beta= 0.20
     Davidson diagonalization with overlap

---- Real-time Memory Report at c_bands before calling an iterative solver
          1418 MiB given to the printing process from OS
             0 MiB allocation reported by mallinfo(arena+hblkhd)
        205959 MiB available memory on the node where the printing process lives
------------------
     ethr =  1.15E-11,  avg # of iterations = 12.5

     negative rho (up, down):  8.632E-04 0.000E+00

     add environment contribution to local potential

     total cpu time spent up to now is     4392.1 secs

     total energy              =   -1143.71955144 Ry
     estimated scf accuracy    <       0.00000001 Ry

     total charge of GC-SCF    =       6.95361253 e
     the Fermi energy          =      -5.40410047 eV
                        (error :       0.00010047 eV)
     electrostatic embedding   =      -3.91182433 Ry
     cavitation energy         =       0.04435275 Ry
     electrolyte free energy   =      -0.08347618 Ry
     correction to one-el term =    -213.70969855 Ry

     iteration # 34     ecut=    80.00 Ry     beta= 0.20
     Davidson diagonalization with overlap

---- Real-time Memory Report at c_bands before calling an iterative solver
          1418 MiB given to the printing process from OS
             0 MiB allocation reported by mallinfo(arena+hblkhd)
        205987 MiB available memory on the node where the printing process lives
------------------
     ethr =  6.66E-12,  avg # of iterations = 14.5

     negative rho (up, down):  8.681E-04 0.000E+00

     add environment contribution to local potential

     total cpu time spent up to now is     4495.3 secs

     total energy              =   -1143.71955429 Ry
     estimated scf accuracy    <          9.4E-09 Ry

     total charge of GC-SCF    =       6.95292372 e
     the Fermi energy          =      -5.40394570 eV
                        (error :       0.00005430 eV)
     electrostatic embedding   =      -3.91132401 Ry
     cavitation energy         =       0.04435275 Ry
     electrolyte free energy   =      -0.08346450 Ry
     correction to one-el term =    -213.69748025 Ry

     iteration # 35     ecut=    80.00 Ry     beta= 0.20
     Davidson diagonalization with overlap

---- Real-time Memory Report at c_bands before calling an iterative solver
          1418 MiB given to the printing process from OS
             0 MiB allocation reported by mallinfo(arena+hblkhd)
        205903 MiB available memory on the node where the printing process lives
------------------
     ethr =  4.25E-12,  avg # of iterations = 14.5

     negative rho (up, down):  8.732E-04 0.000E+00

     add environment contribution to local potential

     total cpu time spent up to now is     4605.6 secs

     total energy              =   -1143.71956116 Ry
     estimated scf accuracy    <          5.0E-09 Ry

     total charge of GC-SCF    =       6.95283285 e
     the Fermi energy          =      -5.40368339 eV
                        (error :       0.00031661 eV)
     electrostatic embedding   =      -3.91048748 Ry
     cavitation energy         =       0.04435275 Ry
     electrolyte free energy   =      -0.08344634 Ry
     correction to one-el term =    -213.67575401 Ry

     iteration # 36     ecut=    80.00 Ry     beta= 0.20
     Davidson diagonalization with overlap

---- Real-time Memory Report at c_bands before calling an iterative solver
          1418 MiB given to the printing process from OS
             0 MiB allocation reported by mallinfo(arena+hblkhd)
        205911 MiB available memory on the node where the printing process lives
------------------
     ethr =  2.26E-12,  avg # of iterations = 11.2

     negative rho (up, down):  8.710E-04 0.000E+00

     add environment contribution to local potential

     total cpu time spent up to now is     4696.8 secs

     total energy              =   -1143.71956328 Ry
     estimated scf accuracy    <          3.5E-09 Ry

     total charge of GC-SCF    =       6.95285797 e
     the Fermi energy          =      -5.40360232 eV
                        (error :       0.00039768 eV)
     electrostatic embedding   =      -3.91035114 Ry
     cavitation energy         =       0.04435275 Ry
     electrolyte free energy   =      -0.08344380 Ry
     correction to one-el term =    -213.67170365 Ry

     iteration # 37     ecut=    80.00 Ry     beta= 0.20
     Davidson diagonalization with overlap

---- Real-time Memory Report at c_bands before calling an iterative solver
          1418 MiB given to the printing process from OS
             0 MiB allocation reported by mallinfo(arena+hblkhd)
        205954 MiB available memory on the node where the printing process lives
------------------
     ethr =  1.56E-12,  avg # of iterations = 13.9

     negative rho (up, down):  8.685E-04 0.000E+00

     add environment contribution to local potential

     total cpu time spent up to now is     4798.9 secs

     total energy              =   -1143.71956309 Ry
     estimated scf accuracy    <          2.3E-09 Ry

     total charge of GC-SCF    =       6.95285911 e
     the Fermi energy          =      -5.40361860 eV
                        (error :       0.00038140 eV)
     electrostatic embedding   =      -3.91036559 Ry
     cavitation energy         =       0.04435275 Ry
     electrolyte free energy   =      -0.08344440 Ry
     correction to one-el term =    -213.67176064 Ry

     iteration # 38     ecut=    80.00 Ry     beta= 0.20
     Davidson diagonalization with overlap

---- Real-time Memory Report at c_bands before calling an iterative solver
          1418 MiB given to the printing process from OS
             0 MiB allocation reported by mallinfo(arena+hblkhd)
        205931 MiB available memory on the node where the printing process lives
------------------
     ethr =  1.05E-12,  avg # of iterations = 14.1

     negative rho (up, down):  8.774E-04 0.000E+00

     add environment contribution to local potential

     total cpu time spent up to now is     4897.4 secs

     total energy              =   -1143.71956215 Ry
     estimated scf accuracy    <          1.4E-09 Ry

     total charge of GC-SCF    =       6.95307529 e
     the Fermi energy          =      -5.40367241 eV
                        (error :       0.00032759 eV)
     electrostatic embedding   =      -3.91034875 Ry
     cavitation energy         =       0.04435275 Ry
     electrolyte free energy   =      -0.08344441 Ry
     correction to one-el term =    -213.67124017 Ry

     iteration # 39     ecut=    80.00 Ry     beta= 0.20
     Davidson diagonalization with overlap

---- Real-time Memory Report at c_bands before calling an iterative solver
          1418 MiB given to the printing process from OS
             0 MiB allocation reported by mallinfo(arena+hblkhd)
        205962 MiB available memory on the node where the printing process lives
------------------
     ethr =  6.49E-13,  avg # of iterations = 15.5

     negative rho (up, down):  8.783E-04 0.000E+00

     add environment contribution to local potential

     total cpu time spent up to now is     5016.4 secs

     total energy              =   -1143.71956010 Ry
     estimated scf accuracy    <          6.9E-10 Ry

     total charge of GC-SCF    =       6.95318729 e
     the Fermi energy          =      -5.40377248 eV
                        (error :       0.00022752 eV)
     electrostatic embedding   =      -3.91055422 Ry
     cavitation energy         =       0.04435275 Ry
     electrolyte free energy   =      -0.08344990 Ry
     correction to one-el term =    -213.67620334 Ry

     iteration # 40     ecut=    80.00 Ry     beta= 0.20
     Davidson diagonalization with overlap

---- Real-time Memory Report at c_bands before calling an iterative solver
          1418 MiB given to the printing process from OS
             0 MiB allocation reported by mallinfo(arena+hblkhd)
        205848 MiB available memory on the node where the printing process lives
------------------
     ethr =  3.13E-13,  avg # of iterations = 12.8

     negative rho (up, down):  8.769E-04 0.000E+00

     add environment contribution to local potential

     total cpu time spent up to now is     5118.4 secs

     total energy              =   -1143.71955853 Ry
     estimated scf accuracy    <          5.3E-10 Ry

     total charge of GC-SCF    =       6.95327813 e
     the Fermi energy          =      -5.40384337 eV
                        (error :       0.00015663 eV)
     electrostatic embedding   =      -3.91068654 Ry
     cavitation energy         =       0.04435275 Ry
     electrolyte free energy   =      -0.08345285 Ry
     correction to one-el term =    -213.67970524 Ry

     iteration # 41     ecut=    80.00 Ry     beta= 0.20
     Davidson diagonalization with overlap

---- Real-time Memory Report at c_bands before calling an iterative solver
          1418 MiB given to the printing process from OS
             0 MiB allocation reported by mallinfo(arena+hblkhd)
        205924 MiB available memory on the node where the printing process lives
------------------
     ethr =  2.38E-13,  avg # of iterations = 12.9

     negative rho (up, down):  8.786E-04 0.000E+00

     add environment contribution to local potential

     total cpu time spent up to now is     5219.2 secs

     total energy              =   -1143.71955683 Ry
     estimated scf accuracy    <          3.2E-10 Ry

     total charge of GC-SCF    =       6.95331249 e
     the Fermi energy          =      -5.40391195 eV
                        (error :       0.00008805 eV)
     electrostatic embedding   =      -3.91080703 Ry
     cavitation energy         =       0.04435275 Ry
     electrolyte free energy   =      -0.08345530 Ry
     correction to one-el term =    -213.68306074 Ry

     iteration # 42     ecut=    80.00 Ry     beta= 0.20
     Davidson diagonalization with overlap

---- Real-time Memory Report at c_bands before calling an iterative solver
          1418 MiB given to the printing process from OS
             0 MiB allocation reported by mallinfo(arena+hblkhd)
        205982 MiB available memory on the node where the printing process lives
------------------
     ethr =  1.47E-13,  avg # of iterations = 12.2

     negative rho (up, down):  8.793E-04 0.000E+00

     add environment contribution to local potential

     total cpu time spent up to now is     5309.3 secs

     total energy              =   -1143.71955641 Ry
     estimated scf accuracy    <          1.8E-10 Ry

     total charge of GC-SCF    =       6.95331822 e
     the Fermi energy          =      -5.40393484 eV
                        (error :       0.00006516 eV)
     electrostatic embedding   =      -3.91084432 Ry
     cavitation energy         =       0.04435275 Ry
     electrolyte free energy   =      -0.08345619 Ry
     correction to one-el term =    -213.68401174 Ry

     iteration # 43     ecut=    80.00 Ry     beta= 0.20
     Davidson diagonalization with overlap

---- Real-time Memory Report at c_bands before calling an iterative solver
          1418 MiB given to the printing process from OS
             0 MiB allocation reported by mallinfo(arena+hblkhd)
        205996 MiB available memory on the node where the printing process lives
------------------
     ethr =  1.00E-13,  avg # of iterations =  8.5

     negative rho (up, down):  8.785E-04 0.000E+00

     add environment contribution to local potential

     total cpu time spent up to now is     5384.3 secs

     total energy              =   -1143.71955648 Ry
     estimated scf accuracy    <          1.0E-10 Ry

     total charge of GC-SCF    =       6.95335183 e
     the Fermi energy          =      -5.40393220 eV
                        (error :       0.00006780 eV)
     electrostatic embedding   =      -3.91085217 Ry
     cavitation energy         =       0.04435275 Ry
     electrolyte free energy   =      -0.08345634 Ry
     correction to one-el term =    -213.68420990 Ry

     iteration # 44     ecut=    80.00 Ry     beta= 0.20
     Davidson diagonalization with overlap

---- Real-time Memory Report at c_bands before calling an iterative solver
          1418 MiB given to the printing process from OS
             0 MiB allocation reported by mallinfo(arena+hblkhd)
        205931 MiB available memory on the node where the printing process lives
------------------
     ethr =  1.00E-13,  avg # of iterations = 10.6

     negative rho (up, down):  8.769E-04 0.000E+00

     add environment contribution to local potential

     total cpu time spent up to now is     5467.9 secs

     total energy              =   -1143.71955621 Ry
     estimated scf accuracy    <          7.0E-11 Ry

     total charge of GC-SCF    =       6.95339359 e
     the Fermi energy          =      -5.40394462 eV
                        (error :       0.00005538 eV)
     electrostatic embedding   =      -3.91089380 Ry
     cavitation energy         =       0.04435275 Ry
     electrolyte free energy   =      -0.08345723 Ry
     correction to one-el term =    -213.68527816 Ry

     iteration # 45     ecut=    80.00 Ry     beta= 0.20
     Davidson diagonalization with overlap

---- Real-time Memory Report at c_bands before calling an iterative solver
          1418 MiB given to the printing process from OS
             0 MiB allocation reported by mallinfo(arena+hblkhd)
        205943 MiB available memory on the node where the printing process lives
------------------
     ethr =  1.00E-13,  avg # of iterations = 13.7

     negative rho (up, down):  8.759E-04 0.000E+00

     add environment contribution to local potential

     total cpu time spent up to now is     5564.8 secs

     total energy              =   -1143.71955567 Ry
     estimated scf accuracy    <          4.3E-11 Ry

     total charge of GC-SCF    =       6.95343502 e
     the Fermi energy          =      -5.40396931 eV
                        (error :       0.00003069 eV)
     electrostatic embedding   =      -3.91094641 Ry
     cavitation energy         =       0.04435275 Ry
     electrolyte free energy   =      -0.08345834 Ry
     correction to one-el term =    -213.68665689 Ry

     iteration # 46     ecut=    80.00 Ry     beta= 0.20
     Davidson diagonalization with overlap

---- Real-time Memory Report at c_bands before calling an iterative solver
          1418 MiB given to the printing process from OS
             0 MiB allocation reported by mallinfo(arena+hblkhd)
        205987 MiB available memory on the node where the printing process lives
------------------
     ethr =  1.00E-13,  avg # of iterations = 10.5

     negative rho (up, down):  8.762E-04 0.000E+00

     add environment contribution to local potential

     total cpu time spent up to now is     5646.7 secs

     total energy              =   -1143.71955515 Ry
     estimated scf accuracy    <          1.0E-11 Ry

     total charge of GC-SCF    =       6.95344679 e
     the Fermi energy          =      -5.40399191 eV
                        (error :       0.00000809 eV)
     electrostatic embedding   =      -3.91099836 Ry
     cavitation energy         =       0.04435275 Ry
     electrolyte free energy   =      -0.08345945 Ry
     correction to one-el term =    -213.68803413 Ry

     iteration # 47     ecut=    80.00 Ry     beta= 0.20
     Davidson diagonalization with overlap

---- Real-time Memory Report at c_bands before calling an iterative solver
          1418 MiB given to the printing process from OS
             0 MiB allocation reported by mallinfo(arena+hblkhd)
        205974 MiB available memory on the node where the printing process lives
------------------
     ethr =  1.00E-13,  avg # of iterations =  3.3

     negative rho (up, down):  8.767E-04 0.000E+00

     add environment contribution to local potential

     total cpu time spent up to now is     5702.0 secs

     total energy              =   -1143.71955507 Ry
     estimated scf accuracy    <          6.0E-12 Ry

     total charge of GC-SCF    =       6.95346051 e
     the Fermi energy          =      -5.40399618 eV
                        (error :       0.00000382 eV)
     electrostatic embedding   =      -3.91101143 Ry
     cavitation energy         =       0.04435275 Ry
     electrolyte free energy   =      -0.08345975 Ry
     correction to one-el term =    -213.68836703 Ry

     iteration # 48     ecut=    80.00 Ry     beta= 0.20
     Davidson diagonalization with overlap

---- Real-time Memory Report at c_bands before calling an iterative solver
          1418 MiB given to the printing process from OS
             0 MiB allocation reported by mallinfo(arena+hblkhd)
        205937 MiB available memory on the node where the printing process lives
------------------
     ethr =  1.00E-13,  avg # of iterations = 11.4

     negative rho (up, down):  8.767E-04 0.000E+00

     add environment contribution to local potential

     total cpu time spent up to now is     5780.0 secs

     total energy              =   -1143.71955490 Ry
     estimated scf accuracy    <          2.7E-12 Ry

     total charge of GC-SCF    =       6.95346030 e
     the Fermi energy          =      -5.40400447 eV
                        (error :       0.00000447 eV)
     electrostatic embedding   =      -3.91102613 Ry
     cavitation energy         =       0.04435275 Ry
     electrolyte free energy   =      -0.08346011 Ry
     correction to one-el term =    -213.68875439 Ry

     iteration # 49     ecut=    80.00 Ry     beta= 0.20
     Davidson diagonalization with overlap

---- Real-time Memory Report at c_bands before calling an iterative solver
          1418 MiB given to the printing process from OS
             0 MiB allocation reported by mallinfo(arena+hblkhd)
        205937 MiB available memory on the node where the printing process lives
------------------
     ethr =  1.00E-13,  avg # of iterations =  3.0

     negative rho (up, down):  8.769E-04 0.000E+00

     add environment contribution to local potential

     total cpu time spent up to now is     5834.0 secs

     total energy              =   -1143.71955489 Ry
     estimated scf accuracy    <          1.9E-12 Ry

     total charge of GC-SCF    =       6.95345693 e
     the Fermi energy          =      -5.40400547 eV
                        (error :       0.00000547 eV)
     electrostatic embedding   =      -3.91102523 Ry
     cavitation energy         =       0.04435275 Ry
     electrolyte free energy   =      -0.08346010 Ry
     correction to one-el term =    -213.68873132 Ry

     iteration # 50     ecut=    80.00 Ry     beta= 0.20
     Davidson diagonalization with overlap

---- Real-time Memory Report at c_bands before calling an iterative solver
          1418 MiB given to the printing process from OS
             0 MiB allocation reported by mallinfo(arena+hblkhd)
        205952 MiB available memory on the node where the printing process lives
------------------
     ethr =  1.00E-13,  avg # of iterations =  5.7

     negative rho (up, down):  8.770E-04 0.000E+00

     add environment contribution to local potential

     total cpu time spent up to now is     5897.7 secs

     total energy              =   -1143.71955493 Ry
     estimated scf accuracy    <          8.5E-13 Ry

     total charge of GC-SCF    =       6.95345883 e
     the Fermi energy          =      -5.40400387 eV
                        (error :       0.00000387 eV)
     electrostatic embedding   =      -3.91101977 Ry
     cavitation energy         =       0.04435275 Ry
     electrolyte free energy   =      -0.08346001 Ry
     correction to one-el term =    -213.68858153 Ry

     iteration # 51     ecut=    80.00 Ry     beta= 0.20
     Davidson diagonalization with overlap

---- Real-time Memory Report at c_bands before calling an iterative solver
          1418 MiB given to the printing process from OS
             0 MiB allocation reported by mallinfo(arena+hblkhd)
[...]
     atom   18 type  1   force =     0.00000000    0.00000000    0.00000000
     atom   19 type  1   force =     0.00000000    0.00000000    0.00000000
     atom   20 type  1   force =     0.00000000    0.00000000    0.00000000
     atom   21 type  1   force =     0.00000000    0.00000000    0.00000000
     atom   22 type  1   force =     0.00000000    0.00000000    0.00000000
     atom   23 type  1   force =     0.00000000    0.00000000    0.00000000
     atom   24 type  1   force =     0.00000000    0.00000000    0.00000000
     atom   25 type  1   force =     0.00000000    0.00000000    0.00000000
     atom   26 type  1   force =     0.00000000    0.00000000    0.00000000
     atom   27 type  1   force =     0.00000000    0.00000000    0.00000000
     atom   28 type  1   force =     0.00000000    0.00000000    0.00000000
     atom   29 type  1   force =     0.00000000    0.00000000    0.00000000
     atom   30 type  1   force =     0.00000000    0.00000000    0.00000000
     atom   31 type  1   force =     0.00000000    0.00000000    0.00000000
     atom   32 type  1   force =     0.00000000    0.00000000    0.00000000
     atom   33 type  1   force =     0.00000000    0.00000000    0.00000000
     atom   34 type  1   force =     0.00000000    0.00000000    0.00000000
     atom   35 type  1   force =     0.00000000    0.00000000    0.00000000
     atom   36 type  1   force =     0.00000000    0.00000000    0.00000000
     atom   37 type  1   force =     0.00000000    0.00000000    0.00000000
     atom   38 type  1   force =     0.00000000    0.00000000    0.00000000
     atom   39 type  1   force =     0.00000000    0.00000000    0.00000000
     atom   40 type  1   force =     0.00000000    0.00000000    0.00000000
     atom   41 type  1   force =     0.00000000    0.00000000    0.00000000
     atom   42 type  1   force =     0.00000000    0.00000000    0.00000000
     atom   43 type  1   force =     0.00000000    0.00000000    0.00000000
     atom   44 type  1   force =     0.00000000    0.00000000    0.00000000
     atom   45 type  1   force =     0.00000000    0.00000000    0.00000000
     atom   46 type  1   force =     0.00000000    0.00000000    0.00000000
     atom   47 type  1   force =     0.00000000    0.00000000    0.00000000
     atom   48 type  1   force =     0.00000000    0.00000000    0.00000000
     atom   49 type  1   force =     0.00000000    0.00000000    0.00000000
     atom   50 type  1   force =     0.00000000    0.00000000    0.00000000
     atom   51 type  1   force =     0.00000000    0.00000000    0.00000000
     atom   52 type  1   force =     0.00000000    0.00000000    0.00000000
     atom   53 type  1   force =     0.00000000    0.00000000    0.00000000
     atom   54 type  1   force =     0.00000000    0.00000000    0.00000000
     atom   55 type  1   force =     0.00000000    0.00000000    0.00000000
     atom   56 type  1   force =     0.00000000    0.00000000    0.00000000
     atom   57 type  1   force =     0.00000000    0.00000000    0.00000000
     atom   58 type  1   force =     0.00000000    0.00000000    0.00000000
     atom   59 type  1   force =     0.00000000    0.00000000    0.00000000
     atom   60 type  1   force =     0.00000000    0.00000000    0.00000000
     atom   61 type  1   force =     0.00000000    0.00000000    0.00000000
     atom   62 type  1   force =     0.00000000    0.00000000    0.00000000
     atom   63 type  1   force =     0.00000000    0.00000000    0.00000000
     atom   64 type  1   force =     0.00000000    0.00000000    0.00000000
     atom   65 type  1   force =     0.00000000    0.00000000    0.00000000
     atom   66 type  1   force =     0.00000000    0.00000000    0.00000000
     atom   67 type  1   force =     0.00000000    0.00000000    0.00000000
     atom   68 type  1   force =     0.00000000    0.00000000    0.00000000
     atom   69 type  1   force =     0.00000000    0.00000000    0.00000000
     atom   70 type  1   force =     0.00000000    0.00000000    0.00000000
     atom   71 type  1   force =     0.00000000    0.00000000    0.00000000
     atom   72 type  1   force =     0.00000000    0.00000000    0.00000000
     atom   73 type  1   force =     0.00000000    0.00000000    0.00000000
     atom   74 type  1   force =     0.00000000    0.00000000    0.00000000
     atom   75 type  1   force =     0.00000000    0.00000000    0.00000000
     atom   76 type  1   force =     0.00000000    0.00000000    0.00000000
     The Hubbard contrib.    to forces
     atom    1 type  1   force =     0.00000000    0.00000000    0.00000000
     atom    2 type  1   force =     0.00000000    0.00000000    0.00000000
     atom    3 type  1   force =     0.00000000    0.00000000    0.00000000
     atom    4 type  1   force =     0.00000000    0.00000000    0.00000000
     atom    5 type  1   force =     0.00000000    0.00000000    0.00000000
     atom    6 type  1   force =     0.00000000    0.00000000    0.00000000
     atom    7 type  1   force =     0.00000000    0.00000000    0.00000000
     atom    8 type  1   force =     0.00000000    0.00000000    0.00000000
     atom    9 type  1   force =     0.00000000    0.00000000    0.00000000
     atom   10 type  1   force =     0.00000000    0.00000000    0.00000000
     atom   11 type  1   force =     0.00000000    0.00000000    0.00000000
     atom   12 type  1   force =     0.00000000    0.00000000    0.00000000
     atom   13 type  1   force =     0.00000000    0.00000000    0.00000000
     atom   14 type  1   force =     0.00000000    0.00000000    0.00000000
     atom   15 type  1   force =     0.00000000    0.00000000    0.00000000
     atom   16 type  1   force =     0.00000000    0.00000000    0.00000000
     atom   17 type  1   force =     0.00000000    0.00000000    0.00000000
     atom   18 type  1   force =     0.00000000    0.00000000    0.00000000
     atom   19 type  1   force =     0.00000000    0.00000000    0.00000000
     atom   20 type  1   force =     0.00000000    0.00000000    0.00000000
     atom   21 type  1   force =     0.00000000    0.00000000    0.00000000
     atom   22 type  1   force =     0.00000000    0.00000000    0.00000000
     atom   23 type  1   force =     0.00000000    0.00000000    0.00000000
     atom   24 type  1   force =     0.00000000    0.00000000    0.00000000
     atom   25 type  1   force =     0.00000000    0.00000000    0.00000000
     atom   26 type  1   force =     0.00000000    0.00000000    0.00000000
     atom   27 type  1   force =     0.00000000    0.00000000    0.00000000
     atom   28 type  1   force =     0.00000000    0.00000000    0.00000000
     atom   29 type  1   force =     0.00000000    0.00000000    0.00000000
     atom   30 type  1   force =     0.00000000    0.00000000    0.00000000
     atom   31 type  1   force =     0.00000000    0.00000000    0.00000000
     atom   32 type  1   force =     0.00000000    0.00000000    0.00000000
     atom   33 type  1   force =     0.00000000    0.00000000    0.00000000
     atom   34 type  1   force =     0.00000000    0.00000000    0.00000000
     atom   35 type  1   force =     0.00000000    0.00000000    0.00000000
     atom   36 type  1   force =     0.00000000    0.00000000    0.00000000
     atom   37 type  1   force =     0.00000000    0.00000000    0.00000000
     atom   38 type  1   force =     0.00000000    0.00000000    0.00000000
     atom   39 type  1   force =     0.00000000    0.00000000    0.00000000
     atom   40 type  1   force =     0.00000000    0.00000000    0.00000000
     atom   41 type  1   force =     0.00000000    0.00000000    0.00000000
     atom   42 type  1   force =     0.00000000    0.00000000    0.00000000
     atom   43 type  1   force =     0.00000000    0.00000000    0.00000000
     atom   44 type  1   force =     0.00000000    0.00000000    0.00000000
     atom   45 type  1   force =     0.00000000    0.00000000    0.00000000
     atom   46 type  1   force =     0.00000000    0.00000000    0.00000000
     atom   47 type  1   force =     0.00000000    0.00000000    0.00000000
     atom   48 type  1   force =     0.00000000    0.00000000    0.00000000
     atom   49 type  1   force =     0.00000000    0.00000000    0.00000000
     atom   50 type  1   force =     0.00000000    0.00000000    0.00000000
     atom   51 type  1   force =     0.00000000    0.00000000    0.00000000
     atom   52 type  1   force =     0.00000000    0.00000000    0.00000000
     atom   53 type  1   force =     0.00000000    0.00000000    0.00000000
     atom   54 type  1   force =     0.00000000    0.00000000    0.00000000
     atom   55 type  1   force =     0.00000000    0.00000000    0.00000000
     atom   56 type  1   force =     0.00000000    0.00000000    0.00000000
     atom   57 type  1   force =     0.00000000    0.00000000    0.00000000
     atom   58 type  1   force =     0.00000000    0.00000000    0.00000000
     atom   59 type  1   force =     0.00000000    0.00000000    0.00000000
     atom   60 type  1   force =     0.00000000    0.00000000    0.00000000
     atom   61 type  1   force =     0.00000000    0.00000000    0.00000000
     atom   62 type  1   force =     0.00000000    0.00000000    0.00000000
     atom   63 type  1   force =     0.00000000    0.00000000    0.00000000
     atom   64 type  1   force =     0.00000000    0.00000000    0.00000000
     atom   65 type  1   force =     0.00000000    0.00000000    0.00000000
     atom   66 type  1   force =     0.00000000    0.00000000    0.00000000
     atom   67 type  1   force =     0.00000000    0.00000000    0.00000000
     atom   68 type  1   force =     0.00000000    0.00000000    0.00000000
     atom   69 type  1   force =     0.00000000    0.00000000    0.00000000
     atom   70 type  1   force =     0.00000000    0.00000000    0.00000000
     atom   71 type  1   force =     0.00000000    0.00000000    0.00000000
     atom   72 type  1   force =     0.00000000    0.00000000    0.00000000
     atom   73 type  1   force =     0.00000000    0.00000000    0.00000000
     atom   74 type  1   force =     0.00000000    0.00000000    0.00000000
     atom   75 type  1   force =     0.00000000    0.00000000    0.00000000
     atom   76 type  1   force =     0.00000000    0.00000000    0.00000000
     The SCF correction term to forces
     atom    1 type  1   force =    -0.00000000   -0.00000000    0.00000000
     atom    2 type  1   force =     0.00000000   -0.00000000    0.00000000
     atom    3 type  1   force =     0.00000000   -0.00000000   -0.00000000
     atom    4 type  1   force =    -0.00000000    0.00000000   -0.00000000
     atom    5 type  1   force =    -0.00000000   -0.00000000    0.00000000
     atom    6 type  1   force =    -0.00000000    0.00000000   -0.00000000
     atom    7 type  1   force =    -0.00000000   -0.00000000   -0.00000000
     atom    8 type  1   force =     0.00000000    0.00000000   -0.00000000
     atom    9 type  1   force =    -0.00000000    0.00000000   -0.00000000
     atom   10 type  1   force =    -0.00000000   -0.00000000   -0.00000000
     atom   11 type  1   force =    -0.00000000    0.00000000   -0.00000000
     atom   12 type  1   force =    -0.00000000    0.00000000   -0.00000000
     atom   13 type  1   force =     0.00000000   -0.00000000    0.00000000
     atom   14 type  1   force =     0.00000000    0.00000000   -0.00000000
     atom   15 type  1   force =     0.00000000    0.00000000    0.00000000
     atom   16 type  1   force =     0.00000000   -0.00000000    0.00000000
     atom   17 type  1   force =    -0.00000000    0.00000000   -0.00000000
     atom   18 type  1   force =     0.00000000   -0.00000000    0.00000000
     atom   19 type  1   force =    -0.00000000    0.00000000   -0.00000000
     atom   20 type  1   force =     0.00000000   -0.00000000    0.00000000
     atom   21 type  1   force =     0.00000000    0.00000000   -0.00000000
     atom   22 type  1   force =    -0.00000000   -0.00000000   -0.00000000
     atom   23 type  1   force =     0.00000000   -0.00000000   -0.00000000
     atom   24 type  1   force =     0.00000000    0.00000000   -0.00000000
     atom   25 type  1   force =     0.00000000   -0.00000000   -0.00000000
     atom   26 type  1   force =    -0.00000000   -0.00000000   -0.00000000
     atom   27 type  1   force =    -0.00000000    0.00000000   -0.00000000
     atom   28 type  1   force =     0.00000000   -0.00000000   -0.00000000
     atom   29 type  1   force =    -0.00000000   -0.00000000    0.00000000
     atom   30 type  1   force =     0.00000000    0.00000000   -0.00000000
     atom   31 type  1   force =     0.00000000    0.00000000    0.00000000
     atom   32 type  1   force =    -0.00000000    0.00000000   -0.00000000
     atom   33 type  1   force =     0.00000000   -0.00000000   -0.00000000
     atom   34 type  1   force =     0.00000000    0.00000000    0.00000000
     atom   35 type  1   force =    -0.00000000    0.00000000   -0.00000000
     atom   36 type  1   force =    -0.00000000   -0.00000000    0.00000000
     atom   37 type  1   force =    -0.00000000   -0.00000000    0.00000000
     atom   38 type  1   force =    -0.00000000    0.00000000   -0.00000000
     atom   39 type  1   force =    -0.00000000   -0.00000000   -0.00000000
     atom   40 type  1   force =     0.00000000   -0.00000000    0.00000000
     atom   41 type  1   force =     0.00000000    0.00000000   -0.00000000
     atom   42 type  1   force =     0.00000000    0.00000000   -0.00000000
     atom   43 type  1   force =    -0.00000000   -0.00000000   -0.00000000
     atom   44 type  1   force =     0.00000000    0.00000000   -0.00000000
     atom   45 type  1   force =     0.00000000   -0.00000000   -0.00000000
     atom   46 type  1   force =    -0.00000000    0.00000000   -0.00000000
     atom   47 type  1   force =     0.00000000    0.00000000   -0.00000000
     atom   48 type  1   force =     0.00000000   -0.00000000   -0.00000000
     atom   49 type  1   force =    -0.00000000    0.00000000   -0.00000000
     atom   50 type  1   force =    -0.00000000   -0.00000000   -0.00000000
     atom   51 type  1   force =    -0.00000000   -0.00000000    0.00000000
     atom   52 type  1   force =    -0.00000000    0.00000000   -0.00000000
     atom   53 type  1   force =    -0.00000000    0.00000000    0.00000000
     atom   54 type  1   force =    -0.00000000   -0.00000000    0.00000000
     atom   55 type  1   force =    -0.00000000    0.00000000   -0.00000000
     atom   56 type  1   force =     0.00000000   -0.00000000    0.00000000
     atom   57 type  1   force =    -0.00000000    0.00000000   -0.00000000
     atom   58 type  1   force =    -0.00000000   -0.00000000    0.00000000
     atom   59 type  1   force =    -0.00000000    0.00000000   -0.00000000
     atom   60 type  1   force =    -0.00000000   -0.00000000   -0.00000000
     atom   61 type  1   force =    -0.00000000   -0.00000000   -0.00000000
     atom   62 type  1   force =    -0.00000000    0.00000000   -0.00000000
     atom   63 type  1   force =     0.00000000    0.00000000   -0.00000000
     atom   64 type  1   force =     0.00000000   -0.00000000   -0.00000000
     atom   65 type  1   force =     0.00000000    0.00000000   -0.00000000
     atom   66 type  1   force =     0.00000000   -0.00000000   -0.00000000
     atom   67 type  1   force =     0.00000000   -0.00000000    0.00000000
     atom   68 type  1   force =    -0.00000000    0.00000000   -0.00000000
     atom   69 type  1   force =    -0.00000000   -0.00000000    0.00000000
     atom   70 type  1   force =     0.00000000    0.00000000   -0.00000000
     atom   71 type  1   force =     0.00000000   -0.00000000   -0.00000000
     atom   72 type  1   force =    -0.00000000    0.00000000    0.00000000
     atom   73 type  1   force =     0.00000000    0.00000000   -0.00000000
     atom   74 type  1   force =     0.00000000   -0.00000000    0.00000000
     atom   75 type  1   force =     0.00000000   -0.00000000    0.00000000
     atom   76 type  1   force =     0.00000000    0.00000000   -0.00000000

     Total force =     0.013305     Total SCF correction =     0.000000

     Writing all to output data dir ./Li/Lithium.save/ :
     XML data file
     init_run     :     39.35s CPU     51.25s WALL (       1 calls)
     electrons    :   6000.32s CPU   7686.87s WALL (       1 calls)
     forces       :    153.95s CPU    161.58s WALL (       1 calls)

     Called by init_run:
     wfcinit      :      7.90s CPU     10.75s WALL (       1 calls)
     wfcinit:wfcr :      7.27s CPU     10.11s WALL (      11 calls)
     potinit      :      1.20s CPU      1.30s WALL (       1 calls)
     hinit0       :     13.57s CPU     22.07s WALL (       1 calls)

     Called by electrons:
     c_bands      :   4024.59s CPU   5350.05s WALL (      87 calls)
     sum_band     :    306.74s CPU    432.09s WALL (      87 calls)
     v_of_rho     :     13.32s CPU     15.38s WALL (      88 calls)
     v_h          :      1.11s CPU      1.28s WALL (      88 calls)
     v_xc         :     12.20s CPU     14.09s WALL (      88 calls)
     newd         :      5.64s CPU      7.89s WALL (      88 calls)
     PAW_pot      :      0.98s CPU      1.22s WALL (      88 calls)
     mix_rho      :     41.10s CPU     48.07s WALL (      87 calls)

     Called by c_bands:
     init_us_2    :     59.80s CPU     60.13s WALL (    1936 calls)
     cegterg      :   3805.60s CPU   4846.03s WALL (    1149 calls)

     Called by sum_band:
     sum_band:wei :      0.21s CPU      0.24s WALL (      87 calls)
     sum_band:loo :    297.67s CPU    418.93s WALL (      87 calls)
     sum_band:buf :      6.58s CPU      6.68s WALL (     957 calls)
     sum_band:ini :     29.58s CPU     29.70s WALL (     957 calls)
     sum_band:cal :     62.23s CPU     66.27s WALL (     957 calls)
     sum_band:bec :      0.63s CPU      0.74s WALL (     957 calls)
     addusdens    :      7.07s CPU      9.76s WALL (      87 calls)
                                        0.00s GPU  (      87 calls)
     addusd:skk   :      0.78s CPU      2.97s WALL (      87 calls)
                                        0.00s GPU  (      87 calls)

     Called by *egterg:
     cdiaghg      :    967.73s CPU   1101.84s WALL (   11130 calls)
     cegterg:over :    293.14s CPU    313.22s WALL (   10048 calls)
     cegterg:upda :    233.66s CPU    245.38s WALL (   10048 calls)
     cegterg:last :     95.76s CPU    102.34s WALL (    1311 calls)
     cdiaghg:chol :     45.53s CPU     87.15s WALL (   11130 calls)
     cdiaghg:inve :     22.66s CPU     24.42s WALL (   11130 calls)
     cdiaghg:para :    276.01s CPU    319.92s WALL (   22260 calls)
     h_psi        :   1904.64s CPU   2754.68s WALL (   11208 calls)
     s_psi        :    248.55s CPU    250.17s WALL (   11208 calls)
     g_psi        :      5.47s CPU      5.68s WALL (   10048 calls)

     Called by h_psi:
     h_psi:calbec :    283.46s CPU    307.27s WALL (   11208 calls)
     vloc_psi     :   1361.20s CPU   2175.64s WALL (   11208 calls)
                                        0.00s GPU  (   11208 calls)
     add_vuspsi   :    247.90s CPU    250.06s WALL (   11208 calls)

     General routines
     calbec       :    348.23s CPU    376.22s WALL (   12209 calls)
     fft          :     13.00s CPU     22.87s WALL (    1144 calls)
     ffts         :     19.96s CPU     24.39s WALL (   10753 calls)
     fftw         :   1501.90s CPU   2402.22s WALL ( 1316737 calls)
     interpolate  :      1.94s CPU      2.16s WALL (      88 calls)

     Parallel routines

     PAW routines
     PAW_pot      :      0.98s CPU      1.22s WALL (      88 calls)

     Environ routines

     PWSCF        :      1h43m CPU      2h11m WALL


   This run was terminated on:  13: 9:59  21Jan2025            

=------------------------------------------------------------------------------=
   JOB DONE.
=------------------------------------------------------------------------------=
