
     Program PWSCF v.7.4 starts on  5Jan2025 at 21:53:11 
        Git branch: develop
        Last git commit: e877ff360aceba4b8d76ffc2fb1c70545fc5dd57
        Last git commit date: Sat Jan 4 12:56:15 2025 +0000
        Last git commit subject: Merge branch 'orthoU' into 'develop'

     This program is part of the open-source Quantum ESPRESSO suite
     for quantum simulation of materials; please cite
         "P. Giannozzi et al., J. Phys.:Condens. Matter 21 395502 (2009);
         "P. Giannozzi et al., J. Phys.:Condens. Matter 29 465901 (2017);
         "P. Giannozzi et al., J. Chem. Phys. 152 154105 (2020);
          URL http://www.quantum-espresso.org", 
     in publications or presentations arising from this work. More details at
     http://www.quantum-espresso.org/quote

     Parallel version (MPI), running on   440 processors

     MPI processes distributed on    11 nodes
     177307 MiB available memory on the printing compute node when the environment starts
 
     Reading input from espresso.pwi
Warning: card &CELL ignored
Warning: card    PRESS_CONV_THR   = 0.1 ignored
Warning: card    CELL_DOFREE      = 'ALL' ignored
Warning: card / ignored
Warning: card &FCP ignored
Warning: card / ignored
Warning: card &RISM ignored
Warning: card / ignored

     Current dimensions of program PWSCF are:
     Max number of different atomic species (ntypx) = 10
     Max number of k-points (npk) =  40000
     Max angular momentum in pseudopotentials (lmaxx) =  4

     IMPORTANT: XC functional enforced from input :
     Exchange-correlation= PBE
                           (   1   4   3   4   0   0   0)
     Any further DFT definition will be discarded
     Please, verify this is what you really want

 
     Reading input from environ.in:
     * using ionic solvent mode
     * setting boundary derivatives method to SSCS default
     * setting electrolyte-boundary derivatives method to SSCS default

Environ Warning (1001): card EOF ignored

     
 
     K-points division:     npool     =       2
     R & G space division:  proc/nbgrp/npool/nimage =     220
     Subspace diagonalization in iterative solution of the eigenvalue problem:
     a serial algorithm will be used

 
     Parallelization info
     --------------------
     sticks:   dense  smooth     PW     G-vecs:    dense   smooth      PW
     Min          57      22      6                35915     9032    1246
     Max          58      23      7                35952     9119    1280
     Sum       12597    5037   1349              7904519  1999739  278317
 
     Using Slab Decomposition
 


     bravais-lattice index     =            8
     lattice parameter (alat)  =      18.3607  a.u.
     unit-cell volume          =   20684.8735 (a.u.)^3
     number of atoms/cell      =           44
     number of atomic types    =            1
     number of electrons       =       132.00
     number of Kohn-Sham states=           99
     kinetic-energy cutoff     =      80.0000  Ry
     charge density cutoff     =     800.0000  Ry
     scf convergence threshold =      1.0E-14
     mixing beta               =       0.2000
     number of iterations used =            8  local-TF  mixing
     Exchange-correlation= PBE
                           (   1   4   3   4   0   0   0)

     ================================================================================
 
                                  Environ Setup Summary

     ================================================================================
 
     Please cite

          O. Andreussi, I. Dabo and N. Marzari, J. Chem. Phys. 136, 064102 (2012)
          F. Nattino, M. Truscott, N. Marzari, and O. Andreussi, J. Chem. Phys. 150, 041722 (2019)

     in publications or presentations arising from this work.

     ================================================================================
 
     Parameters
     ==========

     compensation onset threshold      =               0.1000E+00
     static permittivity               =                    89.90
     surface tension in input (dyn/cm) =                    37.30
     surface tension in internal units =               0.4792E-04

     Solvent Boundary
     ================

     solvent mode                      =                    ionic
     derivatives method                =                   lowmem
     electrolyte derivatives method    =                   lowmem
     numerical core for derivatives    =                      fft
     switching function adopted        =                     SCCS
     density limit for vacuum region   =               0.5000E-02
     density limit for bulk solvent    =               0.1000E-03
     soft-sphere radius mode           =                    bondi
     soft-sphere softness              =                     0.50
     alpha                             =                     1.32

     Electrostatic Setup
     ===================

     electrostatic problem to solve    =                    modpb
     numerical solver adopted          =                   newton
     type of auxiliary density adopted =                     none
     numerical core for poisson        =                      fft
     adopting a nested solver scheme
     inner solver                      =                       cg
     inner core                        =                      fft
     type of pbc corrections           =                parabolic
     numerical core for corrections    =                      1da

     ================================================================================
 

     >>>>> Grand-Canonical SCF is activated <<<<<
     Initial Total Charge  =     0.000000 e
     Target Fermi Energy   =    -3.904000 eV
     Thr. of Fermi Energy  =     0.001000 eV
     Wave-shift of Kerker  =     0.400000 bohr^-1
     Wave-shift of Hartree =     1.500000 bohr^-1
     Mixing Rate of Fermi  =     0.050000

     celldm(1)=  18.360747  celldm(2)=   0.586302  celldm(3)=   5.699811
     celldm(4)=   0.000000  celldm(5)=   0.000000  celldm(6)=   0.000000

     crystal axes: (cart. coord. in units of alat)
               a(1) = (   1.000000   0.000000   0.000000 )  
               a(2) = (   0.000000   0.586302   0.000000 )  
               a(3) = (   0.000000   0.000000   5.699811 )  

     reciprocal axes: (cart. coord. in units 2 pi/alat)
               b(1) = (  1.000000  0.000000  0.000000 )  
               b(2) = (  0.000000  1.705606  0.000000 )  
               b(3) = (  0.000000  0.000000  0.175444 )  


     PseudoPot. # 1 for Li read from file:
     /home/mmm1182/Repos/Pseudopotentials/pslibrary/Li.pbe-sl-kjpaw_psl.1.0.0.UPF
     MD5 check sum: f40bb4162937df3f7c561f1969c76545
     Pseudo is Projector augmented-wave, Zval =  3.0
     Generated using 'atomic' code by A. Dal Corso  v.7.3.1
     Shape of augmentation charge: PSQ
     Using radial grid of 1017 points,  4 beta functions with: 
                l(1) =   0
                l(2) =   0
                l(3) =   1
                l(4) =   1
     Q(r) pseudized with 0 coefficients 


     atomic species   valence    mass     pseudopotential
     Li                3.00     6.94000     Li( 1.00)

      2 Sym. Ops. (no inversion) found


                                    s                        frac. trans.

      isym =  1     identity                                     

 cryst.   s( 1) = (     1          0          0      )
                  (     0          1          0      )
                  (     0          0          1      )

 cart.    s( 1) = (  1.0000000  0.0000000  0.0000000 )
                  (  0.0000000  1.0000000  0.0000000 )
                  (  0.0000000  0.0000000  1.0000000 )


      isym =  2     inv. 180 deg rotation - cart. axis [1,0,0]   

 cryst.   s( 2) = (    -1          0          0      )
                  (     0          1          0      )
                  (     0          0          1      )

 cart.    s( 2) = ( -1.0000000  0.0000000  0.0000000 )
                  (  0.0000000  1.0000000  0.0000000 )
                  (  0.0000000  0.0000000  1.0000000 )


     point group C_s (m)    
     there are  2 classes
     the character table:

       E     s    
A'     1.00  1.00
A''    1.00 -1.00

     the symmetry operations in each class and the name of the first element:

     E        1
          identity                                               
     s        2
          inv. 180 deg rotation - cart. axis [1,0,0]             

   Cartesian axes

     site n.     atom                  positions (alat units)
         1        Li     tau(   1) = (   0.5000000   0.5386208   3.6807436  )
         2        Li     tau(   2) = (   0.2499960   0.4739945   2.0190753  )
         3        Li     tau(   3) = (   0.2500026   0.0998931   2.2526010  )
         4        Li     tau(   4) = (   0.5000000   0.2160438   2.0978741  )
         5        Li     tau(   5) = (   0.0000000   0.5056504   2.2559051  )
         6        Li     tau(   6) = (   0.5000000   0.1947606   2.4211326  )
         7        Li     tau(   7) = (   0.2500039   0.3220391   2.6538091  )
         8        Li     tau(   8) = (   0.2499978   0.5866141   2.8345802  )
         9        Li     tau(   9) = (   0.2500012   0.3783331   2.3425879  )
        10        Li     tau(  10) = (   0.2499983   0.0452407   2.5378481  )
        11        Li     tau(  11) = (   0.0000000   0.4690609   2.5635583  )
        12        Li     tau(  12) = (   0.5000000   0.1495843   2.7354656  )
        13        Li     tau(  13) = (   0.5000000   0.4260938   2.8652085  )
        14        Li     tau(  14) = (   0.5000000   0.1043595   3.0460082  )
        15        Li     tau(  15) = (   0.2499970   0.5436397   3.1362650  )
        16        Li     tau(  16) = (   0.2499977   0.2316388   3.2786777  )
        17        Li     tau(  17) = (   0.2500045   0.2768131   2.9643495  )
        18        Li     tau(  18) = (   0.0000000   0.3811472   3.1620000  )
        19        Li     tau(  19) = (   0.5000000   0.0480835   3.3572354  )
        20        Li     tau(  20) = (   0.5000000   0.3265545   3.4471337  )
        21        Li     tau(  21) = (   0.2499887   0.5070568   3.4439088  )
        22        Li     tau(  22) = (   0.2501097   0.2103580   3.6019297  )
        23        Li     tau(  23) = (   1.0000000   0.5388038   3.6807143  )
        24        Li     tau(  24) = (   0.7500040   0.4739945   2.0190753  )
        25        Li     tau(  25) = (   0.7499974   0.0998931   2.2526010  )
        26        Li     tau(  26) = (   1.0000000   0.2160417   2.0978797  )
        27        Li     tau(  27) = (   0.5000000   0.5056455   2.2558890  )
        28        Li     tau(  28) = (   1.0000000   0.1947657   2.4211291  )
        29        Li     tau(  29) = (   0.7499961   0.3220391   2.6538091  )
        30        Li     tau(  30) = (   0.7500022   0.5866141   2.8345802  )
        31        Li     tau(  31) = (   0.7499988   0.3783331   2.3425879  )
        32        Li     tau(  32) = (   0.7500017   0.0452407   2.5378481  )
        33        Li     tau(  33) = (   0.5000000   0.4690660   2.5635311  )
        34        Li     tau(  34) = (   1.0000000   0.1495914   2.7354553  )
        35        Li     tau(  35) = (   1.0000000   0.4260827   2.8652515  )
        36        Li     tau(  36) = (   1.0000000   0.1043631   3.0459913  )
        37        Li     tau(  37) = (   0.7500030   0.5436397   3.1362650  )
        38        Li     tau(  38) = (   0.7500023   0.2316388   3.2786777  )
        39        Li     tau(  39) = (   0.7499955   0.2768131   2.9643495  )
        40        Li     tau(  40) = (   0.5000000   0.3811718   3.1619188  )
        41        Li     tau(  41) = (   1.0000000   0.0480544   3.3572009  )
        42        Li     tau(  42) = (   1.0000000   0.3264606   3.4472777  )
        43        Li     tau(  43) = (   0.7500113   0.5070568   3.4439088  )
        44        Li     tau(  44) = (   0.7498903   0.2103580   3.6019297  )

   Crystallographic axes

     site n.     atom                  positions (cryst. coord.)
         1        Li     tau(   1) = (  0.5000000  0.9186747  0.6457659  )
         2        Li     tau(   2) = (  0.2499960  0.8084477  0.3542355  )
         3        Li     tau(   3) = (  0.2500026  0.1703782  0.3952063  )
         4        Li     tau(   4) = (  0.5000000  0.3684855  0.3680603  )
         5        Li     tau(   5) = (  0.0000000  0.8624401  0.3957859  )
         6        Li     tau(   6) = (  0.5000000  0.3321848  0.4247742  )
         7        Li     tau(   7) = (  0.2500039  0.5492716  0.4655960  )
         8        Li     tau(   8) = (  0.2499978  1.0005323  0.4973113  )
         9        Li     tau(   9) = (  0.2500012  0.6452871  0.4109940  )
        10        Li     tau(  10) = (  0.2499983  0.0771628  0.4452513  )
        11        Li     tau(  11) = (  0.0000000  0.8000328  0.4497620  )
        12        Li     tau(  12) = (  0.5000000  0.2551318  0.4799222  )
        13        Li     tau(  13) = (  0.5000000  0.7267479  0.5026848  )
        14        Li     tau(  14) = (  0.5000000  0.1779962  0.5344051  )
        15        Li     tau(  15) = (  0.2499970  0.9272350  0.5502402  )
        16        Li     tau(  16) = (  0.2499977  0.3950845  0.5752257  )
        17        Li     tau(  17) = (  0.2500045  0.4721339  0.5200786  )
        18        Li     tau(  18) = (  0.0000000  0.6500868  0.5547552  )
        19        Li     tau(  19) = (  0.5000000  0.0820116  0.5890082  )
        20        Li     tau(  20) = (  0.5000000  0.5569732  0.6047804  )
        21        Li     tau(  21) = (  0.2499887  0.8648389  0.6042146  )
        22        Li     tau(  22) = (  0.2501097  0.3587878  0.6319384  )
        23        Li     tau(  23) = (  1.0000000  0.9189868  0.6457608  )
        24        Li     tau(  24) = (  0.7500040  0.8084477  0.3542355  )
        25        Li     tau(  25) = (  0.7499974  0.1703782  0.3952063  )
        26        Li     tau(  26) = (  1.0000000  0.3684820  0.3680613  )
        27        Li     tau(  27) = (  0.5000000  0.8624317  0.3957831  )
        28        Li     tau(  28) = (  1.0000000  0.3321935  0.4247736  )
        29        Li     tau(  29) = (  0.7499961  0.5492716  0.4655960  )
        30        Li     tau(  30) = (  0.7500022  1.0005323  0.4973113  )
        31        Li     tau(  31) = (  0.7499988  0.6452871  0.4109940  )
        32        Li     tau(  32) = (  0.7500017  0.0771628  0.4452513  )
        33        Li     tau(  33) = (  0.5000000  0.8000416  0.4497572  )
        34        Li     tau(  34) = (  1.0000000  0.2551439  0.4799203  )
        35        Li     tau(  35) = (  1.0000000  0.7267291  0.5026924  )
        36        Li     tau(  36) = (  1.0000000  0.1780023  0.5344022  )
        37        Li     tau(  37) = (  0.7500030  0.9272350  0.5502402  )
        38        Li     tau(  38) = (  0.7500023  0.3950845  0.5752257  )
        39        Li     tau(  39) = (  0.7499955  0.4721339  0.5200786  )
        40        Li     tau(  40) = (  0.5000000  0.6501287  0.5547410  )
        41        Li     tau(  41) = (  1.0000000  0.0819619  0.5890021  )
        42        Li     tau(  42) = (  1.0000000  0.5568131  0.6048056  )
        43        Li     tau(  43) = (  0.7500113  0.8648389  0.6042146  )
        44        Li     tau(  44) = (  0.7498903  0.3587878  0.6319384  )

     number of k points=    28  Marzari-Vanderbilt smearing, width (Ry)=  0.0100
                       cart. coord. in units 2pi/alat
        k(    1) = (   0.0000000   0.0000000   0.0000000), wk =   0.0238095
        k(    2) = (   0.0000000   0.1421338   0.0000000), wk =   0.0476190
        k(    3) = (   0.0000000   0.2842676   0.0000000), wk =   0.0476190
        k(    4) = (   0.0000000   0.4264014   0.0000000), wk =   0.0476190
        k(    5) = (   0.0000000   0.5685352   0.0000000), wk =   0.0476190
        k(    6) = (   0.0000000   0.7106690   0.0000000), wk =   0.0476190
        k(    7) = (   0.0000000  -0.8528028   0.0000000), wk =   0.0238095
        k(    8) = (   0.1428571   0.0000000   0.0000000), wk =   0.0476190
        k(    9) = (   0.1428571   0.1421338   0.0000000), wk =   0.0952381
        k(   10) = (   0.1428571   0.2842676   0.0000000), wk =   0.0952381
        k(   11) = (   0.1428571   0.4264014   0.0000000), wk =   0.0952381
        k(   12) = (   0.1428571   0.5685352   0.0000000), wk =   0.0952381
        k(   13) = (   0.1428571   0.7106690   0.0000000), wk =   0.0952381
        k(   14) = (   0.1428571  -0.8528028   0.0000000), wk =   0.0476190
        k(   15) = (   0.2857143   0.0000000   0.0000000), wk =   0.0476190
        k(   16) = (   0.2857143   0.1421338   0.0000000), wk =   0.0952381
        k(   17) = (   0.2857143   0.2842676   0.0000000), wk =   0.0952381
        k(   18) = (   0.2857143   0.4264014   0.0000000), wk =   0.0952381
        k(   19) = (   0.2857143   0.5685352   0.0000000), wk =   0.0952381
        k(   20) = (   0.2857143   0.7106690   0.0000000), wk =   0.0952381
        k(   21) = (   0.2857143  -0.8528028   0.0000000), wk =   0.0476190
        k(   22) = (   0.4285714   0.0000000   0.0000000), wk =   0.0476190
        k(   23) = (   0.4285714   0.1421338   0.0000000), wk =   0.0952381
        k(   24) = (   0.4285714   0.2842676   0.0000000), wk =   0.0952381
        k(   25) = (   0.4285714   0.4264014   0.0000000), wk =   0.0952381
        k(   26) = (   0.4285714   0.5685352   0.0000000), wk =   0.0952381
        k(   27) = (   0.4285714   0.7106690   0.0000000), wk =   0.0952381
        k(   28) = (   0.4285714  -0.8528028   0.0000000), wk =   0.0476190

                       cryst. coord.
        k(    1) = (   0.0000000   0.0000000   0.0000000), wk =   0.0238095
        k(    2) = (   0.0000000   0.0833333   0.0000000), wk =   0.0476190
        k(    3) = (   0.0000000   0.1666667   0.0000000), wk =   0.0476190
        k(    4) = (   0.0000000   0.2500000   0.0000000), wk =   0.0476190
        k(    5) = (   0.0000000   0.3333333   0.0000000), wk =   0.0476190
        k(    6) = (   0.0000000   0.4166667   0.0000000), wk =   0.0476190
        k(    7) = (   0.0000000  -0.5000000   0.0000000), wk =   0.0238095
        k(    8) = (   0.1428571   0.0000000   0.0000000), wk =   0.0476190
        k(    9) = (   0.1428571   0.0833333   0.0000000), wk =   0.0952381
        k(   10) = (   0.1428571   0.1666667   0.0000000), wk =   0.0952381
        k(   11) = (   0.1428571   0.2500000   0.0000000), wk =   0.0952381
        k(   12) = (   0.1428571   0.3333333   0.0000000), wk =   0.0952381
        k(   13) = (   0.1428571   0.4166667   0.0000000), wk =   0.0952381
        k(   14) = (   0.1428571  -0.5000000   0.0000000), wk =   0.0476190
        k(   15) = (   0.2857143   0.0000000   0.0000000), wk =   0.0476190
        k(   16) = (   0.2857143   0.0833333   0.0000000), wk =   0.0952381
        k(   17) = (   0.2857143   0.1666667   0.0000000), wk =   0.0952381
        k(   18) = (   0.2857143   0.2500000   0.0000000), wk =   0.0952381
        k(   19) = (   0.2857143   0.3333333   0.0000000), wk =   0.0952381
        k(   20) = (   0.2857143   0.4166667   0.0000000), wk =   0.0952381
        k(   21) = (   0.2857143  -0.5000000   0.0000000), wk =   0.0476190
        k(   22) = (   0.4285714   0.0000000   0.0000000), wk =   0.0476190
        k(   23) = (   0.4285714   0.0833333   0.0000000), wk =   0.0952381
        k(   24) = (   0.4285714   0.1666667   0.0000000), wk =   0.0952381
        k(   25) = (   0.4285714   0.2500000   0.0000000), wk =   0.0952381
        k(   26) = (   0.4285714   0.3333333   0.0000000), wk =   0.0952381
        k(   27) = (   0.4285714   0.4166667   0.0000000), wk =   0.0952381
        k(   28) = (   0.4285714  -0.5000000   0.0000000), wk =   0.0476190

     Dense  grid:  7904519 G-vectors     FFT dimensions: ( 180, 100, 960)

     Smooth grid:  1999739 G-vectors     FFT dimensions: ( 108,  64, 600)

     Dynamical RAM for                 wfc:       1.72 MB

     Dynamical RAM for     wfc (w. buffer):      25.74 MB

     Dynamical RAM for           str. fact:       0.55 MB

     Dynamical RAM for           local pot:       0.00 MB

     Dynamical RAM for          nlocal pot:       6.10 MB

     Dynamical RAM for                qrad:       0.65 MB

     Dynamical RAM for          rho,v,vnew:       3.70 MB

     Dynamical RAM for               rhoin:       1.23 MB

     Dynamical RAM for            rho*nmix:       8.77 MB

     Dynamical RAM for           G-vectors:       2.12 MB

     Dynamical RAM for          h,s,v(r/c):       7.18 MB

     Dynamical RAM for          <psi|beta>:       0.53 MB

     Dynamical RAM for                 psi:       6.86 MB

     Dynamical RAM for                hpsi:       6.86 MB

     Dynamical RAM for                spsi:       6.86 MB

     Dynamical RAM for      wfcinit/wfcrot:       3.66 MB

     Dynamical RAM for           addusdens:      24.12 MB

     Dynamical RAM for          addusforce:      47.73 MB

     Estimated static dynamical RAM per process >      44.63 MB

     Estimated max dynamical RAM per process >     120.61 MB

     Estimated total dynamical RAM >      41.57 GB

     Initial potential from superposition of free atoms

     starting charge     131.7972, renormalised to     132.0000

     negative rho (up, down):  3.243E-03 0.000E+00
     Starting wfcs are random
     Checking if some PAW data can be deallocated... 

     total cpu time spent up to now is       12.2 secs

     per-process dynamical memory:   156.0 Mb

     Self-consistent Calculation

     iteration #  1     ecut=    80.00 Ry     beta= 0.20
     Davidson diagonalization with overlap

---- Real-time Memory Report at c_bands before calling an iterative solver
           623 MiB given to the printing process from OS
           152 MiB allocation reported by mallinfo(arena+hblkhd)
        171864 MiB available memory on the node where the printing process lives
------------------
     c_bands:  1 eigenvalues not converged
     c_bands:  1 eigenvalues not converged
     c_bands:  1 eigenvalues not converged
     c_bands:  1 eigenvalues not converged
     c_bands:  1 eigenvalues not converged
     ethr =  1.00E-12,  avg # of iterations =123.6

     negative rho (up, down):  2.401E-03 0.000E+00

     total cpu time spent up to now is      185.7 secs

     total energy              =    -661.33934424 Ry
     estimated scf accuracy    <       0.11276404 Ry

     total charge of GC-SCF    =       0.07676883 e
     the Fermi energy          =      -4.11550423 eV
                        (error :       0.21150423 eV)
     electrostatic embedding   =       0.00000000 Ry
     cavitation energy         =       0.02535934 Ry
     electrolyte free energy   =       0.00890302 Ry
     correction to one-el term =       0.00000000 Ry

     iteration #  2     ecut=    80.00 Ry     beta= 0.20
     Davidson diagonalization with overlap

---- Real-time Memory Report at c_bands before calling an iterative solver
           623 MiB given to the printing process from OS
           193 MiB allocation reported by mallinfo(arena+hblkhd)
        169931 MiB available memory on the node where the printing process lives
------------------
     ethr =  1.00E-05,  avg # of iterations = 11.9

     negative rho (up, down):  1.897E-03 0.000E+00

     add environment contribution to local potential

     total cpu time spent up to now is      211.9 secs

     total energy              =    -661.74526347 Ry
     estimated scf accuracy    <       0.08680854 Ry

     total charge of GC-SCF    =       0.11836522 e
     the Fermi energy          =      -3.11065315 eV
                        (error :       0.79334685 eV)
     electrostatic embedding   =       0.00076953 Ry
     cavitation energy         =       0.02535934 Ry
     electrolyte free energy   =       0.00890302 Ry
     correction to one-el term =       0.00000000 Ry

     iteration #  3     ecut=    80.00 Ry     beta= 0.20
     Davidson diagonalization with overlap

---- Real-time Memory Report at c_bands before calling an iterative solver
           623 MiB given to the printing process from OS
           193 MiB allocation reported by mallinfo(arena+hblkhd)
        169884 MiB available memory on the node where the printing process lives
------------------
     ethr =  1.00E-05,  avg # of iterations = 28.9

     negative rho (up, down):  1.496E-03 0.000E+00

     add environment contribution to local potential

     total cpu time spent up to now is      250.5 secs

     total energy              =    -661.64528492 Ry
     estimated scf accuracy    <       0.03863070 Ry

     total charge of GC-SCF    =       0.19442290 e
     the Fermi energy          =      -3.03256637 eV
                        (error :       0.87143363 eV)
     electrostatic embedding   =      -0.02228587 Ry
     cavitation energy         =       0.02535934 Ry
     electrolyte free energy   =      -0.00424937 Ry
     correction to one-el term =      -2.65067838 Ry

     iteration #  4     ecut=    80.00 Ry     beta= 0.20
     Davidson diagonalization with overlap

---- Real-time Memory Report at c_bands before calling an iterative solver
           623 MiB given to the printing process from OS
           193 MiB allocation reported by mallinfo(arena+hblkhd)
        169883 MiB available memory on the node where the printing process lives
------------------
     ethr =  1.00E-05,  avg # of iterations = 15.9

     negative rho (up, down):  1.204E-03 0.000E+00

     add environment contribution to local potential

     total cpu time spent up to now is      280.1 secs

     total energy              =    -661.69044217 Ry
     estimated scf accuracy    <       0.01913175 Ry

     total charge of GC-SCF    =       0.26708558 e
     the Fermi energy          =      -3.45682978 eV
                        (error :       0.44717022 eV)
     electrostatic embedding   =      -0.01807948 Ry
     cavitation energy         =       0.02535934 Ry
     electrolyte free energy   =      -0.00598208 Ry
     correction to one-el term =      -3.07532507 Ry

     iteration #  5     ecut=    80.00 Ry     beta= 0.20
     Davidson diagonalization with overlap

---- Real-time Memory Report at c_bands before calling an iterative solver
           623 MiB given to the printing process from OS
           193 MiB allocation reported by mallinfo(arena+hblkhd)
        169889 MiB available memory on the node where the printing process lives
------------------
     ethr =  1.00E-05,  avg # of iterations = 17.0

     negative rho (up, down):  9.773E-04 0.000E+00

     add environment contribution to local potential

     total cpu time spent up to now is      308.1 secs

     total energy              =    -661.63640475 Ry
     estimated scf accuracy    <       0.01036707 Ry

     total charge of GC-SCF    =       0.60991149 e
     the Fermi energy          =      -3.22219320 eV
                        (error :       0.68180680 eV)
     electrostatic embedding   =      -0.01813295 Ry
     cavitation energy         =       0.02535934 Ry
     electrolyte free energy   =      -0.00462784 Ry
     correction to one-el term =      -5.14444388 Ry

     iteration #  6     ecut=    80.00 Ry     beta= 0.20
     Davidson diagonalization with overlap

---- Real-time Memory Report at c_bands before calling an iterative solver
           623 MiB given to the printing process from OS
           193 MiB allocation reported by mallinfo(arena+hblkhd)
        169887 MiB available memory on the node where the printing process lives
------------------
     ethr =  7.89E-06,  avg # of iterations = 18.6

     negative rho (up, down):  8.474E-04 0.000E+00

     add environment contribution to local potential

     total cpu time spent up to now is      339.8 secs

     total energy              =    -661.69977973 Ry
     estimated scf accuracy    <       0.00266714 Ry

     total charge of GC-SCF    =       1.02792627 e
     the Fermi energy          =      -2.96045078 eV
                        (error :       0.94354922 eV)
     electrostatic embedding   =      -0.04435893 Ry
     cavitation energy         =       0.02535934 Ry
     electrolyte free energy   =      -0.00308126 Ry
     correction to one-el term =     -13.44492596 Ry

     iteration #  7     ecut=    80.00 Ry     beta= 0.20
     Davidson diagonalization with overlap

---- Real-time Memory Report at c_bands before calling an iterative solver
           623 MiB given to the printing process from OS
           193 MiB allocation reported by mallinfo(arena+hblkhd)
        169886 MiB available memory on the node where the printing process lives
------------------
     ethr =  2.04E-06,  avg # of iterations = 23.1

     negative rho (up, down):  8.662E-04 0.000E+00

     add environment contribution to local potential

     total cpu time spent up to now is      376.9 secs

     total energy              =    -661.73070635 Ry
     estimated scf accuracy    <       0.00950786 Ry

     total charge of GC-SCF    =       1.27824577 e
     the Fermi energy          =      -3.29859754 eV
                        (error :       0.60540246 eV)
     electrostatic embedding   =      -0.11506505 Ry
     cavitation energy         =       0.02535934 Ry
     electrolyte free energy   =      -0.00574914 Ry
     correction to one-el term =     -24.39349159 Ry

     iteration #  8     ecut=    80.00 Ry     beta= 0.20
     Davidson diagonalization with overlap

---- Real-time Memory Report at c_bands before calling an iterative solver
           623 MiB given to the printing process from OS
           193 MiB allocation reported by mallinfo(arena+hblkhd)
        169884 MiB available memory on the node where the printing process lives
------------------
     ethr =  2.04E-06,  avg # of iterations = 12.6

     negative rho (up, down):  6.422E-04 0.000E+00

     add environment contribution to local potential

     total cpu time spent up to now is      400.8 secs

     total energy              =    -661.88042223 Ry
     estimated scf accuracy    <       0.00646183 Ry

     total charge of GC-SCF    =       1.11630898 e
     the Fermi energy          =      -3.34783699 eV
                        (error :       0.55616301 eV)
     electrostatic embedding   =      -0.18419280 Ry
     cavitation energy         =       0.02535934 Ry
     electrolyte free energy   =      -0.00694841 Ry
     correction to one-el term =     -31.53771325 Ry

     iteration #  9     ecut=    80.00 Ry     beta= 0.20
     Davidson diagonalization with overlap

---- Real-time Memory Report at c_bands before calling an iterative solver
           623 MiB given to the printing process from OS
           193 MiB allocation reported by mallinfo(arena+hblkhd)
        169884 MiB available memory on the node where the printing process lives
------------------
     ethr =  2.04E-06,  avg # of iterations = 15.2

     negative rho (up, down):  3.231E-03 0.000E+00

     add environment contribution to local potential

     total cpu time spent up to now is      430.6 secs

     total energy              =    -661.85616807 Ry
     estimated scf accuracy    <       0.02377196 Ry

     total charge of GC-SCF    =       0.88891219 e
     the Fermi energy          =      -3.56366179 eV
                        (error :       0.34033821 eV)
     electrostatic embedding   =      -0.13028289 Ry
     cavitation energy         =       0.02535934 Ry
     electrolyte free energy   =      -0.00702308 Ry
     correction to one-el term =     -26.07054406 Ry

     iteration # 10     ecut=    80.00 Ry     beta= 0.20
     Davidson diagonalization with overlap

---- Real-time Memory Report at c_bands before calling an iterative solver
           623 MiB given to the printing process from OS
           193 MiB allocation reported by mallinfo(arena+hblkhd)
        169880 MiB available memory on the node where the printing process lives
------------------
     ethr =  2.04E-06,  avg # of iterations = 27.1

     negative rho (up, down):  8.545E-04 0.000E+00

     add environment contribution to local potential

     total cpu time spent up to now is      467.8 secs

     total energy              =    -661.60326094 Ry
     estimated scf accuracy    <       0.00901923 Ry

     total charge of GC-SCF    =       1.57597263 e
     the Fermi energy          =      -3.17429835 eV
                        (error :       0.72970165 eV)
     electrostatic embedding   =      -0.08755625 Ry
     cavitation energy         =       0.02535934 Ry
     electrolyte free energy   =      -0.00446552 Ry
     correction to one-el term =     -19.14584217 Ry

     iteration # 11     ecut=    80.00 Ry     beta= 0.20
     Davidson diagonalization with overlap

---- Real-time Memory Report at c_bands before calling an iterative solver
           623 MiB given to the printing process from OS
           193 MiB allocation reported by mallinfo(arena+hblkhd)
        169874 MiB available memory on the node where the printing process lives
------------------
     ethr =  2.04E-06,  avg # of iterations = 24.8

     negative rho (up, down):  5.128E-03 0.000E+00

     add environment contribution to local potential

     total cpu time spent up to now is      505.2 secs

     total energy              =    -661.75673939 Ry
     estimated scf accuracy    <       0.00244628 Ry

     total charge of GC-SCF    =       2.10460126 e
     the Fermi energy          =      -3.16185482 eV
                        (error :       0.74214518 eV)
     electrostatic embedding   =      -0.30405092 Ry
     cavitation energy         =       0.02535934 Ry
     electrolyte free energy   =      -0.00804951 Ry
     correction to one-el term =     -42.41383358 Ry

     iteration # 12     ecut=    80.00 Ry     beta= 0.20
     Davidson diagonalization with overlap

---- Real-time Memory Report at c_bands before calling an iterative solver
           623 MiB given to the printing process from OS
           193 MiB allocation reported by mallinfo(arena+hblkhd)
        169872 MiB available memory on the node where the printing process lives
------------------
     ethr =  1.88E-06,  avg # of iterations = 29.9

     negative rho (up, down):  7.200E-03 0.000E+00

     add environment contribution to local potential

     total cpu time spent up to now is      546.3 secs

     total energy              =    -661.79836715 Ry
     estimated scf accuracy    <       0.00054460 Ry

     total charge of GC-SCF    =       2.33752154 e
     the Fermi energy          =      -3.63948523 eV
                        (error :       0.26451477 eV)
     electrostatic embedding   =      -0.55998378 Ry
     cavitation energy         =       0.02535934 Ry
     electrolyte free energy   =      -0.01539028 Ry
     correction to one-el term =     -58.75351619 Ry

     iteration # 13     ecut=    80.00 Ry     beta= 0.20
     Davidson diagonalization with overlap

---- Real-time Memory Report at c_bands before calling an iterative solver
           623 MiB given to the printing process from OS
           193 MiB allocation reported by mallinfo(arena+hblkhd)
        169874 MiB available memory on the node where the printing process lives
------------------
     ethr =  4.20E-07,  avg # of iterations = 13.5

     negative rho (up, down):  3.131E-03 0.000E+00

     add environment contribution to local potential

     total cpu time spent up to now is      575.7 secs

     total energy              =    -661.80781808 Ry
     estimated scf accuracy    <       0.00032342 Ry

     total charge of GC-SCF    =       2.45861557 e
     the Fermi energy          =      -3.75462782 eV
                        (error :       0.14937218 eV)
     electrostatic embedding   =      -0.70710712 Ry
     cavitation energy         =       0.02535934 Ry
     electrolyte free energy   =      -0.01842977 Ry
     correction to one-el term =     -66.10218452 Ry

     iteration # 14     ecut=    80.00 Ry     beta= 0.20
     Davidson diagonalization with overlap

---- Real-time Memory Report at c_bands before calling an iterative solver
           623 MiB given to the printing process from OS
           193 MiB allocation reported by mallinfo(arena+hblkhd)
        169862 MiB available memory on the node where the printing process lives
------------------
     ethr =  2.50E-07,  avg # of iterations = 13.6

     negative rho (up, down):  4.765E-04 0.000E+00

     add environment contribution to local potential

     total cpu time spent up to now is      604.7 secs

     total energy              =    -661.81164764 Ry
     estimated scf accuracy    <       0.00019926 Ry

     total charge of GC-SCF    =       2.54853277 e
     the Fermi energy          =      -3.80775950 eV
                        (error :       0.09624050 eV)
     electrostatic embedding   =      -0.79514606 Ry
     cavitation energy         =       0.02535934 Ry
     electrolyte free energy   =      -0.02018150 Ry
     correction to one-el term =     -70.19528385 Ry

     iteration # 15     ecut=    80.00 Ry     beta= 0.20
     Davidson diagonalization with overlap

---- Real-time Memory Report at c_bands before calling an iterative solver
           623 MiB given to the printing process from OS
           193 MiB allocation reported by mallinfo(arena+hblkhd)
        169873 MiB available memory on the node where the printing process lives
------------------
     ethr =  1.54E-07,  avg # of iterations = 14.2

     negative rho (up, down):  5.452E-04 0.000E+00

     add environment contribution to local potential

     total cpu time spent up to now is      636.2 secs

     total energy              =    -661.81326319 Ry
     estimated scf accuracy    <       0.00005700 Ry

     total charge of GC-SCF    =       2.65598115 e
     the Fermi energy          =      -3.86445692 eV
                        (error :       0.03954308 eV)
     electrostatic embedding   =      -0.87010792 Ry
     cavitation energy         =       0.02535934 Ry
     electrolyte free energy   =      -0.02165332 Ry
     correction to one-el term =     -73.67557402 Ry

     iteration # 16     ecut=    80.00 Ry     beta= 0.20
     Davidson diagonalization with overlap

---- Real-time Memory Report at c_bands before calling an iterative solver
           623 MiB given to the printing process from OS
           193 MiB allocation reported by mallinfo(arena+hblkhd)
        169869 MiB available memory on the node where the printing process lives
------------------
     ethr =  4.41E-08,  avg # of iterations = 34.9

     negative rho (up, down):  4.115E-04 0.000E+00

     add environment contribution to local potential

     total cpu time spent up to now is      685.7 secs

     total energy              =    -661.81234919 Ry
     estimated scf accuracy    <       0.00005581 Ry

     total charge of GC-SCF    =       2.56028255 e
     the Fermi energy          =      -3.94945858 eV
                        (error :       0.04545858 eV)
     electrostatic embedding   =      -0.94840794 Ry
     cavitation energy         =       0.02535934 Ry
     electrolyte free energy   =      -0.02324583 Ry
     correction to one-el term =     -76.78515320 Ry

     iteration # 17     ecut=    80.00 Ry     beta= 0.20
     Davidson diagonalization with overlap

---- Real-time Memory Report at c_bands before calling an iterative solver
           623 MiB given to the printing process from OS
           193 MiB allocation reported by mallinfo(arena+hblkhd)
        169866 MiB available memory on the node where the printing process lives
------------------
     ethr =  4.31E-08,  avg # of iterations = 25.4

     negative rho (up, down):  4.216E-04 0.000E+00

     add environment contribution to local potential

     total cpu time spent up to now is      725.2 secs

     total energy              =    -661.81260098 Ry
     estimated scf accuracy    <       0.00002790 Ry

     total charge of GC-SCF    =       2.54643028 e
     the Fermi energy          =      -3.88897231 eV
                        (error :       0.01502769 eV)
     electrostatic embedding   =      -0.87505066 Ry
     cavitation energy         =       0.02535934 Ry
     electrolyte free energy   =      -0.02181447 Ry
     correction to one-el term =     -73.79060981 Ry

     iteration # 18     ecut=    80.00 Ry     beta= 0.20
     Davidson diagonalization with overlap

---- Real-time Memory Report at c_bands before calling an iterative solver
           623 MiB given to the printing process from OS
           193 MiB allocation reported by mallinfo(arena+hblkhd)
        169867 MiB available memory on the node where the printing process lives
------------------
     ethr =  2.16E-08,  avg # of iterations = 15.7

     negative rho (up, down):  1.762E-03 0.000E+00

     add environment contribution to local potential

     total cpu time spent up to now is      756.9 secs

     total energy              =    -661.81236751 Ry
     estimated scf accuracy    <       0.00001494 Ry

     total charge of GC-SCF    =       2.59649596 e
     the Fermi energy          =      -3.87483499 eV
                        (error :       0.02916501 eV)
     electrostatic embedding   =      -0.86257224 Ry
     cavitation energy         =       0.02535934 Ry
     electrolyte free energy   =      -0.02157455 Ry
     correction to one-el term =     -73.21612013 Ry

     iteration # 19     ecut=    80.00 Ry     beta= 0.20
     Davidson diagonalization with overlap

---- Real-time Memory Report at c_bands before calling an iterative solver
           623 MiB given to the printing process from OS
           193 MiB allocation reported by mallinfo(arena+hblkhd)
        169865 MiB available memory on the node where the printing process lives
------------------
     c_bands:  1 eigenvalues not converged
     ethr =  1.15E-08,  avg # of iterations = 38.4

     negative rho (up, down):  1.238E-03 0.000E+00

     add environment contribution to local potential

     total cpu time spent up to now is      810.2 secs

     total energy              =    -661.81229924 Ry
     estimated scf accuracy    <       0.00000660 Ry

     total charge of GC-SCF    =       2.57758905 e
     the Fermi energy          =      -3.90927735 eV
                        (error :       0.00527735 eV)
     electrostatic embedding   =      -0.89756354 Ry
     cavitation energy         =       0.02535934 Ry
     electrolyte free energy   =      -0.02231130 Ry
     correction to one-el term =     -74.65011831 Ry

     iteration # 20     ecut=    80.00 Ry     beta= 0.20
     Davidson diagonalization with overlap

---- Real-time Memory Report at c_bands before calling an iterative solver
           623 MiB given to the printing process from OS
           193 MiB allocation reported by mallinfo(arena+hblkhd)
        169859 MiB available memory on the node where the printing process lives
------------------
     ethr =  5.10E-09,  avg # of iterations = 13.7

     negative rho (up, down):  4.967E-04 0.000E+00

     add environment contribution to local potential

     total cpu time spent up to now is      840.1 secs

     total energy              =    -661.81232313 Ry
     estimated scf accuracy    <       0.00000442 Ry

     total charge of GC-SCF    =       2.58327184 e
     the Fermi energy          =      -3.90228832 eV
                        (error :       0.00171168 eV)
     electrostatic embedding   =      -0.88399098 Ry
     cavitation energy         =       0.02535934 Ry
     electrolyte free energy   =      -0.02206078 Ry
     correction to one-el term =     -74.13256801 Ry

     iteration # 21     ecut=    80.00 Ry     beta= 0.20
     Davidson diagonalization with overlap

---- Real-time Memory Report at c_bands before calling an iterative solver
           623 MiB given to the printing process from OS
           193 MiB allocation reported by mallinfo(arena+hblkhd)
        169859 MiB available memory on the node where the printing process lives
------------------
     ethr =  3.42E-09,  avg # of iterations = 14.6

     negative rho (up, down):  4.741E-04 0.000E+00

     add environment contribution to local potential

     total cpu time spent up to now is      872.0 secs

     total energy              =    -661.81230439 Ry
     estimated scf accuracy    <       0.00000184 Ry

     total charge of GC-SCF    =       2.58771933 e
     the Fermi energy          =      -3.90443809 eV
                        (error :       0.00043809 eV)
     electrostatic embedding   =      -0.88995736 Ry
     cavitation energy         =       0.02535934 Ry
     electrolyte free energy   =      -0.02215065 Ry
     correction to one-el term =     -74.39264684 Ry

     iteration # 22     ecut=    80.00 Ry     beta= 0.20
     Davidson diagonalization with overlap

---- Real-time Memory Report at c_bands before calling an iterative solver
           623 MiB given to the printing process from OS
           193 MiB allocation reported by mallinfo(arena+hblkhd)
        169861 MiB available memory on the node where the printing process lives
------------------
     ethr =  1.42E-09,  avg # of iterations = 13.8

     negative rho (up, down):  4.372E-04 0.000E+00

     add environment contribution to local potential

     total cpu time spent up to now is      901.6 secs

     total energy              =    -661.81230311 Ry
     estimated scf accuracy    <       0.00000115 Ry

     total charge of GC-SCF    =       2.59063959 e
     the Fermi energy          =      -3.90482718 eV
                        (error :       0.00082718 eV)
     electrostatic embedding   =      -0.89330413 Ry
     cavitation energy         =       0.02535934 Ry
     electrolyte free energy   =      -0.02220352 Ry
     correction to one-el term =     -74.51213523 Ry

     iteration # 23     ecut=    80.00 Ry     beta= 0.20
     Davidson diagonalization with overlap

---- Real-time Memory Report at c_bands before calling an iterative solver
           623 MiB given to the printing process from OS
           193 MiB allocation reported by mallinfo(arena+hblkhd)
        169858 MiB available memory on the node where the printing process lives
------------------
     ethr =  8.88E-10,  avg # of iterations = 13.4

     negative rho (up, down):  4.430E-04 0.000E+00

     add environment contribution to local potential

     total cpu time spent up to now is      931.6 secs

     total energy              =    -661.81229163 Ry
     estimated scf accuracy    <       0.00000047 Ry

     total charge of GC-SCF    =       2.59060593 e
     the Fermi energy          =      -3.90600473 eV
                        (error :       0.00200473 eV)
     electrostatic embedding   =      -0.89541244 Ry
     cavitation energy         =       0.02535934 Ry
     electrolyte free energy   =      -0.02224262 Ry
     correction to one-el term =     -74.59105477 Ry

     iteration # 24     ecut=    80.00 Ry     beta= 0.20
     Davidson diagonalization with overlap

---- Real-time Memory Report at c_bands before calling an iterative solver
           623 MiB given to the printing process from OS
           193 MiB allocation reported by mallinfo(arena+hblkhd)
        169849 MiB available memory on the node where the printing process lives
------------------
     ethr =  3.64E-10,  avg # of iterations = 15.4

     negative rho (up, down):  4.305E-04 0.000E+00

     add environment contribution to local potential

     total cpu time spent up to now is      962.5 secs

     total energy              =    -661.81230327 Ry
     estimated scf accuracy    <       0.00000023 Ry

     total charge of GC-SCF    =       2.59194386 e
     the Fermi energy          =      -3.90492703 eV
                        (error :       0.00092703 eV)
     electrostatic embedding   =      -0.89510557 Ry
     cavitation energy         =       0.02535934 Ry
     electrolyte free energy   =      -0.02223582 Ry
     correction to one-el term =     -74.57001001 Ry

     iteration # 25     ecut=    80.00 Ry     beta= 0.20
     Davidson diagonalization with overlap

---- Real-time Memory Report at c_bands before calling an iterative solver
           623 MiB given to the printing process from OS
           193 MiB allocation reported by mallinfo(arena+hblkhd)
        169853 MiB available memory on the node where the printing process lives
------------------
     ethr =  1.81E-10,  avg # of iterations = 12.9

     negative rho (up, down):  4.309E-04 0.000E+00

     add environment contribution to local potential

     total cpu time spent up to now is      989.9 secs

     total energy              =    -661.81228941 Ry
     estimated scf accuracy    <       0.00000019 Ry

     total charge of GC-SCF    =       2.59116951 e
     the Fermi energy          =      -3.90656888 eV
                        (error :       0.00256888 eV)
     electrostatic embedding   =      -0.89612399 Ry
     cavitation energy         =       0.02535934 Ry
     electrolyte free energy   =      -0.02225725 Ry
     correction to one-el term =     -74.61335652 Ry

     iteration # 26     ecut=    80.00 Ry     beta= 0.20
     Davidson diagonalization with overlap

---- Real-time Memory Report at c_bands before calling an iterative solver
           623 MiB given to the printing process from OS
           193 MiB allocation reported by mallinfo(arena+hblkhd)
        169850 MiB available memory on the node where the printing process lives
------------------
     ethr =  1.50E-10,  avg # of iterations = 13.5

     negative rho (up, down):  4.365E-04 0.000E+00

     add environment contribution to local potential

     total cpu time spent up to now is     1020.5 secs

     total energy              =    -661.81230190 Ry
     estimated scf accuracy    <       0.00000038 Ry

     total charge of GC-SCF    =       2.58996422 e
     the Fermi energy          =      -3.90428912 eV
                        (error :       0.00028912 eV)
     electrostatic embedding   =      -0.89563354 Ry
     cavitation energy         =       0.02535934 Ry
     electrolyte free energy   =      -0.02224463 Ry
     correction to one-el term =     -74.59542373 Ry

     iteration # 27     ecut=    80.00 Ry     beta= 0.20
     Davidson diagonalization with overlap

---- Real-time Memory Report at c_bands before calling an iterative solver
           623 MiB given to the printing process from OS
           193 MiB allocation reported by mallinfo(arena+hblkhd)
        169845 MiB available memory on the node where the printing process lives
------------------
     ethr =  1.50E-10,  avg # of iterations = 14.3

     negative rho (up, down):  4.296E-04 0.000E+00

     add environment contribution to local potential

     total cpu time spent up to now is     1050.3 secs

     total energy              =    -661.81230818 Ry
     estimated scf accuracy    <       0.00000005 Ry

     total charge of GC-SCF    =       2.58730105 e
     the Fermi energy          =      -3.90440596 eV
                        (error :       0.00040596 eV)
     electrostatic embedding   =      -0.89453736 Ry
     cavitation energy         =       0.02535934 Ry
     electrolyte free energy   =      -0.02222500 Ry
     correction to one-el term =     -74.54607801 Ry

     iteration # 28     ecut=    80.00 Ry     beta= 0.20
     Davidson diagonalization with overlap

---- Real-time Memory Report at c_bands before calling an iterative solver
           623 MiB given to the printing process from OS
           193 MiB allocation reported by mallinfo(arena+hblkhd)
        169833 MiB available memory on the node where the printing process lives
------------------
     ethr =  3.68E-11,  avg # of iterations = 28.4

     negative rho (up, down):  4.305E-04 0.000E+00

     add environment contribution to local potential

     total cpu time spent up to now is     1092.0 secs

     total energy              =    -661.81231867 Ry
     estimated scf accuracy    <       0.00000004 Ry

     total charge of GC-SCF    =       2.58860057 e
     the Fermi energy          =      -3.90325031 eV
                        (error :       0.00074969 eV)
     electrostatic embedding   =      -0.89257492 Ry
     cavitation energy         =       0.02535934 Ry
     electrolyte free energy   =      -0.02218670 Ry
     correction to one-el term =     -74.46581453 Ry

     iteration # 29     ecut=    80.00 Ry     beta= 0.20
     Davidson diagonalization with overlap

---- Real-time Memory Report at c_bands before calling an iterative solver
           623 MiB given to the printing process from OS
           193 MiB allocation reported by mallinfo(arena+hblkhd)
        169840 MiB available memory on the node where the printing process lives
------------------
     ethr =  2.77E-11,  avg # of iterations = 13.4

     negative rho (up, down):  4.305E-04 0.000E+00

     add environment contribution to local potential

     total cpu time spent up to now is     1120.8 secs

     total energy              =    -661.81231240 Ry
     estimated scf accuracy    <          9.3E-09 Ry

     total charge of GC-SCF    =       2.58921425 e
     the Fermi energy          =      -3.90389707 eV
                        (error :       0.00010293 eV)
     electrostatic embedding   =      -0.89355502 Ry
     cavitation energy         =       0.02535934 Ry
     electrolyte free energy   =      -0.02220599 Ry
     correction to one-el term =     -74.50634481 Ry

     iteration # 30     ecut=    80.00 Ry     beta= 0.20
     Davidson diagonalization with overlap

---- Real-time Memory Report at c_bands before calling an iterative solver
           623 MiB given to the printing process from OS
           193 MiB allocation reported by mallinfo(arena+hblkhd)
        169839 MiB available memory on the node where the printing process lives
------------------
     ethr =  7.22E-12,  avg # of iterations = 16.2

     negative rho (up, down):  4.306E-04 0.000E+00

     add environment contribution to local potential

     total cpu time spent up to now is     1153.1 secs

     total energy              =    -661.81230933 Ry
     estimated scf accuracy    <          3.6E-09 Ry

     total charge of GC-SCF    =       2.58936915 e
     the Fermi energy          =      -3.90425107 eV
                        (error :       0.00025107 eV)
     electrostatic embedding   =      -0.89400491 Ry
     cavitation energy         =       0.02535934 Ry
     electrolyte free energy   =      -0.02221483 Ry
     correction to one-el term =     -74.52433833 Ry

     iteration # 31     ecut=    80.00 Ry     beta= 0.20
     Davidson diagonalization with overlap

---- Real-time Memory Report at c_bands before calling an iterative solver
           623 MiB given to the printing process from OS
           193 MiB allocation reported by mallinfo(arena+hblkhd)
        169839 MiB available memory on the node where the printing process lives
------------------
     ethr =  2.79E-12,  avg # of iterations = 12.0

     negative rho (up, down):  4.309E-04 0.000E+00

     add environment contribution to local potential

     total cpu time spent up to now is     1180.2 secs

     total energy              =    -661.81230845 Ry
     estimated scf accuracy    <          9.6E-10 Ry

     total charge of GC-SCF    =       2.58902969 e
     the Fermi energy          =      -3.90431336 eV
                        (error :       0.00031336 eV)
     electrostatic embedding   =      -0.89413096 Ry
     cavitation energy         =       0.02535934 Ry
     electrolyte free energy   =      -0.02221732 Ry
     correction to one-el term =     -74.52994161 Ry

     iteration # 32     ecut=    80.00 Ry     beta= 0.20
     Davidson diagonalization with overlap

---- Real-time Memory Report at c_bands before calling an iterative solver
           623 MiB given to the printing process from OS
           193 MiB allocation reported by mallinfo(arena+hblkhd)
        169834 MiB available memory on the node where the printing process lives
------------------
     ethr =  7.44E-13,  avg # of iterations = 25.4

     negative rho (up, down):  4.314E-04 0.000E+00

     add environment contribution to local potential

     total cpu time spent up to now is     1219.1 secs

     total energy              =    -661.81230990 Ry
     estimated scf accuracy    <          4.6E-10 Ry

     total charge of GC-SCF    =       2.58887064 e
     the Fermi energy          =      -3.90417424 eV
                        (error :       0.00017424 eV)
     electrostatic embedding   =      -0.89387922 Ry
     cavitation energy         =       0.02535934 Ry
     electrolyte free energy   =      -0.02221249 Ry
     correction to one-el term =     -74.51978119 Ry

     iteration # 33     ecut=    80.00 Ry     beta= 0.20
     Davidson diagonalization with overlap

---- Real-time Memory Report at c_bands before calling an iterative solver
           623 MiB given to the printing process from OS
           193 MiB allocation reported by mallinfo(arena+hblkhd)
        169832 MiB available memory on the node where the printing process lives
------------------
     ethr =  3.54E-13,  avg # of iterations = 17.1

     negative rho (up, down):  4.325E-04 0.000E+00

     add environment contribution to local potential

     total cpu time spent up to now is     1251.7 secs

     total energy              =    -661.81231058 Ry
     estimated scf accuracy    <          3.1E-10 Ry

     total charge of GC-SCF    =       2.58860995 e
     the Fermi energy          =      -3.90410256 eV
                        (error :       0.00010256 eV)
     electrostatic embedding   =      -0.89375976 Ry
     cavitation energy         =       0.02535934 Ry
     electrolyte free energy   =      -0.02221026 Ry
     correction to one-el term =     -74.51503941 Ry

     iteration # 34     ecut=    80.00 Ry     beta= 0.20
     Davidson diagonalization with overlap

---- Real-time Memory Report at c_bands before calling an iterative solver
           623 MiB given to the printing process from OS
           193 MiB allocation reported by mallinfo(arena+hblkhd)
        169828 MiB available memory on the node where the printing process lives
------------------
     ethr =  2.39E-13,  avg # of iterations = 28.6

     negative rho (up, down):  4.324E-04 0.000E+00

     add environment contribution to local potential

     total cpu time spent up to now is     1294.7 secs

     total energy              =    -661.81231174 Ry
     estimated scf accuracy    <          8.4E-11 Ry

     total charge of GC-SCF    =       2.58859348 e
     the Fermi energy          =      -3.90398484 eV
                        (error :       0.00001516 eV)
     electrostatic embedding   =      -0.89355986 Ry
     cavitation energy         =       0.02535934 Ry
     electrolyte free energy   =      -0.02220650 Ry
     correction to one-el term =     -74.50693459 Ry

     iteration # 35     ecut=    80.00 Ry     beta= 0.20
     Davidson diagonalization with overlap

---- Real-time Memory Report at c_bands before calling an iterative solver
           623 MiB given to the printing process from OS
           193 MiB allocation reported by mallinfo(arena+hblkhd)
        169824 MiB available memory on the node where the printing process lives
------------------
     ethr =  1.00E-13,  avg # of iterations = 14.3

     negative rho (up, down):  4.323E-04 0.000E+00

     add environment contribution to local potential

     total cpu time spent up to now is     1323.8 secs

     total energy              =    -661.81231181 Ry
     estimated scf accuracy    <          8.0E-11 Ry

     total charge of GC-SCF    =       2.58861665 e
     the Fermi energy          =      -3.90398445 eV
                        (error :       0.00001555 eV)
     electrostatic embedding   =      -0.89354423 Ry
     cavitation energy         =       0.02535934 Ry
     electrolyte free energy   =      -0.02220622 Ry
     correction to one-el term =     -74.50622453 Ry

     iteration # 36     ecut=    80.00 Ry     beta= 0.20
     Davidson diagonalization with overlap

---- Real-time Memory Report at c_bands before calling an iterative solver
           623 MiB given to the printing process from OS
           193 MiB allocation reported by mallinfo(arena+hblkhd)
        169824 MiB available memory on the node where the printing process lives
------------------
     ethr =  1.00E-13,  avg # of iterations = 13.0

     negative rho (up, down):  4.320E-04 0.000E+00

     add environment contribution to local potential

     total cpu time spent up to now is     1350.8 secs

     total energy              =    -661.81231174 Ry
     estimated scf accuracy    <          1.6E-11 Ry

     total charge of GC-SCF    =       2.58861985 e
     the Fermi energy          =      -3.90398913 eV
                        (error :       0.00001087 eV)
     electrostatic embedding   =      -0.89356160 Ry
     cavitation energy         =       0.02535934 Ry
     electrolyte free energy   =      -0.02220656 Ry
     correction to one-el term =     -74.50692833 Ry

     iteration # 37     ecut=    80.00 Ry     beta= 0.20
     Davidson diagonalization with overlap

---- Real-time Memory Report at c_bands before calling an iterative solver
           623 MiB given to the printing process from OS
           193 MiB allocation reported by mallinfo(arena+hblkhd)
        169826 MiB available memory on the node where the printing process lives
------------------
     ethr =  1.00E-13,  avg # of iterations = 13.2

     negative rho (up, down):  4.317E-04 0.000E+00

     add environment contribution to local potential

     total cpu time spent up to now is     1376.2 secs

     total energy              =    -661.81231174 Ry
     estimated scf accuracy    <          7.5E-12 Ry

     total charge of GC-SCF    =       2.58863398 e
     the Fermi energy          =      -3.90399029 eV
                        (error :       0.00000971 eV)
     electrostatic embedding   =      -0.89356358 Ry
     cavitation energy         =       0.02535934 Ry
     electrolyte free energy   =      -0.02220658 Ry
     correction to one-el term =     -74.50697136 Ry

     iteration # 38     ecut=    80.00 Ry     beta= 0.20
     Davidson diagonalization with overlap

---- Real-time Memory Report at c_bands before calling an iterative solver
           623 MiB given to the printing process from OS
           193 MiB allocation reported by mallinfo(arena+hblkhd)
        169827 MiB available memory on the node where the printing process lives
------------------
     ethr =  1.00E-13,  avg # of iterations = 13.2

     negative rho (up, down):  4.313E-04 0.000E+00

     add environment contribution to local potential

     total cpu time spent up to now is     1400.8 secs

     total energy              =    -661.81231167 Ry
     estimated scf accuracy    <          4.8E-12 Ry

     total charge of GC-SCF    =       2.58864997 e
     the Fermi energy          =      -3.90399760 eV
                        (error :       0.00000240 eV)
     electrostatic embedding   =      -0.89357418 Ry
     cavitation energy         =       0.02535934 Ry
     electrolyte free energy   =      -0.02220678 Ry
     correction to one-el term =     -74.50739665 Ry

     iteration # 39     ecut=    80.00 Ry     beta= 0.20
     Davidson diagonalization with overlap

---- Real-time Memory Report at c_bands before calling an iterative solver
           623 MiB given to the printing process from OS
           193 MiB allocation reported by mallinfo(arena+hblkhd)
        169829 MiB available memory on the node where the printing process lives
------------------
     ethr =  1.00E-13,  avg # of iterations =  9.6

     negative rho (up, down):  4.311E-04 0.000E+00

     add environment contribution to local potential

     total cpu time spent up to now is     1422.3 secs

     total energy              =    -661.81231161 Ry
     estimated scf accuracy    <          2.7E-12 Ry

     total charge of GC-SCF    =       2.58864957 e
     the Fermi energy          =      -3.90400197 eV
                        (error :       0.00000197 eV)
     electrostatic embedding   =      -0.89358670 Ry
     cavitation energy         =       0.02535934 Ry
     electrolyte free energy   =      -0.02220701 Ry
     correction to one-el term =     -74.50791157 Ry

     iteration # 40     ecut=    80.00 Ry     beta= 0.20
     Davidson diagonalization with overlap

---- Real-time Memory Report at c_bands before calling an iterative solver
           623 MiB given to the printing process from OS
           193 MiB allocation reported by mallinfo(arena+hblkhd)
        169820 MiB available memory on the node where the printing process lives
------------------
     ethr =  1.00E-13,  avg # of iterations =  7.7

     negative rho (up, down):  4.310E-04 0.000E+00

     add environment contribution to local potential

     total cpu time spent up to now is     1441.7 secs

     total energy              =    -661.81231160 Ry
     estimated scf accuracy    <          1.0E-12 Ry

     total charge of GC-SCF    =       2.58864920 e
     the Fermi energy          =      -3.90400249 eV
                        (error :       0.00000249 eV)
     electrostatic embedding   =      -0.89358633 Ry
     cavitation energy         =       0.02535934 Ry
     electrolyte free energy   =      -0.02220701 Ry
     correction to one-el term =     -74.50789497 Ry

     iteration # 41     ecut=    80.00 Ry     beta= 0.20
     Davidson diagonalization with overlap

---- Real-time Memory Report at c_bands before calling an iterative solver
           623 MiB given to the printing process from OS
           193 MiB allocation reported by mallinfo(arena+hblkhd)
        169821 MiB available memory on the node where the printing process lives
------------------
     ethr =  1.00E-13,  avg # of iterations =  2.4

     negative rho (up, down):  4.309E-04 0.000E+00

     add environment contribution to local potential

     total cpu time spent up to now is     1458.6 secs

     total energy              =    -661.81231161 Ry
     estimated scf accuracy    <          5.0E-13 Ry

     total charge of GC-SCF    =       2.58864337 e
     the Fermi energy          =      -3.90400119 eV
                        (error :       0.00000119 eV)
     electrostatic embedding   =      -0.89358637 Ry
     cavitation energy         =       0.02535934 Ry
     electrolyte free energy   =      -0.02220701 Ry
     correction to one-el term =     -74.50790184 Ry

     iteration # 42     ecut=    80.00 Ry     beta= 0.20
     Davidson diagonalization with overlap

---- Real-time Memory Report at c_bands before calling an iterative solver
           623 MiB given to the printing process from OS
           193 MiB allocation reported by mallinfo(arena+hblkhd)
        169822 MiB available memory on the node where the printing process lives
------------------
     ethr =  1.00E-13,  avg # of iterations =  3.8

     negative rho (up, down):  4.309E-04 0.000E+00

     add environment contribution to local potential

     total cpu time spent up to now is     1474.5 secs

     total energy              =    -661.81231164 Ry
     estimated scf accuracy    <          2.1E-13 Ry

     total charge of GC-SCF    =       2.58864036 e
     the Fermi energy          =      -3.90399836 eV
                        (error :       0.00000164 eV)
     electrostatic embedding   =      -0.89358203 Ry
     cavitation energy         =       0.02535934 Ry
     electrolyte free energy   =      -0.02220692 Ry
     correction to one-el term =     -74.50772339 Ry

     iteration # 43     ecut=    80.00 Ry     beta= 0.20
     Davidson diagonalization with overlap

---- Real-time Memory Report at c_bands before calling an iterative solver
           623 MiB given to the printing process from OS
           193 MiB allocation reported by mallinfo(arena+hblkhd)
        169823 MiB available memory on the node where the printing process lives
------------------
     ethr =  1.00E-13,  avg # of iterations =  2.1

     negative rho (up, down):  4.308E-04 0.000E+00

     add environment contribution to local potential

     total cpu time spent up to now is     1491.1 secs

     total energy              =    -661.81231165 Ry
     estimated scf accuracy    <          1.1E-13 Ry

     total charge of GC-SCF    =       2.58864118 e
     the Fermi energy          =      -3.90399651 eV
                        (error :       0.00000349 eV)
     electrostatic embedding   =      -0.89357968 Ry
     cavitation energy         =       0.02535934 Ry
     electrolyte free energy   =      -0.02220687 Ry
     correction to one-el term =     -74.50762607 Ry

     iteration # 44     ecut=    80.00 Ry     beta= 0.20
     Davidson diagonalization with overlap

---- Real-time Memory Report at c_bands before calling an iterative solver
           623 MiB given to the printing process from OS
           193 MiB allocation reported by mallinfo(arena+hblkhd)
        169815 MiB available memory on the node where the printing process lives
------------------
     ethr =  1.00E-13,  avg # of iterations =  2.0

     negative rho (up, down):  4.308E-04 0.000E+00

     add environment contribution to local potential

     total cpu time spent up to now is     1507.5 secs

     total energy              =    -661.81231165 Ry
     estimated scf accuracy    <          7.8E-14 Ry

     total charge of GC-SCF    =       2.58864490 e
     the Fermi energy          =      -3.90399677 eV
                        (error :       0.00000323 eV)
     electrostatic embedding   =      -0.89358025 Ry
     cavitation energy         =       0.02535934 Ry
     electrolyte free energy   =      -0.02220689 Ry
     correction to one-el term =     -74.50764934 Ry

     iteration # 45     ecut=    80.00 Ry     beta= 0.20
     Davidson diagonalization with overlap

---- Real-time Memory Report at c_bands before calling an iterative solver
           623 MiB given to the printing process from OS
           193 MiB allocation reported by mallinfo(arena+hblkhd)
        169817 MiB available memory on the node where the printing process lives
------------------
     ethr =  1.00E-13,  avg # of iterations =  2.4

     negative rho (up, down):  4.308E-04 0.000E+00

     add environment contribution to local potential

     total cpu time spent up to now is     1522.7 secs

     total energy              =    -661.81231163 Ry
     estimated scf accuracy    <          2.3E-14 Ry

     total charge of GC-SCF    =       2.58864719 e
     the Fermi energy          =      -3.90399862 eV
                        (error :       0.00000138 eV)
     electrostatic embedding   =      -0.89358307 Ry
     cavitation energy         =       0.02535934 Ry
     electrolyte free energy   =      -0.02220694 Ry
     correction to one-el term =     -74.50776652 Ry

     iteration # 46     ecut=    80.00 Ry     beta= 0.20
     Davidson diagonalization with overlap

---- Real-time Memory Report at c_bands before calling an iterative solver
           623 MiB given to the printing process from OS
           193 MiB allocation reported by mallinfo(arena+hblkhd)
        169818 MiB available memory on the node where the printing process lives
------------------
     ethr =  1.00E-13,  avg # of iterations =  2.1

     negative rho (up, down):  4.307E-04 0.000E+00

     add environment contribution to local potential

     total cpu time spent up to now is     1538.3 secs

     total energy              =    -661.81231162 Ry
     estimated scf accuracy    <          1.1E-14 Ry

     total charge of GC-SCF    =       2.58864796 e
     the Fermi energy          =      -3.90399984 eV
                        (error :       0.00000016 eV)
     electrostatic embedding   =      -0.89358480 Ry
     cavitation energy         =       0.02535934 Ry
     electrolyte free energy   =      -0.02220697 Ry
     correction to one-el term =     -74.50783773 Ry

     iteration # 47     ecut=    80.00 Ry     beta= 0.20
     Davidson diagonalization with overlap

---- Real-time Memory Report at c_bands before calling an iterative solver
           623 MiB given to the printing process from OS
           193 MiB allocation reported by mallinfo(arena+hblkhd)
        169815 MiB available memory on the node where the printing process lives
------------------
     ethr =  1.00E-13,  avg # of iterations =  2.4

     negative rho (up, down):  4.306E-04 0.000E+00

     total cpu time spent up to now is     1545.9 secs

     End of self-consistent calculation

          k = 0.0000 0.0000 0.0000 (250151 PWs)   bands (ev):

   -51.8971 -51.8969 -51.8969 -51.8968 -51.4972 -51.4972 -51.4972 -51.4972
   -50.5805 -50.5801 -50.5797 -50.5793 -50.5345 -50.5345 -50.5345 -50.5345
   -50.4478 -50.4455 -50.4401 -50.4401 -50.4383 -50.4383 -50.4364 -50.4334
   -50.4331 -50.4331 -50.4327 -50.4321 -50.4235 -50.4223 -50.4223 -50.4216
   -50.4211 -50.4211 -50.4205 -50.4165 -50.4147 -50.4147 -50.4145 -50.4145
   -50.3671 -50.3671 -50.3668 -50.3668  -7.3486  -7.0604  -6.5986  -6.1575
    -6.1575  -5.9621  -5.8631  -5.8631  -5.3918  -5.3918  -5.2061  -4.7464
    -4.7464  -4.3810  -4.0096  -4.0025  -4.0025  -3.8609  -3.5809  -3.5409
    -3.5108  -3.5108  -3.4923  -3.1648  -3.1648  -3.1324  -3.1247  -3.0894
    -3.0894  -3.0456  -3.0294  -2.6388  -2.6388  -2.5728  -2.5392  -2.3954
    -2.1772  -2.1771  -2.0323  -1.9553  -1.9553  -1.7496  -1.6966  -1.5650
    -1.0884  -0.9968  -0.9968  -0.7544  -0.7544  -0.6391  -0.6294  -0.6244
    -0.6244  -0.6049  -0.5924

     occupation numbers 
     1.0000   1.0000   1.0000   1.0000   1.0000   1.0000   1.0000   1.0000
     1.0000   1.0000   1.0000   1.0000   1.0000   1.0000   1.0000   1.0000
     1.0000   1.0000   1.0000   1.0000   1.0000   1.0000   1.0000   1.0000
     1.0000   1.0000   1.0000   1.0000   1.0000   1.0000   1.0000   1.0000
     1.0000   1.0000   1.0000   1.0000   1.0000   1.0000   1.0000   1.0000
     1.0000   1.0000   1.0000   1.0000   1.0000   1.0000   1.0000   1.0000
     1.0000   1.0000   1.0000   1.0000   1.0000   1.0000   1.0000   1.0000
     1.0000   1.0001   0.9361   0.9083   0.9083   0.2136   0.0000   0.0000
     0.0000   0.0000   0.0000   0.0000   0.0000   0.0000   0.0000   0.0000
     0.0000   0.0000   0.0000   0.0000   0.0000   0.0000   0.0000   0.0000
     0.0000   0.0000   0.0000   0.0000   0.0000   0.0000   0.0000   0.0000
     0.0000   0.0000   0.0000   0.0000   0.0000   0.0000   0.0000   0.0000
     0.0000   0.0000   0.0000

          k = 0.0000 0.1421 0.0000 (249995 PWs)   bands (ev):

   -51.8971 -51.8969 -51.8969 -51.8968 -51.4972 -51.4972 -51.4972 -51.4972
   -50.5805 -50.5801 -50.5797 -50.5793 -50.5345 -50.5345 -50.5345 -50.5345
   -50.4476 -50.4454 -50.4400 -50.4400 -50.4382 -50.4382 -50.4364 -50.4334
   -50.4331 -50.4331 -50.4328 -50.4321 -50.4238 -50.4224 -50.4224 -50.4215
   -50.4210 -50.4210 -50.4206 -50.4163 -50.4147 -50.4147 -50.4145 -50.4145
   -50.3671 -50.3671 -50.3668 -50.3668  -7.3246  -7.0362  -6.5744  -6.1332
    -6.1332  -5.9379  -5.8389  -5.8389  -5.3679  -5.3679  -5.1823  -4.7235
    -4.7235  -4.4421  -4.3588  -4.1520  -3.9832  -3.9832  -3.6821  -3.6343
    -3.6343  -3.4607  -3.2926  -3.2926  -3.2665  -3.1622  -3.1010  -3.0931
    -3.0931  -3.0096  -2.9020  -2.7868  -2.7868  -2.5080  -2.4662  -2.2977
    -2.2977  -2.2749  -2.0408  -1.8625  -1.8625  -1.7420  -1.6657  -1.4728
    -1.0636  -0.9796  -0.9796  -0.7048  -0.7048  -0.6795  -0.5993  -0.5979
    -0.5752  -0.5752  -0.4539

     occupation numbers 
     1.0000   1.0000   1.0000   1.0000   1.0000   1.0000   1.0000   1.0000
     1.0000   1.0000   1.0000   1.0000   1.0000   1.0000   1.0000   1.0000
     1.0000   1.0000   1.0000   1.0000   1.0000   1.0000   1.0000   1.0000
     1.0000   1.0000   1.0000   1.0000   1.0000   1.0000   1.0000   1.0000
     1.0000   1.0000   1.0000   1.0000   1.0000   1.0000   1.0000   1.0000
     1.0000   1.0000   1.0000   1.0000   1.0000   1.0000   1.0000   1.0000
     1.0000   1.0000   1.0000   1.0000   1.0000   1.0000   1.0000   1.0000
     1.0000   1.0000   1.0003   1.0576   0.8226   0.8226   0.0022   0.0004
     0.0004   0.0000   0.0000   0.0000   0.0000   0.0000   0.0000   0.0000
     0.0000   0.0000   0.0000   0.0000   0.0000   0.0000   0.0000   0.0000
     0.0000   0.0000   0.0000   0.0000   0.0000   0.0000   0.0000   0.0000
     0.0000   0.0000   0.0000   0.0000   0.0000   0.0000   0.0000   0.0000
     0.0000   0.0000   0.0000

          k = 0.0000 0.2843 0.0000 (249899 PWs)   bands (ev):

   -51.8971 -51.8969 -51.8969 -51.8968 -51.4972 -51.4972 -51.4972 -51.4972
   -50.5805 -50.5801 -50.5797 -50.5792 -50.5345 -50.5345 -50.5345 -50.5345
   -50.4472 -50.4451 -50.4399 -50.4399 -50.4381 -50.4381 -50.4365 -50.4336
   -50.4331 -50.4331 -50.4331 -50.4321 -50.4245 -50.4227 -50.4227 -50.4213
   -50.4209 -50.4209 -50.4207 -50.4160 -50.4147 -50.4147 -50.4145 -50.4145
   -50.3671 -50.3671 -50.3668 -50.3668  -7.2524  -6.9638  -6.5017  -6.0603
    -6.0603  -5.8650  -5.7662  -5.7662  -5.2962  -5.2962  -5.1112  -4.9352
    -4.6551  -4.6551  -4.6394  -4.3148  -4.1464  -3.9483  -3.9483  -3.9109
    -3.9109  -3.5960  -3.5960  -3.5423  -3.3661  -3.1795  -3.1795  -3.1590
    -3.0214  -3.0214  -3.0068  -2.6713  -2.5629  -2.5205  -2.5205  -2.4144
    -2.3198  -2.1305  -1.9082  -1.9009  -1.9009  -1.6480  -1.5733  -1.2118
    -1.0005  -0.8983  -0.8983  -0.6210  -0.6049  -0.6049  -0.5244  -0.5096
    -0.4701  -0.3439  -0.3129

     occupation numbers 
     1.0000   1.0000   1.0000   1.0000   1.0000   1.0000   1.0000   1.0000
     1.0000   1.0000   1.0000   1.0000   1.0000   1.0000   1.0000   1.0000
     1.0000   1.0000   1.0000   1.0000   1.0000   1.0000   1.0000   1.0000
     1.0000   1.0000   1.0000   1.0000   1.0000   1.0000   1.0000   1.0000
     1.0000   1.0000   1.0000   1.0000   1.0000   1.0000   1.0000   1.0000
     1.0000   1.0000   1.0000   1.0000   1.0000   1.0000   1.0000   1.0000
     1.0000   1.0000   1.0000   1.0000   1.0000   1.0000   1.0000   1.0000
     1.0000   1.0000   1.0000   1.0014   1.0615   0.6396   0.6396   0.4360
     0.4359   0.0001   0.0001   0.0000   0.0000   0.0000   0.0000   0.0000
     0.0000   0.0000   0.0000   0.0000   0.0000   0.0000   0.0000   0.0000
     0.0000   0.0000   0.0000   0.0000   0.0000   0.0000   0.0000   0.0000
     0.0000   0.0000   0.0000   0.0000   0.0000   0.0000   0.0000   0.0000
     0.0000   0.0000   0.0000

          k = 0.0000 0.4264 0.0000 (249905 PWs)   bands (ev):

   -51.8971 -51.8969 -51.8969 -51.8968 -51.4972 -51.4972 -51.4972 -51.4972
   -50.5805 -50.5800 -50.5797 -50.5792 -50.5346 -50.5345 -50.5345 -50.5345
   -50.4465 -50.4447 -50.4397 -50.4397 -50.4380 -50.4380 -50.4368 -50.4339
   -50.4332 -50.4332 -50.4332 -50.4321 -50.4254 -50.4231 -50.4231 -50.4210
   -50.4209 -50.4209 -50.4208 -50.4155 -50.4148 -50.4147 -50.4145 -50.4145
   -50.3671 -50.3671 -50.3668 -50.3668  -7.1320  -6.8430  -6.3805  -5.9392
    -5.9392  -5.7437  -5.6454  -5.6454  -5.3911  -5.1774  -5.1774  -5.1021
    -4.9847  -4.6315  -4.5442  -4.5442  -4.2874  -4.2874  -4.1883  -3.9995
    -3.9995  -3.9879  -3.8004  -3.8004  -3.5156  -3.5156  -3.3698  -3.2085
    -3.0901  -3.0901  -2.8502  -2.7542  -2.7542  -2.7383  -2.2813  -2.2590
    -2.0962  -2.0961  -2.0575  -1.8755  -1.6974  -1.4202  -1.3216  -0.9743
    -0.9349  -0.8562  -0.8562  -0.7699  -0.5884  -0.5774  -0.5622  -0.4881
    -0.4881  -0.4037  -0.3599

     occupation numbers 
     1.0000   1.0000   1.0000   1.0000   1.0000   1.0000   1.0000   1.0000
     1.0000   1.0000   1.0000   1.0000   1.0000   1.0000   1.0000   1.0000
     1.0000   1.0000   1.0000   1.0000   1.0000   1.0000   1.0000   1.0000
     1.0000   1.0000   1.0000   1.0000   1.0000   1.0000   1.0000   1.0000
     1.0000   1.0000   1.0000   1.0000   1.0000   1.0000   1.0000   1.0000
     1.0000   1.0000   1.0000   1.0000   1.0000   1.0000   1.0000   1.0000
     1.0000   1.0000   1.0000   1.0000   1.0000   1.0000   1.0000   1.0000
[...]
     atom   10 type  1   force =    -0.00004621    0.03068416   -6.58272357
     atom   11 type  1   force =    -0.00000001   -0.03594672   -6.07773575
     atom   12 type  1   force =    -0.00000001    0.04349629   -2.42752098
     atom   13 type  1   force =    -0.00000001   -0.03118854    0.31224173
     atom   14 type  1   force =    -0.00000001    0.03559747    4.14676738
     atom   15 type  1   force =    -0.00012798    0.03594555    6.07804278
     atom   16 type  1   force =    -0.00023045   -0.05974333    9.05207521
     atom   17 type  1   force =    -0.00011611   -0.04349497    2.42758744
     atom   18 type  1   force =     0.00000000   -0.03069312    6.58361999
     atom   19 type  1   force =    -0.00000001    0.07821704   10.73937084
     atom   20 type  1   force =    -0.00000001   -0.09459367   12.71056417
     atom   21 type  1   force =    -0.00033237    0.04708725   12.60671995
     atom   22 type  1   force =    -0.00041089   -0.01797675   15.26769680
     atom   23 type  1   force =     0.00000002    0.03012512   15.94099061
     atom   24 type  1   force =     0.00002662   -0.03018628  -15.94116258
     atom   25 type  1   force =     0.00002391    0.09460682  -12.71220637
     atom   26 type  1   force =     0.00000001    0.01800575  -15.26763535
     atom   27 type  1   force =    -0.00000000   -0.04709293  -12.60689139
     atom   28 type  1   force =     0.00000002    0.05974894   -9.05208370
     atom   29 type  1   force =     0.00005814   -0.03560141   -4.14663409
     atom   30 type  1   force =     0.00008824    0.03119011   -0.31276088
     atom   31 type  1   force =     0.00004315   -0.07823164  -10.73910720
     atom   32 type  1   force =     0.00004621    0.03068414   -6.58272357
     atom   33 type  1   force =    -0.00000000   -0.03594397   -6.07833657
     atom   34 type  1   force =     0.00000003    0.04348615   -2.42768223
     atom   35 type  1   force =     0.00000003   -0.03118537    0.31324161
     atom   36 type  1   force =     0.00000003    0.03560315    4.14645229
     atom   37 type  1   force =     0.00012798    0.03594553    6.07804278
     atom   38 type  1   force =     0.00023043   -0.05974331    9.05207519
     atom   39 type  1   force =     0.00011609   -0.04349496    2.42758745
     atom   40 type  1   force =    -0.00000001   -0.03066603    6.58178789
     atom   41 type  1   force =     0.00000004    0.07821980   10.73881286
     atom   42 type  1   force =     0.00000003   -0.09458324   12.71389717
     atom   43 type  1   force =     0.00033234    0.04708724   12.60671995
     atom   44 type  1   force =     0.00041088   -0.01797675   15.26769681
     The local contribution  to forces
     atom    1 type  1   force =     0.00000137   -0.03335976  -16.06462530
     atom    2 type  1   force =     0.00003455    0.03330767   16.06442499
     atom    3 type  1   force =     0.00002492   -0.11725570   12.81940853
     atom    4 type  1   force =     0.00000136   -0.01677168   15.43625351
     atom    5 type  1   force =    -0.00000000    0.05727549   12.70865489
     atom    6 type  1   force =     0.00000136   -0.05998858    9.11196092
     atom    7 type  1   force =     0.00006186    0.03840241    4.17931847
     atom    8 type  1   force =     0.00008975   -0.03497380    0.31240560
     atom    9 type  1   force =     0.00004728    0.08512914   10.82119277
     atom   10 type  1   force =     0.00004816   -0.03284665    6.62964754
     atom   11 type  1   force =    -0.00000000    0.03970702    6.12044243
     atom   12 type  1   force =     0.00000136   -0.04483023    2.44360814
     atom   13 type  1   force =     0.00000136    0.03497202   -0.31188761
     atom   14 type  1   force =     0.00000136   -0.03839907   -4.17947034
     atom   15 type  1   force =     0.00012801   -0.03970659   -6.12076041
     atom   16 type  1   force =     0.00024569    0.05998825   -9.11201615
     atom   17 type  1   force =     0.00012111    0.04482969   -2.44368754
     atom   18 type  1   force =    -0.00000000    0.03285705   -6.63056080
     atom   19 type  1   force =     0.00000136   -0.08511290  -10.82146371
     atom   20 type  1   force =     0.00000136    0.11723515  -12.81767887
     atom   21 type  1   force =     0.00035284   -0.05724454  -12.70884832
     atom   22 type  1   force =     0.00044831    0.01676301  -15.43625328
     atom   23 type  1   force =     0.00000274   -0.03322486  -16.06425141
     atom   24 type  1   force =    -0.00003182    0.03330767   16.06442499
     atom   25 type  1   force =    -0.00002220   -0.11725570   12.81940853
     atom   26 type  1   force =     0.00000273   -0.01679831   15.43619241
     atom   27 type  1   force =     0.00000135    0.05725014   12.70901584
     atom   28 type  1   force =     0.00000272   -0.05999634    9.11202018
     atom   29 type  1   force =    -0.00005914    0.03840241    4.17931847
     atom   30 type  1   force =    -0.00008703   -0.03497380    0.31240560
     atom   31 type  1   force =    -0.00004455    0.08512914   10.82119277
     atom   32 type  1   force =    -0.00004545   -0.03284665    6.62964754
     atom   33 type  1   force =     0.00000136    0.03970525    6.12105029
     atom   34 type  1   force =     0.00000272   -0.04482138    2.44378069
     atom   35 type  1   force =     0.00000272    0.03496951   -0.31290014
     atom   36 type  1   force =     0.00000272   -0.03840266   -4.17913220
     atom   37 type  1   force =    -0.00012530   -0.03970659   -6.12076041
     atom   38 type  1   force =    -0.00024297    0.05998825   -9.11201615
     atom   39 type  1   force =    -0.00011838    0.04482969   -2.44368754
     atom   40 type  1   force =     0.00000136    0.03282754   -6.62870881
     atom   41 type  1   force =     0.00000272   -0.08511867  -10.82090329
     atom   42 type  1   force =     0.00000272    0.11723970  -12.82120642
     atom   43 type  1   force =    -0.00035013   -0.05724454  -12.70884832
     atom   44 type  1   force =    -0.00044559    0.01676301  -15.43625328
     The core correction contribution to forces
     atom    1 type  1   force =     0.00000000    0.00000000    0.00000000
     atom    2 type  1   force =     0.00000000    0.00000000    0.00000000
     atom    3 type  1   force =     0.00000000    0.00000000    0.00000000
     atom    4 type  1   force =     0.00000000    0.00000000    0.00000000
     atom    5 type  1   force =     0.00000000    0.00000000    0.00000000
     atom    6 type  1   force =     0.00000000    0.00000000    0.00000000
     atom    7 type  1   force =     0.00000000    0.00000000    0.00000000
     atom    8 type  1   force =     0.00000000    0.00000000    0.00000000
     atom    9 type  1   force =     0.00000000    0.00000000    0.00000000
     atom   10 type  1   force =     0.00000000    0.00000000    0.00000000
     atom   11 type  1   force =     0.00000000    0.00000000    0.00000000
     atom   12 type  1   force =     0.00000000    0.00000000    0.00000000
     atom   13 type  1   force =     0.00000000    0.00000000    0.00000000
     atom   14 type  1   force =     0.00000000    0.00000000    0.00000000
     atom   15 type  1   force =     0.00000000    0.00000000    0.00000000
     atom   16 type  1   force =     0.00000000    0.00000000    0.00000000
     atom   17 type  1   force =     0.00000000    0.00000000    0.00000000
     atom   18 type  1   force =     0.00000000    0.00000000    0.00000000
     atom   19 type  1   force =     0.00000000    0.00000000    0.00000000
     atom   20 type  1   force =     0.00000000    0.00000000    0.00000000
     atom   21 type  1   force =     0.00000000    0.00000000    0.00000000
     atom   22 type  1   force =     0.00000000    0.00000000    0.00000000
     atom   23 type  1   force =     0.00000000    0.00000000    0.00000000
     atom   24 type  1   force =     0.00000000    0.00000000    0.00000000
     atom   25 type  1   force =     0.00000000    0.00000000    0.00000000
     atom   26 type  1   force =     0.00000000    0.00000000    0.00000000
     atom   27 type  1   force =     0.00000000    0.00000000    0.00000000
     atom   28 type  1   force =     0.00000000    0.00000000    0.00000000
     atom   29 type  1   force =     0.00000000    0.00000000    0.00000000
     atom   30 type  1   force =     0.00000000    0.00000000    0.00000000
     atom   31 type  1   force =     0.00000000    0.00000000    0.00000000
     atom   32 type  1   force =     0.00000000    0.00000000    0.00000000
     atom   33 type  1   force =     0.00000000    0.00000000    0.00000000
     atom   34 type  1   force =     0.00000000    0.00000000    0.00000000
     atom   35 type  1   force =     0.00000000    0.00000000    0.00000000
     atom   36 type  1   force =     0.00000000    0.00000000    0.00000000
     atom   37 type  1   force =     0.00000000    0.00000000    0.00000000
     atom   38 type  1   force =     0.00000000    0.00000000    0.00000000
     atom   39 type  1   force =     0.00000000    0.00000000    0.00000000
     atom   40 type  1   force =     0.00000000    0.00000000    0.00000000
     atom   41 type  1   force =     0.00000000    0.00000000    0.00000000
     atom   42 type  1   force =     0.00000000    0.00000000    0.00000000
     atom   43 type  1   force =     0.00000000    0.00000000    0.00000000
     atom   44 type  1   force =     0.00000000    0.00000000    0.00000000
     The Hubbard contrib.    to forces
     atom    1 type  1   force =     0.00000000    0.00000000    0.00000000
     atom    2 type  1   force =     0.00000000    0.00000000    0.00000000
     atom    3 type  1   force =     0.00000000    0.00000000    0.00000000
     atom    4 type  1   force =     0.00000000    0.00000000    0.00000000
     atom    5 type  1   force =     0.00000000    0.00000000    0.00000000
     atom    6 type  1   force =     0.00000000    0.00000000    0.00000000
     atom    7 type  1   force =     0.00000000    0.00000000    0.00000000
     atom    8 type  1   force =     0.00000000    0.00000000    0.00000000
     atom    9 type  1   force =     0.00000000    0.00000000    0.00000000
     atom   10 type  1   force =     0.00000000    0.00000000    0.00000000
     atom   11 type  1   force =     0.00000000    0.00000000    0.00000000
     atom   12 type  1   force =     0.00000000    0.00000000    0.00000000
     atom   13 type  1   force =     0.00000000    0.00000000    0.00000000
     atom   14 type  1   force =     0.00000000    0.00000000    0.00000000
     atom   15 type  1   force =     0.00000000    0.00000000    0.00000000
     atom   16 type  1   force =     0.00000000    0.00000000    0.00000000
     atom   17 type  1   force =     0.00000000    0.00000000    0.00000000
     atom   18 type  1   force =     0.00000000    0.00000000    0.00000000
     atom   19 type  1   force =     0.00000000    0.00000000    0.00000000
     atom   20 type  1   force =     0.00000000    0.00000000    0.00000000
     atom   21 type  1   force =     0.00000000    0.00000000    0.00000000
     atom   22 type  1   force =     0.00000000    0.00000000    0.00000000
     atom   23 type  1   force =     0.00000000    0.00000000    0.00000000
     atom   24 type  1   force =     0.00000000    0.00000000    0.00000000
     atom   25 type  1   force =     0.00000000    0.00000000    0.00000000
     atom   26 type  1   force =     0.00000000    0.00000000    0.00000000
     atom   27 type  1   force =     0.00000000    0.00000000    0.00000000
     atom   28 type  1   force =     0.00000000    0.00000000    0.00000000
     atom   29 type  1   force =     0.00000000    0.00000000    0.00000000
     atom   30 type  1   force =     0.00000000    0.00000000    0.00000000
     atom   31 type  1   force =     0.00000000    0.00000000    0.00000000
     atom   32 type  1   force =     0.00000000    0.00000000    0.00000000
     atom   33 type  1   force =     0.00000000    0.00000000    0.00000000
     atom   34 type  1   force =     0.00000000    0.00000000    0.00000000
     atom   35 type  1   force =     0.00000000    0.00000000    0.00000000
     atom   36 type  1   force =     0.00000000    0.00000000    0.00000000
     atom   37 type  1   force =     0.00000000    0.00000000    0.00000000
     atom   38 type  1   force =     0.00000000    0.00000000    0.00000000
     atom   39 type  1   force =     0.00000000    0.00000000    0.00000000
     atom   40 type  1   force =     0.00000000    0.00000000    0.00000000
     atom   41 type  1   force =     0.00000000    0.00000000    0.00000000
     atom   42 type  1   force =     0.00000000    0.00000000    0.00000000
     atom   43 type  1   force =     0.00000000    0.00000000    0.00000000
     atom   44 type  1   force =     0.00000000    0.00000000    0.00000000
     The SCF correction term to forces
     atom    1 type  1   force =     0.00000000    0.00000001    0.00000002
     atom    2 type  1   force =    -0.00000000   -0.00000000   -0.00000000
     atom    3 type  1   force =     0.00000000    0.00000002    0.00000012
     atom    4 type  1   force =    -0.00000000   -0.00000001    0.00000003
     atom    5 type  1   force =    -0.00000000   -0.00000001    0.00000012
     atom    6 type  1   force =     0.00000000    0.00000000    0.00000014
     atom    7 type  1   force =     0.00000000    0.00000000    0.00000005
     atom    8 type  1   force =     0.00000000   -0.00000001   -0.00000003
     atom    9 type  1   force =     0.00000000   -0.00000001    0.00000013
     atom   10 type  1   force =     0.00000000    0.00000000    0.00000010
     atom   11 type  1   force =     0.00000000   -0.00000000    0.00000009
     atom   12 type  1   force =    -0.00000000   -0.00000000    0.00000001
     atom   13 type  1   force =    -0.00000000    0.00000000   -0.00000005
     atom   14 type  1   force =    -0.00000000    0.00000000   -0.00000013
     atom   15 type  1   force =     0.00000000    0.00000000   -0.00000016
     atom   16 type  1   force =    -0.00000000   -0.00000000   -0.00000017
     atom   17 type  1   force =     0.00000000    0.00000001   -0.00000010
     atom   18 type  1   force =    -0.00000000   -0.00000000   -0.00000016
     atom   19 type  1   force =    -0.00000000    0.00000001   -0.00000017
     atom   20 type  1   force =    -0.00000000   -0.00000002   -0.00000013
     atom   21 type  1   force =     0.00000000    0.00000001   -0.00000013
     atom   22 type  1   force =    -0.00000001    0.00000000    0.00000001
     atom   23 type  1   force =     0.00000000    0.00000002    0.00000004
     atom   24 type  1   force =     0.00000000   -0.00000000   -0.00000000
     atom   25 type  1   force =    -0.00000000    0.00000002    0.00000012
     atom   26 type  1   force =     0.00000000    0.00000001    0.00000002
     atom   27 type  1   force =     0.00000000   -0.00000001    0.00000013
     atom   28 type  1   force =     0.00000000    0.00000000    0.00000014
     atom   29 type  1   force =    -0.00000000    0.00000000    0.00000005
     atom   30 type  1   force =    -0.00000000   -0.00000001   -0.00000003
     atom   31 type  1   force =    -0.00000000   -0.00000001    0.00000013
     atom   32 type  1   force =    -0.00000000    0.00000000    0.00000010
     atom   33 type  1   force =    -0.00000000   -0.00000000    0.00000010
     atom   34 type  1   force =     0.00000000   -0.00000001    0.00000001
     atom   35 type  1   force =     0.00000000    0.00000000   -0.00000005
     atom   36 type  1   force =    -0.00000000    0.00000000   -0.00000013
     atom   37 type  1   force =    -0.00000000    0.00000000   -0.00000016
     atom   38 type  1   force =     0.00000000   -0.00000000   -0.00000017
     atom   39 type  1   force =    -0.00000000    0.00000001   -0.00000010
     atom   40 type  1   force =     0.00000000   -0.00000000   -0.00000017
     atom   41 type  1   force =     0.00000000    0.00000001   -0.00000016
     atom   42 type  1   force =    -0.00000000   -0.00000002   -0.00000010
     atom   43 type  1   force =    -0.00000000    0.00000001   -0.00000013
     atom   44 type  1   force =     0.00000001    0.00000000    0.00000001

     Total force =     0.001581     Total SCF correction =     0.000001

     Writing all to output data dir ./Li/Lithium.save/ :
     XML data file
     init_run     :     11.49s CPU     12.03s WALL (       1 calls)
     electrons    :   1524.48s CPU   1533.71s WALL (       1 calls)
     forces       :     49.07s CPU     49.23s WALL (       1 calls)

     Called by init_run:
     wfcinit      :      2.71s CPU      2.76s WALL (       1 calls)
     wfcinit:wfcr :      2.57s CPU      2.61s WALL (      14 calls)
     potinit      :      0.14s CPU      0.15s WALL (       1 calls)
     hinit0       :      4.36s CPU      4.75s WALL (       1 calls)

     Called by electrons:
     c_bands      :   1117.08s CPU   1123.97s WALL (      47 calls)
     sum_band     :     61.54s CPU     62.02s WALL (      47 calls)
     v_of_rho     :      3.90s CPU      3.94s WALL (      48 calls)
     v_h          :      0.34s CPU      0.34s WALL (      48 calls)
     v_xc         :      3.56s CPU      3.60s WALL (      48 calls)
     newd         :      1.29s CPU      1.30s WALL (      48 calls)
     PAW_pot      :      1.03s CPU      1.04s WALL (      48 calls)
     mix_rho      :     11.08s CPU     11.17s WALL (      47 calls)

     Called by c_bands:
     init_us_2    :      6.72s CPU      6.76s WALL (    1344 calls)
     cegterg      :   1018.07s CPU   1024.59s WALL (     965 calls)

     Called by sum_band:
     sum_band:wei :      0.25s CPU      0.25s WALL (      47 calls)
     sum_band:loo :     58.11s CPU     58.55s WALL (      47 calls)
     sum_band:buf :      0.61s CPU      0.64s WALL (     658 calls)
     sum_band:ini :      3.30s CPU      3.31s WALL (     658 calls)
     sum_band:cal :     11.07s CPU     11.14s WALL (     658 calls)
     sum_band:bec :      0.29s CPU      0.29s WALL (     658 calls)
     addusdens    :      1.02s CPU      1.04s WALL (      47 calls)
                                        0.00s GPU  (      47 calls)
     addusd:skk   :      0.25s CPU      0.25s WALL (      47 calls)
                                        0.00s GPU  (      47 calls)

     Called by *egterg:
     cdiaghg      :    304.82s CPU    306.65s WALL (   13536 calls)
     cegterg:over :     74.04s CPU     74.55s WALL (   12651 calls)
     cegterg:upda :     41.84s CPU     42.03s WALL (   12651 calls)
     cegterg:last :     16.41s CPU     16.48s WALL (    1268 calls)
     h_psi        :    517.45s CPU    521.12s WALL (   13630 calls)
     s_psi        :     41.37s CPU     41.58s WALL (   13630 calls)
     g_psi        :      1.10s CPU      1.11s WALL (   12651 calls)

     Called by h_psi:
     h_psi:calbec :     65.27s CPU     65.75s WALL (   13630 calls)
     vloc_psi     :    406.72s CPU    409.72s WALL (   13630 calls)
                                        0.00s GPU  (   13630 calls)
     add_vuspsi   :     42.84s CPU     43.04s WALL (   13630 calls)

     General routines
     calbec       :     77.05s CPU     77.63s WALL (   14344 calls)
     fft          :      3.59s CPU      3.61s WALL (     624 calls)
     ffts         :      5.70s CPU      5.74s WALL (    5753 calls)
     fftw         :    428.32s CPU    431.49s WALL (  729314 calls)
     interpolate  :      0.29s CPU      0.29s WALL (      48 calls)
 
     Parallel routines

     PAW routines
     PAW_pot      :      1.03s CPU      1.04s WALL (      48 calls)
     PAW_symme    :      0.02s CPU      0.02s WALL (      95 calls)
 
     Environ routines
 
     PWSCF        :  26m25.18s CPU  26m35.26s WALL

 
   This run was terminated on:  22:19:46   5Jan2025            

=------------------------------------------------------------------------------=
   JOB DONE.
=------------------------------------------------------------------------------=
