
     Program PWSCF v.7.4 starts on 25Dec2024 at 19:32: 5 

     This program is part of the open-source Quantum ESPRESSO suite
     for quantum simulation of materials; please cite
         "P. Giannozzi et al., J. Phys.:Condens. Matter 21 395502 (2009);
         "P. Giannozzi et al., J. Phys.:Condens. Matter 29 465901 (2017);
         "P. Giannozzi et al., J. Chem. Phys. 152 154105 (2020);
          URL http://www.quantum-espresso.org", 
     in publications or presentations arising from this work. More details at
     http://www.quantum-espresso.org/quote

     Parallel version (MPI & OpenMP), running on     192 processor cores
     Number of MPI processes:               192
     Threads/MPI process:                     1

     MPI processes distributed on     1 nodes
     655247 MiB available memory on the printing compute node when the environment starts
 
     Reading input from espresso.pwi
Warning: card &CELL ignored
Warning: card    PRESS_CONV_THR   = 0.1 ignored
Warning: card    CELL_DOFREE      = 'ALL' ignored
Warning: card / ignored
Warning: card &FCP ignored
Warning: card / ignored
Warning: card &RISM ignored
Warning: card / ignored

     Current dimensions of program PWSCF are:
     Max number of different atomic species (ntypx) = 10
     Max number of k-points (npk) =  40000
     Max angular momentum in pseudopotentials (lmaxx) =  4

     IMPORTANT: XC functional enforced from input :
     Exchange-correlation= PBE
                           (   1   4   3   4   0   0   0)
     Any further DFT definition will be discarded
     Please, verify this is what you really want

 
     Reading input from environ.in:
     * using ionic solvent mode
     * setting boundary derivatives method to SSCS default
     * setting electrolyte-boundary derivatives method to SSCS default

Environ Warning (1001): card EOF ignored

     
     Found identity + (  0.0000  0.5000 -0.0000) symmetry
     This is a supercell, fractional translations are disabled
 
     R & G space division:  proc/nbgrp/npool/nimage =     192
     Subspace diagonalization in iterative solution of the eigenvalue problem:
     a serial algorithm will be used

 
     Parallelization info
     --------------------
     sticks:   dense  smooth     PW     G-vecs:    dense   smooth      PW
     Min          55      22      6                33069     8358    1132
     Max          56      23      7                33136     8403    1194
     Sum       10733    4281   1153              6359029  1608267  224795
 
     Using Slab Decomposition
 


     bravais-lattice index     =            6
     lattice parameter (alat)  =      12.9830  a.u.
     unit-cell volume          =   16640.2905 (a.u.)^3
     number of atoms/cell      =           32
     number of atomic types    =            1
     number of electrons       =        96.00
     number of Kohn-Sham states=           72
     kinetic-energy cutoff     =      80.0000  Ry
     charge density cutoff     =     800.0000  Ry
     scf convergence threshold =      1.0E-14
     mixing beta               =       0.2000
     number of iterations used =            8  local-TF  mixing
     Exchange-correlation= PBE
                           (   1   4   3   4   0   0   0)

     ================================================================================
 
                                  Environ Setup Summary

     ================================================================================
 
     Please cite

          O. Andreussi, I. Dabo and N. Marzari, J. Chem. Phys. 136, 064102 (2012)
          F. Nattino, M. Truscott, N. Marzari, and O. Andreussi, J. Chem. Phys. 150, 041722 (2019)

     in publications or presentations arising from this work.

     ================================================================================
 
     Parameters
     ==========

     compensation onset threshold      =               0.1000E+00
     static permittivity               =                    89.90
     surface tension in input (dyn/cm) =                    37.30
     surface tension in internal units =               0.4792E-04

     Solvent Boundary
     ================

     solvent mode                      =                    ionic
     derivatives method                =                   lowmem
     electrolyte derivatives method    =                   lowmem
     numerical core for derivatives    =                      fft
     switching function adopted        =                     SCCS
     density limit for vacuum region   =               0.5000E-02
     density limit for bulk solvent    =               0.1000E-03
     soft-sphere radius mode           =                    bondi
     soft-sphere softness              =                     0.50
     alpha                             =                     1.32

     Electrostatic Setup
     ===================

     electrostatic problem to solve    =                    modpb
     numerical solver adopted          =                   newton
     type of auxiliary density adopted =                     none
     numerical core for poisson        =                      fft
     adopting a nested solver scheme
     inner solver                      =                       cg
     inner core                        =                      fft
     type of pbc corrections           =                parabolic
     numerical core for corrections    =                      1da

     ================================================================================
 

     celldm(1)=  12.983009  celldm(2)=   0.000000  celldm(3)=   7.603873
     celldm(4)=   0.000000  celldm(5)=   0.000000  celldm(6)=   0.000000

     crystal axes: (cart. coord. in units of alat)
               a(1) = (   1.000000   0.000000   0.000000 )  
               a(2) = (   0.000000   1.000000   0.000000 )  
               a(3) = (   0.000000   0.000000   7.603873 )  

     reciprocal axes: (cart. coord. in units 2 pi/alat)
               b(1) = (  1.000000  0.000000  0.000000 )  
               b(2) = (  0.000000  1.000000  0.000000 )  
               b(3) = (  0.000000  0.000000  0.131512 )  


     PseudoPot. # 1 for Li read from file:
     /home/ba3g18/Repos/Pseudopotentials/pslibrary.1.0.0/pbe/PSEUDOPOTENTIALS/Li.pbe-sl-kjpaw_psl.1.0.0.UPF
     MD5 check sum: 3f4d2cafebb47c6c3aa8ed472e6f074d
     Pseudo is Projector augmented-wave, Zval =  3.0
     Generated using 'atomic' code by A. Dal Corso  v.7.4
     Shape of augmentation charge: PSQ
     Using radial grid of 1017 points,  4 beta functions with: 
                l(1) =   0
                l(2) =   0
                l(3) =   1
                l(4) =   1
     Q(r) pseudized with 0 coefficients 


     atomic species   valence    mass     pseudopotential
     Li                3.00     6.94000     Li( 1.00)

      8 Sym. Ops. (no inversion) found


                                    s                        frac. trans.

      isym =  1     identity                                     

 cryst.   s( 1) = (     1          0          0      )
                  (     0          1          0      )
                  (     0          0          1      )

 cart.    s( 1) = (  1.0000000  0.0000000  0.0000000 )
                  (  0.0000000  1.0000000  0.0000000 )
                  (  0.0000000  0.0000000  1.0000000 )


      isym =  2     180 deg rotation - cart. axis [0,0,1]        

 cryst.   s( 2) = (    -1          0          0      )
                  (     0         -1          0      )
                  (     0          0          1      )

 cart.    s( 2) = ( -1.0000000  0.0000000  0.0000000 )
                  (  0.0000000 -1.0000000  0.0000000 )
                  (  0.0000000  0.0000000  1.0000000 )


      isym =  3      90 deg rotation - cart. axis [0,0,-1]       

 cryst.   s( 3) = (     0         -1          0      )
                  (     1          0          0      )
                  (     0          0          1      )

 cart.    s( 3) = (  0.0000000  1.0000000  0.0000000 )
                  ( -1.0000000  0.0000000  0.0000000 )
                  (  0.0000000  0.0000000  1.0000000 )


      isym =  4      90 deg rotation - cart. axis [0,0,1]        

 cryst.   s( 4) = (     0          1          0      )
                  (    -1          0          0      )
                  (     0          0          1      )

 cart.    s( 4) = (  0.0000000 -1.0000000  0.0000000 )
                  (  1.0000000  0.0000000  0.0000000 )
                  (  0.0000000  0.0000000  1.0000000 )


      isym =  5     inv. 180 deg rotation - cart. axis [0,1,0]   

 cryst.   s( 5) = (     1          0          0      )
                  (     0         -1          0      )
                  (     0          0          1      )

 cart.    s( 5) = (  1.0000000  0.0000000  0.0000000 )
                  (  0.0000000 -1.0000000  0.0000000 )
                  (  0.0000000  0.0000000  1.0000000 )


      isym =  6     inv. 180 deg rotation - cart. axis [1,0,0]   

 cryst.   s( 6) = (    -1          0          0      )
                  (     0          1          0      )
                  (     0          0          1      )

 cart.    s( 6) = ( -1.0000000  0.0000000  0.0000000 )
                  (  0.0000000  1.0000000  0.0000000 )
                  (  0.0000000  0.0000000  1.0000000 )


      isym =  7     inv. 180 deg rotation - cart. axis [1,1,0]   

 cryst.   s( 7) = (     0         -1          0      )
                  (    -1          0          0      )
                  (     0          0          1      )

 cart.    s( 7) = (  0.0000000 -1.0000000  0.0000000 )
                  ( -1.0000000  0.0000000  0.0000000 )
                  (  0.0000000  0.0000000  1.0000000 )


      isym =  8     inv. 180 deg rotation - cart. axis [1,-1,0]  

 cryst.   s( 8) = (     0          1          0      )
                  (     1          0          0      )
                  (     0          0          1      )

 cart.    s( 8) = (  0.0000000  1.0000000  0.0000000 )
                  (  1.0000000  0.0000000  0.0000000 )
                  (  0.0000000  0.0000000  1.0000000 )


     point group C_4v (4mm) 
     there are  5 classes
     the character table:

       E     2C4   C2    2s_v  2s_d 
A_1    1.00  1.00  1.00  1.00  1.00
A_2    1.00  1.00  1.00 -1.00 -1.00
B_1    1.00 -1.00  1.00  1.00 -1.00
B_2    1.00 -1.00  1.00 -1.00  1.00
E      2.00  0.00 -2.00  0.00  0.00

     the symmetry operations in each class and the name of the first element:

     E        1
          identity                                               
     2C4      3    4
           90 deg rotation - cart. axis [0,0,-1]                 
     C2       2
          180 deg rotation - cart. axis [0,0,1]                  
     2s_v     5    6
          inv. 180 deg rotation - cart. axis [0,1,0]             
     2s_d     7    8
          inv. 180 deg rotation - cart. axis [1,1,0]             

   Cartesian axes

     site n.     atom                  positions (alat units)
         1        Li     tau(   1) = (  -0.0000000  -0.0000000   3.1811092  )
         2        Li     tau(   2) = (   0.2500007   0.2500007   2.9187751  )
         3        Li     tau(   3) = (  -0.0000000  -0.0000000   3.6748013  )
         4        Li     tau(   4) = (   0.2499991   0.2499991   3.4273966  )
         5        Li     tau(   5) = (  -0.0000000  -0.0000000   4.1764888  )
         6        Li     tau(   6) = (   0.2499999   0.2499999   3.9290749  )
         7        Li     tau(   7) = (  -0.0000000  -0.0000000   4.6851287  )
         8        Li     tau(   8) = (   0.2499998   0.2499998   4.4227863  )
         9        Li     tau(   9) = (  -0.0000000   0.5000000   3.1811089  )
        10        Li     tau(  10) = (   0.2500007   0.7499993   2.9187751  )
        11        Li     tau(  11) = (  -0.0000000   0.5000000   3.6748014  )
        12        Li     tau(  12) = (   0.2499991   0.7500009   3.4273966  )
        13        Li     tau(  13) = (  -0.0000000   0.5000000   4.1764934  )
        14        Li     tau(  14) = (   0.2499999   0.7500001   3.9290749  )
        15        Li     tau(  15) = (  -0.0000000   0.5000000   4.6851258  )
        16        Li     tau(  16) = (   0.2499998   0.7500002   4.4227863  )
        17        Li     tau(  17) = (   0.5000000  -0.0000000   3.1811089  )
        18        Li     tau(  18) = (   0.7499993   0.2500007   2.9187751  )
        19        Li     tau(  19) = (   0.5000000  -0.0000000   3.6748014  )
        20        Li     tau(  20) = (   0.7500009   0.2499991   3.4273966  )
        21        Li     tau(  21) = (   0.5000000  -0.0000000   4.1764934  )
        22        Li     tau(  22) = (   0.7500001   0.2499999   3.9290749  )
        23        Li     tau(  23) = (   0.5000000  -0.0000000   4.6851258  )
        24        Li     tau(  24) = (   0.7500002   0.2499998   4.4227863  )
        25        Li     tau(  25) = (   0.5000000   0.5000000   3.1811098  )
        26        Li     tau(  26) = (   0.7499993   0.7499993   2.9187751  )
        27        Li     tau(  27) = (   0.5000000   0.5000000   3.6748033  )
        28        Li     tau(  28) = (   0.7500009   0.7500009   3.4273966  )
        29        Li     tau(  29) = (   0.5000000   0.5000000   4.1764997  )
        30        Li     tau(  30) = (   0.7500001   0.7500001   3.9290749  )
        31        Li     tau(  31) = (   0.5000000   0.5000000   4.6851226  )
        32        Li     tau(  32) = (   0.7500002   0.7500002   4.4227863  )

   Crystallographic axes

     site n.     atom                  positions (cryst. coord.)
         1        Li     tau(   1) = ( -0.0000000 -0.0000000  0.4183538  )
         2        Li     tau(   2) = (  0.2500007  0.2500007  0.3838538  )
         3        Li     tau(   3) = ( -0.0000000 -0.0000000  0.4832802  )
         4        Li     tau(   4) = (  0.2499991  0.2499991  0.4507436  )
         5        Li     tau(   5) = ( -0.0000000 -0.0000000  0.5492581  )
         6        Li     tau(   6) = (  0.2499999  0.2499999  0.5167203  )
         7        Li     tau(   7) = ( -0.0000000 -0.0000000  0.6161503  )
         8        Li     tau(   8) = (  0.2499998  0.2499998  0.5816492  )
         9        Li     tau(   9) = ( -0.0000000  0.5000000  0.4183538  )
        10        Li     tau(  10) = (  0.2500007  0.7499993  0.3838538  )
        11        Li     tau(  11) = ( -0.0000000  0.5000000  0.4832802  )
        12        Li     tau(  12) = (  0.2499991  0.7500009  0.4507436  )
        13        Li     tau(  13) = ( -0.0000000  0.5000000  0.5492587  )
        14        Li     tau(  14) = (  0.2499999  0.7500001  0.5167203  )
        15        Li     tau(  15) = ( -0.0000000  0.5000000  0.6161500  )
        16        Li     tau(  16) = (  0.2499998  0.7500002  0.5816492  )
        17        Li     tau(  17) = (  0.5000000 -0.0000000  0.4183538  )
        18        Li     tau(  18) = (  0.7499993  0.2500007  0.3838538  )
        19        Li     tau(  19) = (  0.5000000 -0.0000000  0.4832802  )
        20        Li     tau(  20) = (  0.7500009  0.2499991  0.4507436  )
        21        Li     tau(  21) = (  0.5000000 -0.0000000  0.5492587  )
        22        Li     tau(  22) = (  0.7500001  0.2499999  0.5167203  )
        23        Li     tau(  23) = (  0.5000000 -0.0000000  0.6161500  )
        24        Li     tau(  24) = (  0.7500002  0.2499998  0.5816492  )
        25        Li     tau(  25) = (  0.5000000  0.5000000  0.4183539  )
        26        Li     tau(  26) = (  0.7499993  0.7499993  0.3838538  )
        27        Li     tau(  27) = (  0.5000000  0.5000000  0.4832805  )
        28        Li     tau(  28) = (  0.7500009  0.7500009  0.4507436  )
        29        Li     tau(  29) = (  0.5000000  0.5000000  0.5492596  )
        30        Li     tau(  30) = (  0.7500001  0.7500001  0.5167203  )
        31        Li     tau(  31) = (  0.5000000  0.5000000  0.6161495  )
        32        Li     tau(  32) = (  0.7500002  0.7500002  0.5816492  )

     number of k points=    21  Marzari-Vanderbilt smearing, width (Ry)=  0.0100
                       cart. coord. in units 2pi/alat
        k(    1) = (   0.0000000   0.0000000   0.0000000), wk =   0.0200000
        k(    2) = (   0.0000000   0.1000000   0.0000000), wk =   0.0800000
        k(    3) = (   0.0000000   0.2000000   0.0000000), wk =   0.0800000
        k(    4) = (   0.0000000   0.3000000   0.0000000), wk =   0.0800000
        k(    5) = (   0.0000000   0.4000000   0.0000000), wk =   0.0800000
        k(    6) = (   0.0000000  -0.5000000   0.0000000), wk =   0.0400000
        k(    7) = (   0.1000000   0.1000000   0.0000000), wk =   0.0800000
        k(    8) = (   0.1000000   0.2000000   0.0000000), wk =   0.1600000
        k(    9) = (   0.1000000   0.3000000   0.0000000), wk =   0.1600000
        k(   10) = (   0.1000000   0.4000000   0.0000000), wk =   0.1600000
        k(   11) = (   0.1000000  -0.5000000   0.0000000), wk =   0.0800000
        k(   12) = (   0.2000000   0.2000000   0.0000000), wk =   0.0800000
        k(   13) = (   0.2000000   0.3000000   0.0000000), wk =   0.1600000
        k(   14) = (   0.2000000   0.4000000   0.0000000), wk =   0.1600000
        k(   15) = (   0.2000000  -0.5000000   0.0000000), wk =   0.0800000
        k(   16) = (   0.3000000   0.3000000   0.0000000), wk =   0.0800000
        k(   17) = (   0.3000000   0.4000000   0.0000000), wk =   0.1600000
        k(   18) = (   0.3000000  -0.5000000   0.0000000), wk =   0.0800000
        k(   19) = (   0.4000000   0.4000000   0.0000000), wk =   0.0800000
        k(   20) = (   0.4000000  -0.5000000   0.0000000), wk =   0.0800000
        k(   21) = (  -0.5000000  -0.5000000   0.0000000), wk =   0.0200000

                       cryst. coord.
        k(    1) = (   0.0000000   0.0000000   0.0000000), wk =   0.0200000
        k(    2) = (   0.0000000   0.1000000   0.0000000), wk =   0.0800000
        k(    3) = (   0.0000000   0.2000000   0.0000000), wk =   0.0800000
        k(    4) = (   0.0000000   0.3000000   0.0000000), wk =   0.0800000
        k(    5) = (   0.0000000   0.4000000   0.0000000), wk =   0.0800000
        k(    6) = (   0.0000000  -0.5000000   0.0000000), wk =   0.0400000
        k(    7) = (   0.1000000   0.1000000   0.0000000), wk =   0.0800000
        k(    8) = (   0.1000000   0.2000000   0.0000000), wk =   0.1600000
        k(    9) = (   0.1000000   0.3000000   0.0000000), wk =   0.1600000
        k(   10) = (   0.1000000   0.4000000   0.0000000), wk =   0.1600000
        k(   11) = (   0.1000000  -0.5000000   0.0000000), wk =   0.0800000
        k(   12) = (   0.2000000   0.2000000   0.0000000), wk =   0.0800000
        k(   13) = (   0.2000000   0.3000000   0.0000000), wk =   0.1600000
        k(   14) = (   0.2000000   0.4000000   0.0000000), wk =   0.1600000
        k(   15) = (   0.2000000  -0.5000000   0.0000000), wk =   0.0800000
        k(   16) = (   0.3000000   0.3000000   0.0000000), wk =   0.0800000
        k(   17) = (   0.3000000   0.4000000   0.0000000), wk =   0.1600000
        k(   18) = (   0.3000000  -0.5000000   0.0000000), wk =   0.0800000
        k(   19) = (   0.4000000   0.4000000   0.0000000), wk =   0.0800000
        k(   20) = (   0.4000000  -0.5000000   0.0000000), wk =   0.0800000
        k(   21) = (  -0.5000000  -0.5000000   0.0000000), wk =   0.0200000

     Dense  grid:  6359029 G-vectors     FFT dimensions: ( 120, 120, 900)

     Smooth grid:  1608267 G-vectors     FFT dimensions: (  75,  75, 576)

     Dynamical RAM for                 wfc:       1.15 MB

     Dynamical RAM for     wfc (w. buffer):      25.31 MB

     Dynamical RAM for           str. fact:       0.51 MB

     Dynamical RAM for           local pot:       0.00 MB

     Dynamical RAM for          nlocal pot:       4.09 MB

     Dynamical RAM for                qrad:       0.65 MB

     Dynamical RAM for          rho,v,vnew:       3.16 MB

     Dynamical RAM for               rhoin:       1.05 MB

     Dynamical RAM for            rho*nmix:       8.09 MB

     Dynamical RAM for           G-vectors:       1.96 MB

     Dynamical RAM for          h,s,v(r/c):       0.95 MB

     Dynamical RAM for          <psi|beta>:       0.28 MB

     Dynamical RAM for                 psi:       2.30 MB

     Dynamical RAM for                hpsi:       2.30 MB

     Dynamical RAM for                spsi:       2.30 MB

     Dynamical RAM for      wfcinit/wfcrot:       2.42 MB

     Dynamical RAM for           addusdens:      37.91 MB

     Dynamical RAM for          addusforce:      69.53 MB

     Estimated static dynamical RAM per process >      40.49 MB

     Estimated max dynamical RAM per process >     118.10 MB

     Estimated total dynamical RAM >      22.14 GB

     Initial potential from superposition of free atoms

     starting charge      95.8525, renormalised to      96.0000

     negative rho (up, down):  2.976E-03 0.000E+00
     Starting wfcs are random
     Checking if some PAW data can be deallocated... 

     total cpu time spent up to now is        8.3 secs

     Self-consistent Calculation

     iteration #  1     ecut=    80.00 Ry     beta= 0.20
     Davidson diagonalization with overlap

---- Real-time Memory Report at c_bands before calling an iterative solver
           515 MiB given to the printing process from OS
             0 MiB allocation reported by mallinfo(arena+hblkhd)
        629086 MiB available memory on the node where the printing process lives
------------------
     ethr =  1.00E-02,  avg # of iterations = 12.1

     negative rho (up, down):  8.227E-05 0.000E+00

     total cpu time spent up to now is       29.8 secs

     total energy              =    -479.43512993 Ry
     estimated scf accuracy    <       5.26866273 Ry
     electrostatic embedding   =       0.00000000 Ry
     cavitation energy         =       0.01925905 Ry
     electrolyte free energy   =       0.00716218 Ry
     correction to one-el term =       0.00000000 Ry

     iteration #  2     ecut=    80.00 Ry     beta= 0.20
     Davidson diagonalization with overlap

---- Real-time Memory Report at c_bands before calling an iterative solver
           515 MiB given to the printing process from OS
             0 MiB allocation reported by mallinfo(arena+hblkhd)
        628150 MiB available memory on the node where the printing process lives
------------------
     ethr =  5.49E-03,  avg # of iterations =  3.6

     negative rho (up, down):  3.923E-07 0.000E+00

     total cpu time spent up to now is       37.4 secs

     total energy              =    -480.08334037 Ry
     estimated scf accuracy    <       2.12290018 Ry
     electrostatic embedding   =       0.00000000 Ry
     cavitation energy         =       0.01925905 Ry
     electrolyte free energy   =       0.00716218 Ry
     correction to one-el term =       0.00000000 Ry

     iteration #  3     ecut=    80.00 Ry     beta= 0.20
     Davidson diagonalization with overlap

---- Real-time Memory Report at c_bands before calling an iterative solver
           520 MiB given to the printing process from OS
             0 MiB allocation reported by mallinfo(arena+hblkhd)
        626538 MiB available memory on the node where the printing process lives
------------------
     ethr =  2.21E-03,  avg # of iterations =  4.3

     negative rho (up, down):  1.497E-07 0.000E+00

     total cpu time spent up to now is       46.8 secs

     total energy              =    -480.96056047 Ry
     estimated scf accuracy    <       0.27323929 Ry
     electrostatic embedding   =       0.00000000 Ry
     cavitation energy         =       0.01925905 Ry
     electrolyte free energy   =       0.00716218 Ry
     correction to one-el term =       0.00000000 Ry

     iteration #  4     ecut=    80.00 Ry     beta= 0.20
     Davidson diagonalization with overlap

---- Real-time Memory Report at c_bands before calling an iterative solver
           554 MiB given to the printing process from OS
             0 MiB allocation reported by mallinfo(arena+hblkhd)
        626365 MiB available memory on the node where the printing process lives
------------------
     ethr =  2.85E-04,  avg # of iterations = 10.7

     negative rho (up, down):  6.279E-08 0.000E+00

     total cpu time spent up to now is       61.4 secs

     total energy              =    -481.25077793 Ry
     estimated scf accuracy    <       0.64342802 Ry
     electrostatic embedding   =       0.00000000 Ry
     cavitation energy         =       0.01925905 Ry
     electrolyte free energy   =       0.00716218 Ry
     correction to one-el term =       0.00000000 Ry

     iteration #  5     ecut=    80.00 Ry     beta= 0.20
     Davidson diagonalization with overlap

---- Real-time Memory Report at c_bands before calling an iterative solver
           597 MiB given to the printing process from OS
             0 MiB allocation reported by mallinfo(arena+hblkhd)
        626091 MiB available memory on the node where the printing process lives
------------------
     ethr =  2.85E-04,  avg # of iterations =  2.3

     negative rho (up, down):  1.768E-08 0.000E+00

     total cpu time spent up to now is       67.5 secs

     total energy              =    -481.19372538 Ry
     estimated scf accuracy    <       0.57161936 Ry
     electrostatic embedding   =       0.00000000 Ry
     cavitation energy         =       0.01925905 Ry
     electrolyte free energy   =       0.00716218 Ry
     correction to one-el term =       0.00000000 Ry

     iteration #  6     ecut=    80.00 Ry     beta= 0.20
     Davidson diagonalization with overlap

---- Real-time Memory Report at c_bands before calling an iterative solver
           619 MiB given to the printing process from OS
             0 MiB allocation reported by mallinfo(arena+hblkhd)
        626016 MiB available memory on the node where the printing process lives
------------------
     ethr =  2.85E-04,  avg # of iterations =  3.9

     add environment contribution to local potential

     total cpu time spent up to now is       76.7 secs

     total energy              =    -481.21435124 Ry
     estimated scf accuracy    <       0.08872198 Ry
     electrostatic embedding   =       0.00000000 Ry
     cavitation energy         =       0.01925905 Ry
     electrolyte free energy   =       0.00716218 Ry
     correction to one-el term =       0.00000000 Ry

     iteration #  7     ecut=    80.00 Ry     beta= 0.20
     Davidson diagonalization with overlap

---- Real-time Memory Report at c_bands before calling an iterative solver
           639 MiB given to the printing process from OS
             0 MiB allocation reported by mallinfo(arena+hblkhd)
        625302 MiB available memory on the node where the printing process lives
------------------
     c_bands:  1 eigenvalues not converged
     c_bands:  2 eigenvalues not converged
     c_bands:  1 eigenvalues not converged
     c_bands:  2 eigenvalues not converged
     c_bands:  2 eigenvalues not converged
     c_bands:  1 eigenvalues not converged
     c_bands:  1 eigenvalues not converged
     ethr =  9.24E-05,  avg # of iterations = 14.1

     add environment contribution to local potential

     total cpu time spent up to now is       90.7 secs

     total energy              =    -481.20872064 Ry
     estimated scf accuracy    <       0.07296322 Ry
     electrostatic embedding   =      -0.03388047 Ry
     cavitation energy         =       0.01925905 Ry
     electrolyte free energy   =      -0.00252758 Ry
     correction to one-el term =      -5.00322695 Ry

     iteration #  8     ecut=    80.00 Ry     beta= 0.20
     Davidson diagonalization with overlap

---- Real-time Memory Report at c_bands before calling an iterative solver
           665 MiB given to the printing process from OS
             0 MiB allocation reported by mallinfo(arena+hblkhd)
        625137 MiB available memory on the node where the printing process lives
------------------
     ethr =  7.60E-05,  avg # of iterations =  4.3

     total cpu time spent up to now is       97.7 secs

     total energy              =    -481.27321703 Ry
     estimated scf accuracy    <       0.48487465 Ry
     electrostatic embedding   =      -0.02684931 Ry
     cavitation energy         =       0.01925905 Ry
     electrolyte free energy   =      -0.00289292 Ry
     correction to one-el term =      -3.14969312 Ry

     iteration #  9     ecut=    80.00 Ry     beta= 0.20
     Davidson diagonalization with overlap

---- Real-time Memory Report at c_bands before calling an iterative solver
           685 MiB given to the printing process from OS
             0 MiB allocation reported by mallinfo(arena+hblkhd)
        625059 MiB available memory on the node where the printing process lives
------------------
     ethr =  7.60E-05,  avg # of iterations =  5.9

     total cpu time spent up to now is      105.4 secs

     total energy              =    -481.22932041 Ry
     estimated scf accuracy    <       1.11546072 Ry
     electrostatic embedding   =      -0.02845693 Ry
     cavitation energy         =       0.01925905 Ry
     electrolyte free energy   =      -0.00289292 Ry
     correction to one-el term =      -3.14647787 Ry

     iteration # 10     ecut=    80.00 Ry     beta= 0.20
     Davidson diagonalization with overlap

---- Real-time Memory Report at c_bands before calling an iterative solver
           702 MiB given to the printing process from OS
             0 MiB allocation reported by mallinfo(arena+hblkhd)
        624989 MiB available memory on the node where the printing process lives
------------------
     ethr =  7.60E-05,  avg # of iterations =  2.0

     negative rho (up, down):  2.695E-06 0.000E+00

     total cpu time spent up to now is      111.8 secs

     total energy              =    -481.20002755 Ry
     estimated scf accuracy    <       0.47165182 Ry
     electrostatic embedding   =      -0.02763421 Ry
     cavitation energy         =       0.01925905 Ry
     electrolyte free energy   =      -0.00289292 Ry
     correction to one-el term =      -3.14812332 Ry

     iteration # 11     ecut=    80.00 Ry     beta= 0.20
     Davidson diagonalization with overlap

---- Real-time Memory Report at c_bands before calling an iterative solver
           719 MiB given to the printing process from OS
             0 MiB allocation reported by mallinfo(arena+hblkhd)
        624953 MiB available memory on the node where the printing process lives
------------------
     ethr =  7.60E-05,  avg # of iterations =  7.7

     negative rho (up, down):  1.238E-03 0.000E+00

     total cpu time spent up to now is      120.6 secs

     total energy              =    -481.25170659 Ry
     estimated scf accuracy    <       0.21026662 Ry
     electrostatic embedding   =      -0.02445897 Ry
     cavitation energy         =       0.01925905 Ry
     electrolyte free energy   =      -0.00289292 Ry
     correction to one-el term =      -3.15447381 Ry

     iteration # 12     ecut=    80.00 Ry     beta= 0.20
     Davidson diagonalization with overlap

---- Real-time Memory Report at c_bands before calling an iterative solver
           737 MiB given to the printing process from OS
             0 MiB allocation reported by mallinfo(arena+hblkhd)
        624922 MiB available memory on the node where the printing process lives
------------------
     ethr =  7.60E-05,  avg # of iterations =  9.4

     negative rho (up, down):  3.416E-02 0.000E+00

     total cpu time spent up to now is      130.2 secs

     total energy              =    -481.22990267 Ry
     estimated scf accuracy    <       1.14478226 Ry
     electrostatic embedding   =      -0.02721340 Ry
     cavitation energy         =       0.01925905 Ry
     electrolyte free energy   =      -0.00289292 Ry
     correction to one-el term =      -3.14896495 Ry

     iteration # 13     ecut=    80.00 Ry     beta= 0.20
     Davidson diagonalization with overlap

---- Real-time Memory Report at c_bands before calling an iterative solver
           753 MiB given to the printing process from OS
             0 MiB allocation reported by mallinfo(arena+hblkhd)
        624861 MiB available memory on the node where the printing process lives
------------------
     ethr =  7.60E-05,  avg # of iterations =  7.1

     negative rho (up, down):  4.162E-02 0.000E+00

     total cpu time spent up to now is      137.8 secs

     total energy              =    -481.22958176 Ry
     estimated scf accuracy    <       0.50673033 Ry
     electrostatic embedding   =      -0.02270702 Ry
     cavitation energy         =       0.01925905 Ry
     electrolyte free energy   =      -0.00289292 Ry
     correction to one-el term =      -3.15797769 Ry

     iteration # 14     ecut=    80.00 Ry     beta= 0.20
     Davidson diagonalization with overlap

---- Real-time Memory Report at c_bands before calling an iterative solver
           770 MiB given to the printing process from OS
             0 MiB allocation reported by mallinfo(arena+hblkhd)
        624877 MiB available memory on the node where the printing process lives
------------------
     ethr =  7.60E-05,  avg # of iterations =  1.6

     negative rho (up, down):  4.385E-02 0.000E+00

     total cpu time spent up to now is      143.8 secs

     total energy              =    -481.23038179 Ry
     estimated scf accuracy    <       0.31717492 Ry
     electrostatic embedding   =      -0.02286228 Ry
     cavitation energy         =       0.01925905 Ry
     electrolyte free energy   =      -0.00289292 Ry
     correction to one-el term =      -3.15766718 Ry

     iteration # 15     ecut=    80.00 Ry     beta= 0.20
     Davidson diagonalization with overlap

---- Real-time Memory Report at c_bands before calling an iterative solver
           783 MiB given to the printing process from OS
             0 MiB allocation reported by mallinfo(arena+hblkhd)
        624847 MiB available memory on the node where the printing process lives
------------------
     ethr =  7.60E-05,  avg # of iterations =  1.1

     negative rho (up, down):  5.425E-02 0.000E+00

     total cpu time spent up to now is      149.8 secs

     total energy              =    -481.20640688 Ry
     estimated scf accuracy    <       0.38295518 Ry
     electrostatic embedding   =      -0.02183109 Ry
     cavitation energy         =       0.01925905 Ry
     electrolyte free energy   =      -0.00289292 Ry
     correction to one-el term =      -3.15972956 Ry

     iteration # 16     ecut=    80.00 Ry     beta= 0.20
     Davidson diagonalization with overlap

---- Real-time Memory Report at c_bands before calling an iterative solver
           797 MiB given to the printing process from OS
             0 MiB allocation reported by mallinfo(arena+hblkhd)
        624777 MiB available memory on the node where the printing process lives
------------------
     ethr =  7.60E-05,  avg # of iterations = 10.9

     negative rho (up, down):  4.628E-02 0.000E+00

     add environment contribution to local potential

     total cpu time spent up to now is      161.6 secs

     total energy              =    -481.20844510 Ry
     estimated scf accuracy    <       0.08940044 Ry
     electrostatic embedding   =      -0.02022517 Ry
     cavitation energy         =       0.01925905 Ry
     electrolyte free energy   =      -0.00289292 Ry
     correction to one-el term =      -3.16294140 Ry

     iteration # 17     ecut=    80.00 Ry     beta= 0.20
     Davidson diagonalization with overlap

---- Real-time Memory Report at c_bands before calling an iterative solver
           811 MiB given to the printing process from OS
             0 MiB allocation reported by mallinfo(arena+hblkhd)
        624740 MiB available memory on the node where the printing process lives
------------------
     ethr =  7.60E-05,  avg # of iterations =  7.4

     negative rho (up, down):  5.511E-02 0.000E+00

     add environment contribution to local potential

     total cpu time spent up to now is      172.0 secs

     total energy              =    -481.20708308 Ry
     estimated scf accuracy    <       0.03240855 Ry
     electrostatic embedding   =      -0.01947619 Ry
     cavitation energy         =       0.01925905 Ry
     electrolyte free energy   =      -0.00149525 Ry
     correction to one-el term =      -0.13990212 Ry

     iteration # 18     ecut=    80.00 Ry     beta= 0.20
     Davidson diagonalization with overlap

---- Real-time Memory Report at c_bands before calling an iterative solver
           823 MiB given to the printing process from OS
             0 MiB allocation reported by mallinfo(arena+hblkhd)
        624700 MiB available memory on the node where the printing process lives
------------------
     ethr =  3.38E-05,  avg # of iterations =  2.0

     negative rho (up, down):  6.529E-02 0.000E+00

     add environment contribution to local potential

     total cpu time spent up to now is      180.6 secs

     total energy              =    -481.20532381 Ry
     estimated scf accuracy    <       0.01416532 Ry
     electrostatic embedding   =      -0.01901558 Ry
     cavitation energy         =       0.01925905 Ry
     electrolyte free energy   =      -0.00112353 Ry
     correction to one-el term =       0.34573854 Ry

     iteration # 19     ecut=    80.00 Ry     beta= 0.20
     Davidson diagonalization with overlap

---- Real-time Memory Report at c_bands before calling an iterative solver
           835 MiB given to the printing process from OS
             0 MiB allocation reported by mallinfo(arena+hblkhd)
        624674 MiB available memory on the node where the printing process lives
------------------
     ethr =  1.48E-05,  avg # of iterations =  7.8

     negative rho (up, down):  6.354E-02 0.000E+00

     add environment contribution to local potential

     total cpu time spent up to now is      191.3 secs

     total energy              =    -481.20782499 Ry
     estimated scf accuracy    <       0.00233757 Ry
     electrostatic embedding   =      -0.01854242 Ry
     cavitation energy         =       0.01925905 Ry
     electrolyte free energy   =      -0.00055529 Ry
     correction to one-el term =       1.39976308 Ry

     iteration # 20     ecut=    80.00 Ry     beta= 0.20
     Davidson diagonalization with overlap

---- Real-time Memory Report at c_bands before calling an iterative solver
           846 MiB given to the printing process from OS
             0 MiB allocation reported by mallinfo(arena+hblkhd)
        624644 MiB available memory on the node where the printing process lives
------------------
     c_bands:  1 eigenvalues not converged
     ethr =  2.43E-06,  avg # of iterations =  8.3

     negative rho (up, down):  6.854E-02 0.000E+00

     add environment contribution to local potential

     total cpu time spent up to now is      203.3 secs

     total energy              =    -481.20775328 Ry
     estimated scf accuracy    <       0.00252519 Ry
     electrostatic embedding   =      -0.01829691 Ry
     cavitation energy         =       0.01925905 Ry
     electrolyte free energy   =      -0.00046328 Ry
     correction to one-el term =       2.03569432 Ry

     iteration # 21     ecut=    80.00 Ry     beta= 0.20
     Davidson diagonalization with overlap

---- Real-time Memory Report at c_bands before calling an iterative solver
           860 MiB given to the printing process from OS
             0 MiB allocation reported by mallinfo(arena+hblkhd)
        624615 MiB available memory on the node where the printing process lives
------------------
     ethr =  2.43E-06,  avg # of iterations =  8.4

     negative rho (up, down):  6.193E-02 0.000E+00

     add environment contribution to local potential

     total cpu time spent up to now is      214.4 secs

     total energy              =    -481.20844382 Ry
     estimated scf accuracy    <       0.00378015 Ry
     electrostatic embedding   =      -0.01771531 Ry
     cavitation energy         =       0.01925905 Ry
     electrolyte free energy   =      -0.00058247 Ry
     correction to one-el term =       3.42352956 Ry

     iteration # 22     ecut=    80.00 Ry     beta= 0.20
     Davidson diagonalization with overlap

---- Real-time Memory Report at c_bands before calling an iterative solver
           872 MiB given to the printing process from OS
             0 MiB allocation reported by mallinfo(arena+hblkhd)
        624594 MiB available memory on the node where the printing process lives
------------------
     ethr =  2.43E-06,  avg # of iterations =  8.0

     negative rho (up, down):  4.028E-02 0.000E+00

     add environment contribution to local potential

     total cpu time spent up to now is      225.4 secs

     total energy              =    -481.20807897 Ry
     estimated scf accuracy    <       0.00140037 Ry
     electrostatic embedding   =      -0.01764171 Ry
     cavitation energy         =       0.01925905 Ry
     electrolyte free energy   =      -0.00054393 Ry
     correction to one-el term =       3.98916665 Ry

     iteration # 23     ecut=    80.00 Ry     beta= 0.20
     Davidson diagonalization with overlap

---- Real-time Memory Report at c_bands before calling an iterative solver
           885 MiB given to the printing process from OS
             0 MiB allocation reported by mallinfo(arena+hblkhd)
        624555 MiB available memory on the node where the printing process lives
------------------
     ethr =  1.46E-06,  avg # of iterations =  9.1

     negative rho (up, down):  3.426E-02 0.000E+00

     add environment contribution to local potential

     total cpu time spent up to now is      236.9 secs

     total energy              =    -481.20815784 Ry
     estimated scf accuracy    <       0.00319296 Ry
     electrostatic embedding   =      -0.01706417 Ry
     cavitation energy         =       0.01925905 Ry
     electrolyte free energy   =      -0.00046096 Ry
     correction to one-el term =       3.61081406 Ry

     iteration # 24     ecut=    80.00 Ry     beta= 0.20
     Davidson diagonalization with overlap

---- Real-time Memory Report at c_bands before calling an iterative solver
           897 MiB given to the printing process from OS
             0 MiB allocation reported by mallinfo(arena+hblkhd)
        624538 MiB available memory on the node where the printing process lives
------------------
     ethr =  1.46E-06,  avg # of iterations =  7.9

     negative rho (up, down):  2.227E-02 0.000E+00

     add environment contribution to local potential

     total cpu time spent up to now is      247.3 secs

     total energy              =    -481.20835284 Ry
     estimated scf accuracy    <       0.00044087 Ry
     electrostatic embedding   =      -0.01683937 Ry
     cavitation energy         =       0.01925905 Ry
     electrolyte free energy   =      -0.00059188 Ry
     correction to one-el term =       3.45079674 Ry

     iteration # 25     ecut=    80.00 Ry     beta= 0.20
     Davidson diagonalization with overlap

---- Real-time Memory Report at c_bands before calling an iterative solver
           904 MiB given to the printing process from OS
             0 MiB allocation reported by mallinfo(arena+hblkhd)
        624516 MiB available memory on the node where the printing process lives
------------------
     ethr =  4.59E-07,  avg # of iterations =  8.1

     negative rho (up, down):  1.650E-02 0.000E+00

     add environment contribution to local potential

     total cpu time spent up to now is      258.2 secs

     total energy              =    -481.20799583 Ry
     estimated scf accuracy    <       0.00296372 Ry
     electrostatic embedding   =      -0.01674835 Ry
     cavitation energy         =       0.01925905 Ry
     electrolyte free energy   =      -0.00067569 Ry
     correction to one-el term =       3.78624625 Ry

     iteration # 26     ecut=    80.00 Ry     beta= 0.20
     Davidson diagonalization with overlap

---- Real-time Memory Report at c_bands before calling an iterative solver
           914 MiB given to the printing process from OS
             0 MiB allocation reported by mallinfo(arena+hblkhd)
        624495 MiB available memory on the node where the printing process lives
------------------
     c_bands:  1 eigenvalues not converged
     ethr =  4.59E-07,  avg # of iterations =  7.7

     negative rho (up, down):  1.065E-02 0.000E+00

     add environment contribution to local potential

     total cpu time spent up to now is      268.8 secs

     total energy              =    -481.20823124 Ry
     estimated scf accuracy    <       0.00341161 Ry
     electrostatic embedding   =      -0.01683868 Ry
     cavitation energy         =       0.01925905 Ry
     electrolyte free energy   =      -0.00047919 Ry
     correction to one-el term =       3.80178040 Ry

     iteration # 27     ecut=    80.00 Ry     beta= 0.20
     Davidson diagonalization with overlap

---- Real-time Memory Report at c_bands before calling an iterative solver
           923 MiB given to the printing process from OS
             0 MiB allocation reported by mallinfo(arena+hblkhd)
        624507 MiB available memory on the node where the printing process lives
------------------
     ethr =  4.59E-07,  avg # of iterations =  8.4

     negative rho (up, down):  8.141E-03 0.000E+00

     add environment contribution to local potential

     total cpu time spent up to now is      279.3 secs

     total energy              =    -481.20852898 Ry
     estimated scf accuracy    <       0.00007718 Ry
     electrostatic embedding   =      -0.01664737 Ry
     cavitation energy         =       0.01925905 Ry
     electrolyte free energy   =      -0.00059671 Ry
     correction to one-el term =       3.82164296 Ry

     iteration # 28     ecut=    80.00 Ry     beta= 0.20
     Davidson diagonalization with overlap

---- Real-time Memory Report at c_bands before calling an iterative solver
           931 MiB given to the printing process from OS
             0 MiB allocation reported by mallinfo(arena+hblkhd)
        624461 MiB available memory on the node where the printing process lives
------------------
     ethr =  8.04E-08,  avg # of iterations =  4.7

     negative rho (up, down):  3.558E-03 0.000E+00

     add environment contribution to local potential

     total cpu time spent up to now is      288.6 secs

     total energy              =    -481.20852375 Ry
     estimated scf accuracy    <       0.00022939 Ry
     electrostatic embedding   =      -0.01660932 Ry
     cavitation energy         =       0.01925905 Ry
     electrolyte free energy   =      -0.00054404 Ry
     correction to one-el term =       3.89037814 Ry

     iteration # 29     ecut=    80.00 Ry     beta= 0.20
     Davidson diagonalization with overlap

---- Real-time Memory Report at c_bands before calling an iterative solver
           938 MiB given to the printing process from OS
             0 MiB allocation reported by mallinfo(arena+hblkhd)
        624445 MiB available memory on the node where the printing process lives
------------------
     c_bands:  1 eigenvalues not converged
     c_bands:  1 eigenvalues not converged
     ethr =  8.04E-08,  avg # of iterations = 10.3

     negative rho (up, down):  2.125E-03 0.000E+00

     add environment contribution to local potential

     total cpu time spent up to now is      299.5 secs

     total energy              =    -481.20855343 Ry
     estimated scf accuracy    <       0.00008752 Ry
     electrostatic embedding   =      -0.01646072 Ry
     cavitation energy         =       0.01925905 Ry
     electrolyte free energy   =      -0.00058370 Ry
     correction to one-el term =       4.03490987 Ry

     iteration # 30     ecut=    80.00 Ry     beta= 0.20
     Davidson diagonalization with overlap

---- Real-time Memory Report at c_bands before calling an iterative solver
           947 MiB given to the printing process from OS
             0 MiB allocation reported by mallinfo(arena+hblkhd)
        624440 MiB available memory on the node where the printing process lives
------------------
     ethr =  8.04E-08,  avg # of iterations =  7.3

     negative rho (up, down):  1.302E-03 0.000E+00

     add environment contribution to local potential

     total cpu time spent up to now is      309.4 secs

     total energy              =    -481.20855509 Ry
     estimated scf accuracy    <       0.00000407 Ry
     electrostatic embedding   =      -0.01645969 Ry
     cavitation energy         =       0.01925905 Ry
     electrolyte free energy   =      -0.00057097 Ry
     correction to one-el term =       4.10897151 Ry

     iteration # 31     ecut=    80.00 Ry     beta= 0.20
     Davidson diagonalization with overlap

---- Real-time Memory Report at c_bands before calling an iterative solver
           955 MiB given to the printing process from OS
             0 MiB allocation reported by mallinfo(arena+hblkhd)
        624412 MiB available memory on the node where the printing process lives
------------------
     ethr =  4.24E-09,  avg # of iterations =  4.8

     negative rho (up, down):  9.299E-04 0.000E+00

     add environment contribution to local potential

     total cpu time spent up to now is      319.2 secs

     total energy              =    -481.20855606 Ry
     estimated scf accuracy    <       0.00000291 Ry
     electrostatic embedding   =      -0.01644434 Ry
     cavitation energy         =       0.01925905 Ry
     electrolyte free energy   =      -0.00057113 Ry
     correction to one-el term =       4.12771604 Ry

     iteration # 32     ecut=    80.00 Ry     beta= 0.20
     Davidson diagonalization with overlap

---- Real-time Memory Report at c_bands before calling an iterative solver
           961 MiB given to the printing process from OS
             0 MiB allocation reported by mallinfo(arena+hblkhd)
        624401 MiB available memory on the node where the printing process lives
------------------
     c_bands:  1 eigenvalues not converged
     c_bands:  1 eigenvalues not converged
     c_bands:  1 eigenvalues not converged
     ethr =  3.03E-09,  avg # of iterations =  9.0

     negative rho (up, down):  7.346E-04 0.000E+00

     add environment contribution to local potential

     total cpu time spent up to now is      329.9 secs

     total energy              =    -481.20855251 Ry
     estimated scf accuracy    <       0.00001098 Ry
     electrostatic embedding   =      -0.01642168 Ry
     cavitation energy         =       0.01925905 Ry
     electrolyte free energy   =      -0.00056270 Ry
     correction to one-el term =       4.12109057 Ry

     iteration # 33     ecut=    80.00 Ry     beta= 0.20
     Davidson diagonalization with overlap

---- Real-time Memory Report at c_bands before calling an iterative solver
           968 MiB given to the printing process from OS
             0 MiB allocation reported by mallinfo(arena+hblkhd)
        624391 MiB available memory on the node where the printing process lives
------------------
     c_bands:  1 eigenvalues not converged
     ethr =  3.03E-09,  avg # of iterations =  6.5

     negative rho (up, down):  5.410E-04 0.000E+00

     add environment contribution to local potential

     total cpu time spent up to now is      339.5 secs

     total energy              =    -481.20855346 Ry
     estimated scf accuracy    <       0.00000057 Ry
     electrostatic embedding   =      -0.01639078 Ry
     cavitation energy         =       0.01925905 Ry
     electrolyte free energy   =      -0.00056520 Ry
     correction to one-el term =       4.09369365 Ry

     iteration # 34     ecut=    80.00 Ry     beta= 0.20
     Davidson diagonalization with overlap

---- Real-time Memory Report at c_bands before calling an iterative solver
           975 MiB given to the printing process from OS
             0 MiB allocation reported by mallinfo(arena+hblkhd)
        624378 MiB available memory on the node where the printing process lives
------------------
     ethr =  5.98E-10,  avg # of iterations =  5.0

     negative rho (up, down):  3.912E-04 0.000E+00

     add environment contribution to local potential

     total cpu time spent up to now is      350.0 secs

     total energy              =    -481.20855454 Ry
     estimated scf accuracy    <       0.00000032 Ry
     electrostatic embedding   =      -0.01639398 Ry
     cavitation energy         =       0.01925905 Ry
     electrolyte free energy   =      -0.00056443 Ry
     correction to one-el term =       4.08550023 Ry

     iteration # 35     ecut=    80.00 Ry     beta= 0.20
     Davidson diagonalization with overlap

---- Real-time Memory Report at c_bands before calling an iterative solver
           980 MiB given to the printing process from OS
             0 MiB allocation reported by mallinfo(arena+hblkhd)
        624363 MiB available memory on the node where the printing process lives
------------------
     ethr =  3.38E-10,  avg # of iterations =  4.6

     negative rho (up, down):  4.299E-04 0.000E+00

     add environment contribution to local potential

     total cpu time spent up to now is      359.7 secs

     total energy              =    -481.20855485 Ry
     estimated scf accuracy    <       0.00000013 Ry
     electrostatic embedding   =      -0.01640943 Ry
     cavitation energy         =       0.01925905 Ry
     electrolyte free energy   =      -0.00056545 Ry
     correction to one-el term =       4.07604012 Ry

     iteration # 36     ecut=    80.00 Ry     beta= 0.20
     Davidson diagonalization with overlap

---- Real-time Memory Report at c_bands before calling an iterative solver
           988 MiB given to the printing process from OS
             0 MiB allocation reported by mallinfo(arena+hblkhd)
        624360 MiB available memory on the node where the printing process lives
------------------
     ethr =  1.39E-10,  avg # of iterations =  4.0

     negative rho (up, down):  3.257E-04 0.000E+00

     add environment contribution to local potential

     total cpu time spent up to now is      369.9 secs

     total energy              =    -481.20855478 Ry
     estimated scf accuracy    <       0.00000009 Ry
     electrostatic embedding   =      -0.01641002 Ry
     cavitation energy         =       0.01925905 Ry
     electrolyte free energy   =      -0.00056487 Ry
     correction to one-el term =       4.07454677 Ry

     iteration # 37     ecut=    80.00 Ry     beta= 0.20
     Davidson diagonalization with overlap

---- Real-time Memory Report at c_bands before calling an iterative solver
           994 MiB given to the printing process from OS
             0 MiB allocation reported by mallinfo(arena+hblkhd)
        624345 MiB available memory on the node where the printing process lives
------------------
     ethr =  9.46E-11,  avg # of iterations =  2.9

     negative rho (up, down):  3.339E-04 0.000E+00

     add environment contribution to local potential

     total cpu time spent up to now is      378.8 secs

     total energy              =    -481.20855478 Ry
     estimated scf accuracy    <       0.00000005 Ry
     electrostatic embedding   =      -0.01641840 Ry
     cavitation energy         =       0.01925905 Ry
     electrolyte free energy   =      -0.00056487 Ry
     correction to one-el term =       4.07223423 Ry

     iteration # 38     ecut=    80.00 Ry     beta= 0.20
     Davidson diagonalization with overlap

---- Real-time Memory Report at c_bands before calling an iterative solver
           999 MiB given to the printing process from OS
             0 MiB allocation reported by mallinfo(arena+hblkhd)
        624345 MiB available memory on the node where the printing process lives
------------------
     ethr =  5.39E-11,  avg # of iterations =  4.1

     negative rho (up, down):  3.306E-04 0.000E+00

     add environment contribution to local potential

     total cpu time spent up to now is      388.3 secs

     total energy              =    -481.20855480 Ry
     estimated scf accuracy    <       0.00000004 Ry
     electrostatic embedding   =      -0.01641940 Ry
     cavitation energy         =       0.01925905 Ry
     electrolyte free energy   =      -0.00056498 Ry
     correction to one-el term =       4.07296531 Ry

     iteration # 39     ecut=    80.00 Ry     beta= 0.20
     Davidson diagonalization with overlap

---- Real-time Memory Report at c_bands before calling an iterative solver
          1004 MiB given to the printing process from OS
             0 MiB allocation reported by mallinfo(arena+hblkhd)
        624328 MiB available memory on the node where the printing process lives
------------------
     ethr =  3.73E-11,  avg # of iterations =  2.0

     negative rho (up, down):  3.295E-04 0.000E+00

     add environment contribution to local potential

     total cpu time spent up to now is      396.8 secs

     total energy              =    -481.20855485 Ry
     estimated scf accuracy    <       0.00000003 Ry
     electrostatic embedding   =      -0.01642030 Ry
     cavitation energy         =       0.01925905 Ry
     electrolyte free energy   =      -0.00056516 Ry
     correction to one-el term =       4.07265770 Ry

     iteration # 40     ecut=    80.00 Ry     beta= 0.20
     Davidson diagonalization with overlap

---- Real-time Memory Report at c_bands before calling an iterative solver
          1008 MiB given to the printing process from OS
             0 MiB allocation reported by mallinfo(arena+hblkhd)
        624320 MiB available memory on the node where the printing process lives
------------------
     ethr =  3.29E-11,  avg # of iterations =  4.0

     negative rho (up, down):  3.394E-04 0.000E+00

     add environment contribution to local potential

     total cpu time spent up to now is      406.0 secs

     total energy              =    -481.20855487 Ry
     estimated scf accuracy    <       0.00000002 Ry
     electrostatic embedding   =      -0.01642311 Ry
     cavitation energy         =       0.01925905 Ry
     electrolyte free energy   =      -0.00056564 Ry
     correction to one-el term =       4.07096630 Ry

     iteration # 41     ecut=    80.00 Ry     beta= 0.20
     Davidson diagonalization with overlap

---- Real-time Memory Report at c_bands before calling an iterative solver
          1012 MiB given to the printing process from OS
             0 MiB allocation reported by mallinfo(arena+hblkhd)
        624295 MiB available memory on the node where the printing process lives
------------------
     ethr =  1.73E-11,  avg # of iterations =  2.5

     negative rho (up, down):  3.429E-04 0.000E+00

     add environment contribution to local potential

     total cpu time spent up to now is      414.8 secs

     total energy              =    -481.20855485 Ry
     estimated scf accuracy    <       0.00000001 Ry
     electrostatic embedding   =      -0.01642409 Ry
     cavitation energy         =       0.01925905 Ry
     electrolyte free energy   =      -0.00056566 Ry
     correction to one-el term =       4.07019165 Ry

     iteration # 42     ecut=    80.00 Ry     beta= 0.20
     Davidson diagonalization with overlap

---- Real-time Memory Report at c_bands before calling an iterative solver
          1019 MiB given to the printing process from OS
             0 MiB allocation reported by mallinfo(arena+hblkhd)
        624289 MiB available memory on the node where the printing process lives
------------------
     ethr =  1.34E-11,  avg # of iterations =  2.4

     negative rho (up, down):  3.457E-04 0.000E+00

     add environment contribution to local potential

     total cpu time spent up to now is      423.6 secs

     total energy              =    -481.20855488 Ry
     estimated scf accuracy    <       0.00000001 Ry
     electrostatic embedding   =      -0.01642393 Ry
     cavitation energy         =       0.01925905 Ry
     electrolyte free energy   =      -0.00056569 Ry
     correction to one-el term =       4.07024566 Ry

     iteration # 43     ecut=    80.00 Ry     beta= 0.20
     Davidson diagonalization with overlap

---- Real-time Memory Report at c_bands before calling an iterative solver
          1023 MiB given to the printing process from OS
             0 MiB allocation reported by mallinfo(arena+hblkhd)
        624272 MiB available memory on the node where the printing process lives
------------------
     ethr =  1.14E-11,  avg # of iterations =  2.2

     negative rho (up, down):  3.475E-04 0.000E+00

     add environment contribution to local potential

     total cpu time spent up to now is      432.4 secs

     total energy              =    -481.20855488 Ry
     estimated scf accuracy    <          9.4E-09 Ry
     electrostatic embedding   =      -0.01642426 Ry
     cavitation energy         =       0.01925905 Ry
     electrolyte free energy   =      -0.00056581 Ry
     correction to one-el term =       4.07120326 Ry

     iteration # 44     ecut=    80.00 Ry     beta= 0.20
     Davidson diagonalization with overlap

---- Real-time Memory Report at c_bands before calling an iterative solver
          1029 MiB given to the printing process from OS
             0 MiB allocation reported by mallinfo(arena+hblkhd)
        624257 MiB available memory on the node where the printing process lives
------------------
     ethr =  9.80E-12,  avg # of iterations =  2.4

     negative rho (up, down):  3.520E-04 0.000E+00

     add environment contribution to local potential

     total cpu time spent up to now is      441.1 secs

     total energy              =    -481.20855488 Ry
     estimated scf accuracy    <          7.3E-09 Ry
     electrostatic embedding   =      -0.01642349 Ry
     cavitation energy         =       0.01925905 Ry
     electrolyte free energy   =      -0.00056581 Ry
     correction to one-el term =       4.07167260 Ry

     iteration # 45     ecut=    80.00 Ry     beta= 0.20
     Davidson diagonalization with overlap

---- Real-time Memory Report at c_bands before calling an iterative solver
          1033 MiB given to the printing process from OS
             0 MiB allocation reported by mallinfo(arena+hblkhd)
        624249 MiB available memory on the node where the printing process lives
------------------
     ethr =  7.64E-12,  avg # of iterations =  1.9

     negative rho (up, down):  3.503E-04 0.000E+00

     add environment contribution to local potential

     total cpu time spent up to now is      449.5 secs

     total energy              =    -481.20855476 Ry
     estimated scf accuracy    <          6.5E-09 Ry
     electrostatic embedding   =      -0.01642346 Ry
     cavitation energy         =       0.01925905 Ry
     electrolyte free energy   =      -0.00056581 Ry
     correction to one-el term =       4.07160159 Ry

     iteration # 46     ecut=    80.00 Ry     beta= 0.20
     Davidson diagonalization with overlap

---- Real-time Memory Report at c_bands before calling an iterative solver
          1036 MiB given to the printing process from OS
             0 MiB allocation reported by mallinfo(arena+hblkhd)
        624242 MiB available memory on the node where the printing process lives
------------------
     ethr =  6.77E-12,  avg # of iterations =  3.5

     negative rho (up, down):  3.475E-04 0.000E+00

     add environment contribution to local potential

     total cpu time spent up to now is      458.7 secs

     total energy              =    -481.20855476 Ry
     estimated scf accuracy    <          5.0E-09 Ry
     electrostatic embedding   =      -0.01642206 Ry
     cavitation energy         =       0.01925905 Ry
     electrolyte free energy   =      -0.00056573 Ry
     correction to one-el term =       4.07256292 Ry

     iteration # 47     ecut=    80.00 Ry     beta= 0.20
     Davidson diagonalization with overlap

---- Real-time Memory Report at c_bands before calling an iterative solver
          1041 MiB given to the printing process from OS
             0 MiB allocation reported by mallinfo(arena+hblkhd)
        624236 MiB available memory on the node where the printing process lives
------------------
     ethr =  5.17E-12,  avg # of iterations =  2.1

     negative rho (up, down):  3.466E-04 0.000E+00

     add environment contribution to local potential

     total cpu time spent up to now is      467.3 secs

     total energy              =    -481.20855484 Ry
     estimated scf accuracy    <          4.4E-09 Ry
     electrostatic embedding   =      -0.01642185 Ry
     cavitation energy         =       0.01925905 Ry
     electrolyte free energy   =      -0.00056570 Ry
     correction to one-el term =       4.07307853 Ry

     iteration # 48     ecut=    80.00 Ry     beta= 0.20
     Davidson diagonalization with overlap

---- Real-time Memory Report at c_bands before calling an iterative solver
          1045 MiB given to the printing process from OS
             0 MiB allocation reported by mallinfo(arena+hblkhd)
        624219 MiB available memory on the node where the printing process lives
------------------
     ethr =  4.62E-12,  avg # of iterations =  2.3

     negative rho (up, down):  3.447E-04 0.000E+00

     add environment contribution to local potential

     total cpu time spent up to now is      475.9 secs

     total energy              =    -481.20855488 Ry
     estimated scf accuracy    <          3.6E-09 Ry
     electrostatic embedding   =      -0.01642160 Ry
     cavitation energy         =       0.01925905 Ry
     electrolyte free energy   =      -0.00056560 Ry
     correction to one-el term =       4.07375348 Ry

     iteration # 49     ecut=    80.00 Ry     beta= 0.20
     Davidson diagonalization with overlap

---- Real-time Memory Report at c_bands before calling an iterative solver
          1047 MiB given to the printing process from OS
             0 MiB allocation reported by mallinfo(arena+hblkhd)
        624217 MiB available memory on the node where the printing process lives
------------------
     ethr =  3.70E-12,  avg # of iterations =  2.4

     negative rho (up, down):  3.430E-04 0.000E+00

     add environment contribution to local potential

     total cpu time spent up to now is      484.6 secs

     total energy              =    -481.20855487 Ry
     estimated scf accuracy    <          2.8E-09 Ry
     electrostatic embedding   =      -0.01642181 Ry
     cavitation energy         =       0.01925905 Ry
     electrolyte free energy   =      -0.00056557 Ry
     correction to one-el term =       4.07384472 Ry

     iteration # 50     ecut=    80.00 Ry     beta= 0.20
     Davidson diagonalization with overlap

---- Real-time Memory Report at c_bands before calling an iterative solver
          1050 MiB given to the printing process from OS
             0 MiB allocation reported by mallinfo(arena+hblkhd)
        624206 MiB available memory on the node where the printing process lives
------------------
     ethr =  2.90E-12,  avg # of iterations =  3.1

     negative rho (up, down):  3.463E-04 0.000E+00

     add environment contribution to local potential

     total cpu time spent up to now is      493.3 secs

     total energy              =    -481.20855486 Ry
     estimated scf accuracy    <          2.4E-09 Ry
     electrostatic embedding   =      -0.01642209 Ry
     cavitation energy         =       0.01925905 Ry
     electrolyte free energy   =      -0.00056556 Ry
     correction to one-el term =       4.07379030 Ry

     iteration # 51     ecut=    80.00 Ry     beta= 0.20
     Davidson diagonalization with overlap

---- Real-time Memory Report at c_bands before calling an iterative solver
          1054 MiB given to the printing process from OS
             0 MiB allocation reported by mallinfo(arena+hblkhd)
        624199 MiB available memory on the node where the printing process lives
------------------
     ethr =  2.53E-12,  avg # of iterations =  2.3

     negative rho (up, down):  3.472E-04 0.000E+00

     add environment contribution to local potential

     total cpu time spent up to now is      501.9 secs

     total energy              =    -481.20855489 Ry
     estimated scf accuracy    <          1.7E-09 Ry
     electrostatic embedding   =      -0.01642184 Ry
     cavitation energy         =       0.01925905 Ry
     electrolyte free energy   =      -0.00056545 Ry
     correction to one-el term =       4.07359291 Ry

     iteration # 52     ecut=    80.00 Ry     beta= 0.20
     Davidson diagonalization with overlap

---- Real-time Memory Report at c_bands before calling an iterative solver
          1060 MiB given to the printing process from OS
             0 MiB allocation reported by mallinfo(arena+hblkhd)
        624192 MiB available memory on the node where the printing process lives
------------------
     ethr =  1.79E-12,  avg # of iterations =  3.1

     negative rho (up, down):  3.470E-04 0.000E+00

     add environment contribution to local potential

     total cpu time spent up to now is      510.9 secs

     total energy              =    -481.20855489 Ry
     estimated scf accuracy    <          1.5E-09 Ry
     electrostatic embedding   =      -0.01642168 Ry
     cavitation energy         =       0.01925905 Ry
     electrolyte free energy   =      -0.00056538 Ry
     correction to one-el term =       4.07365414 Ry

     iteration # 53     ecut=    80.00 Ry     beta= 0.20
     Davidson diagonalization with overlap

---- Real-time Memory Report at c_bands before calling an iterative solver
          1063 MiB given to the printing process from OS
             0 MiB allocation reported by mallinfo(arena+hblkhd)
        624185 MiB available memory on the node where the printing process lives
------------------
     ethr =  1.61E-12,  avg # of iterations =  1.0

     negative rho (up, down):  3.456E-04 0.000E+00

     add environment contribution to local potential

     total cpu time spent up to now is      518.9 secs

     total energy              =    -481.20855489 Ry
     estimated scf accuracy    <          1.5E-09 Ry
     electrostatic embedding   =      -0.01642174 Ry
     cavitation energy         =       0.01925905 Ry
     electrolyte free energy   =      -0.00056538 Ry
     correction to one-el term =       4.07359285 Ry

     iteration # 54     ecut=    80.00 Ry     beta= 0.20
     Davidson diagonalization with overlap

---- Real-time Memory Report at c_bands before calling an iterative solver
          1066 MiB given to the printing process from OS
             0 MiB allocation reported by mallinfo(arena+hblkhd)
        624179 MiB available memory on the node where the printing process lives
------------------
     ethr =  1.58E-12,  avg # of iterations =  2.0

     negative rho (up, down):  3.426E-04 0.000E+00

     add environment contribution to local potential

     total cpu time spent up to now is      527.4 secs

     total energy              =    -481.20855488 Ry
     estimated scf accuracy    <          1.5E-09 Ry
     electrostatic embedding   =      -0.01642186 Ry
     cavitation energy         =       0.01925905 Ry
     electrolyte free energy   =      -0.00056539 Ry
     correction to one-el term =       4.07344856 Ry

     iteration # 55     ecut=    80.00 Ry     beta= 0.20
     Davidson diagonalization with overlap

---- Real-time Memory Report at c_bands before calling an iterative solver
          1070 MiB given to the printing process from OS
             0 MiB allocation reported by mallinfo(arena+hblkhd)
        624172 MiB available memory on the node where the printing process lives
------------------
     ethr =  1.52E-12,  avg # of iterations =  2.1

     negative rho (up, down):  3.459E-04 0.000E+00

     add environment contribution to local potential

     total cpu time spent up to now is      535.9 secs

     total energy              =    -481.20855489 Ry
     estimated scf accuracy    <          1.4E-09 Ry
     electrostatic embedding   =      -0.01642198 Ry
     cavitation energy         =       0.01925905 Ry
     electrolyte free energy   =      -0.00056540 Ry
     correction to one-el term =       4.07336960 Ry

     iteration # 56     ecut=    80.00 Ry     beta= 0.20
     Davidson diagonalization with overlap

---- Real-time Memory Report at c_bands before calling an iterative solver
          1072 MiB given to the printing process from OS
             0 MiB allocation reported by mallinfo(arena+hblkhd)
        624169 MiB available memory on the node where the printing process lives
------------------
     ethr =  1.45E-12,  avg # of iterations =  2.4

     negative rho (up, down):  3.481E-04 0.000E+00

     add environment contribution to local potential

     total cpu time spent up to now is      544.6 secs

     total energy              =    -481.20855488 Ry
     estimated scf accuracy    <          1.3E-09 Ry
     electrostatic embedding   =      -0.01642230 Ry
     cavitation energy         =       0.01925905 Ry
     electrolyte free energy   =      -0.00056548 Ry
     correction to one-el term =       4.07331593 Ry

     iteration # 57     ecut=    80.00 Ry     beta= 0.20
     Davidson diagonalization with overlap

---- Real-time Memory Report at c_bands before calling an iterative solver
          1075 MiB given to the printing process from OS
             0 MiB allocation reported by mallinfo(arena+hblkhd)
        624163 MiB available memory on the node where the printing process lives
------------------
     ethr =  1.41E-12,  avg # of iterations =  2.5

     negative rho (up, down):  3.485E-04 0.000E+00

     add environment contribution to local potential

     total cpu time spent up to now is      553.2 secs

     total energy              =    -481.20855488 Ry
     estimated scf accuracy    <          1.3E-09 Ry
     electrostatic embedding   =      -0.01642243 Ry
     cavitation energy         =       0.01925905 Ry
     electrolyte free energy   =      -0.00056548 Ry
     correction to one-el term =       4.07334599 Ry

     iteration # 58     ecut=    80.00 Ry     beta= 0.20
     Davidson diagonalization with overlap

---- Real-time Memory Report at c_bands before calling an iterative solver
          1077 MiB given to the printing process from OS
             0 MiB allocation reported by mallinfo(arena+hblkhd)
        624157 MiB available memory on the node where the printing process lives
------------------
     ethr =  1.32E-12,  avg # of iterations =  1.0

     negative rho (up, down):  3.484E-04 0.000E+00

     add environment contribution to local potential

     total cpu time spent up to now is      561.3 secs

     total energy              =    -481.20855488 Ry
     estimated scf accuracy    <          1.2E-09 Ry
     electrostatic embedding   =      -0.01642246 Ry
     cavitation energy         =       0.01925905 Ry
     electrolyte free energy   =      -0.00056547 Ry
     correction to one-el term =       4.07334460 Ry

     iteration # 59     ecut=    80.00 Ry     beta= 0.20
     Davidson diagonalization with overlap

---- Real-time Memory Report at c_bands before calling an iterative solver
          1080 MiB given to the printing process from OS
             0 MiB allocation reported by mallinfo(arena+hblkhd)
        624152 MiB available memory on the node where the printing process lives
------------------
     ethr =  1.27E-12,  avg # of iterations =  2.4

     negative rho (up, down):  3.452E-04 0.000E+00

     add environment contribution to local potential

     total cpu time spent up to now is      570.0 secs

     total energy              =    -481.20855477 Ry
     estimated scf accuracy    <          9.6E-10 Ry
     electrostatic embedding   =      -0.01642251 Ry
     cavitation energy         =       0.01925905 Ry
     electrolyte free energy   =      -0.00056549 Ry
     correction to one-el term =       4.07318932 Ry

     iteration # 60     ecut=    80.00 Ry     beta= 0.20
     Davidson diagonalization with overlap

---- Real-time Memory Report at c_bands before calling an iterative solver
          1083 MiB given to the printing process from OS
             0 MiB allocation reported by mallinfo(arena+hblkhd)
        624149 MiB available memory on the node where the printing process lives
------------------
     ethr =  1.00E-12,  avg # of iterations =  3.3

     negative rho (up, down):  3.440E-04 0.000E+00

     add environment contribution to local potential

     total cpu time spent up to now is      579.2 secs

     total energy              =    -481.20855479 Ry
     estimated scf accuracy    <          6.1E-10 Ry
     electrostatic embedding   =      -0.01642206 Ry
     cavitation energy         =       0.01925905 Ry
     electrolyte free energy   =      -0.00056554 Ry
     correction to one-el term =       4.07329221 Ry

     iteration # 61     ecut=    80.00 Ry     beta= 0.20
     Davidson diagonalization with overlap

---- Real-time Memory Report at c_bands before calling an iterative solver
          1086 MiB given to the printing process from OS
             0 MiB allocation reported by mallinfo(arena+hblkhd)
        624139 MiB available memory on the node where the printing process lives
------------------
     ethr =  6.33E-13,  avg # of iterations =  2.0

     negative rho (up, down):  3.428E-04 0.000E+00

     add environment contribution to local potential

     total cpu time spent up to now is      587.7 secs

     total energy              =    -481.20855486 Ry
     estimated scf accuracy    <          5.7E-10 Ry
     electrostatic embedding   =      -0.01642186 Ry
     cavitation energy         =       0.01925905 Ry
     electrolyte free energy   =      -0.00056553 Ry
     correction to one-el term =       4.07339289 Ry

     iteration # 62     ecut=    80.00 Ry     beta= 0.20
     Davidson diagonalization with overlap

---- Real-time Memory Report at c_bands before calling an iterative solver
          1088 MiB given to the printing process from OS
             0 MiB allocation reported by mallinfo(arena+hblkhd)
        624139 MiB available memory on the node where the printing process lives
------------------
     ethr =  5.94E-13,  avg # of iterations =  3.1

     negative rho (up, down):  3.426E-04 0.000E+00

     add environment contribution to local potential

     total cpu time spent up to now is      596.6 secs

     total energy              =    -481.20855487 Ry
     estimated scf accuracy    <          5.1E-10 Ry
     electrostatic embedding   =      -0.01642176 Ry
     cavitation energy         =       0.01925905 Ry
     electrolyte free energy   =      -0.00056556 Ry
     correction to one-el term =       4.07345870 Ry

     iteration # 63     ecut=    80.00 Ry     beta= 0.20
     Davidson diagonalization with overlap

---- Real-time Memory Report at c_bands before calling an iterative solver
          1091 MiB given to the printing process from OS
             0 MiB allocation reported by mallinfo(arena+hblkhd)
        624135 MiB available memory on the node where the printing process lives
------------------
     ethr =  5.33E-13,  avg # of iterations =  1.4

     negative rho (up, down):  3.425E-04 0.000E+00

     add environment contribution to local potential

     total cpu time spent up to now is      604.7 secs

     total energy              =    -481.20855486 Ry
     estimated scf accuracy    <          5.1E-10 Ry
     electrostatic embedding   =      -0.01642173 Ry
     cavitation energy         =       0.01925905 Ry
     electrolyte free energy   =      -0.00056555 Ry
     correction to one-el term =       4.07351111 Ry

     iteration # 64     ecut=    80.00 Ry     beta= 0.20
     Davidson diagonalization with overlap

---- Real-time Memory Report at c_bands before calling an iterative solver
          1092 MiB given to the printing process from OS
             0 MiB allocation reported by mallinfo(arena+hblkhd)
        624135 MiB available memory on the node where the printing process lives
------------------
     ethr =  5.33E-13,  avg # of iterations =  1.2

[...]
     atom   15 type  1   force =     0.00000000    0.00000000    0.00000044
     atom   16 type  1   force =    -0.00000070    0.00000070    0.00000119
     atom   17 type  1   force =     0.00000000    0.00000000   -0.00000109
     atom   18 type  1   force =     0.00000015   -0.00000015   -0.00000148
     atom   19 type  1   force =     0.00000000    0.00000000    0.00000968
     atom   20 type  1   force =    -0.00000037    0.00000037   -0.00000376
     atom   21 type  1   force =     0.00000000    0.00000000    0.00000237
     atom   22 type  1   force =    -0.00000042    0.00000042   -0.00000698
     atom   23 type  1   force =     0.00000000    0.00000000    0.00000044
     atom   24 type  1   force =     0.00000070   -0.00000070    0.00000119
     atom   25 type  1   force =     0.00000000    0.00000000   -0.00000088
     atom   26 type  1   force =     0.00000015    0.00000015   -0.00000148
     atom   27 type  1   force =     0.00000000    0.00000000    0.00000881
     atom   28 type  1   force =    -0.00000037   -0.00000037   -0.00000376
     atom   29 type  1   force =     0.00000000    0.00000000    0.00000032
     atom   30 type  1   force =    -0.00000042   -0.00000042   -0.00000698
     atom   31 type  1   force =     0.00000000    0.00000000    0.00000101
     atom   32 type  1   force =     0.00000070    0.00000070    0.00000119
     The non-local contrib.  to forces
     atom    1 type  1   force =     0.00000000    0.00000000   -0.00194452
     atom    2 type  1   force =    -0.00000035   -0.00000035   -0.06770756
     atom    3 type  1   force =     0.00000000    0.00000000    0.00008125
     atom    4 type  1   force =     0.00000056    0.00000056    0.00018325
     atom    5 type  1   force =     0.00000000    0.00000000   -0.00018363
     atom    6 type  1   force =     0.00000071    0.00000071   -0.00007735
     atom    7 type  1   force =     0.00000000    0.00000000    0.06770691
     atom    8 type  1   force =    -0.00000108   -0.00000108    0.00194225
     atom    9 type  1   force =     0.00000000    0.00000000   -0.00194355
     atom   10 type  1   force =    -0.00000035    0.00000035   -0.06770756
     atom   11 type  1   force =     0.00000000    0.00000000    0.00008128
     atom   12 type  1   force =     0.00000056   -0.00000056    0.00018325
     atom   13 type  1   force =     0.00000000    0.00000000   -0.00018475
     atom   14 type  1   force =     0.00000071   -0.00000071   -0.00007735
     atom   15 type  1   force =     0.00000000    0.00000000    0.06770721
     atom   16 type  1   force =    -0.00000108    0.00000108    0.00194225
     atom   17 type  1   force =     0.00000000    0.00000000   -0.00194355
     atom   18 type  1   force =     0.00000035   -0.00000035   -0.06770756
     atom   19 type  1   force =     0.00000000    0.00000000    0.00008128
     atom   20 type  1   force =    -0.00000056    0.00000056    0.00018325
     atom   21 type  1   force =     0.00000000    0.00000000   -0.00018475
     atom   22 type  1   force =    -0.00000071    0.00000071   -0.00007735
     atom   23 type  1   force =     0.00000000    0.00000000    0.06770721
     atom   24 type  1   force =     0.00000108   -0.00000108    0.00194225
     atom   25 type  1   force =     0.00000000    0.00000000   -0.00194241
     atom   26 type  1   force =     0.00000035    0.00000035   -0.06770756
     atom   27 type  1   force =     0.00000000    0.00000000    0.00008161
     atom   28 type  1   force =    -0.00000056   -0.00000056    0.00018325
     atom   29 type  1   force =     0.00000000    0.00000000   -0.00018572
     atom   30 type  1   force =    -0.00000071   -0.00000071   -0.00007735
     atom   31 type  1   force =     0.00000000    0.00000000    0.06770781
     atom   32 type  1   force =     0.00000108    0.00000108    0.00194225
     The ionic contribution  to forces
     atom    1 type  1   force =    -0.00000001   -0.00000001   -9.88088677
     atom    2 type  1   force =    -0.00000490   -0.00000490  -13.52426888
     atom    3 type  1   force =    -0.00000001   -0.00000001   -1.98780294
     atom    4 type  1   force =     0.00001245    0.00001245   -5.94150037
     atom    5 type  1   force =    -0.00000000   -0.00000000    5.94148825
     atom    6 type  1   force =     0.00001309    0.00001309    1.98783613
     atom    7 type  1   force =    -0.00000001   -0.00000001   13.52423869
     atom    8 type  1   force =    -0.00001798   -0.00001798    9.88084170
     atom    9 type  1   force =    -0.00000001    0.00000001   -9.88087502
     atom   10 type  1   force =    -0.00000490    0.00000490  -13.52426885
     atom   11 type  1   force =    -0.00000001    0.00000001   -1.98780286
     atom   12 type  1   force =     0.00001245   -0.00001245   -5.94150039
     atom   13 type  1   force =    -0.00000000   -0.00000000    5.94152742
     atom   14 type  1   force =     0.00001309   -0.00001308    1.98783612
     atom   15 type  1   force =    -0.00000001    0.00000001   13.52422726
     atom   16 type  1   force =    -0.00001798    0.00001799    9.88084173
     atom   17 type  1   force =     0.00000001   -0.00000001   -9.88087502
     atom   18 type  1   force =     0.00000490   -0.00000490  -13.52426885
     atom   19 type  1   force =     0.00000001   -0.00000001   -1.98780286
     atom   20 type  1   force =    -0.00001245    0.00001245   -5.94150039
     atom   21 type  1   force =    -0.00000000   -0.00000000    5.94152742
     atom   22 type  1   force =    -0.00001308    0.00001309    1.98783612
     atom   23 type  1   force =     0.00000001   -0.00000001   13.52422726
     atom   24 type  1   force =     0.00001799   -0.00001798    9.88084173
     atom   25 type  1   force =     0.00000001    0.00000001   -9.88084824
     atom   26 type  1   force =     0.00000490    0.00000490  -13.52426883
     atom   27 type  1   force =     0.00000001    0.00000001   -1.98778075
     atom   28 type  1   force =    -0.00001245   -0.00001245   -5.94150039
     atom   29 type  1   force =    -0.00000000   -0.00000000    5.94158819
     atom   30 type  1   force =    -0.00001308   -0.00001308    1.98783611
     atom   31 type  1   force =     0.00000001    0.00000001   13.52421558
     atom   32 type  1   force =     0.00001799    0.00001799    9.88084174
     The local contribution  to forces
     atom    1 type  1   force =     0.00000407    0.00000407    9.87505068
     atom    2 type  1   force =     0.00000967    0.00000967   13.59157991
     atom    3 type  1   force =     0.00000407    0.00000407    1.98626951
     atom    4 type  1   force =    -0.00000799   -0.00000799    5.93729763
     atom    5 type  1   force =     0.00000407    0.00000407   -5.93729031
     atom    6 type  1   force =    -0.00000902   -0.00000902   -1.98630914
     atom    7 type  1   force =     0.00000350    0.00000350  -13.59155433
     atom    8 type  1   force =     0.00002282    0.00002282   -9.87500798
     atom    9 type  1   force =     0.00000407    0.00000499    9.87503866
     atom   10 type  1   force =     0.00000967   -0.00000025   13.59157871
     atom   11 type  1   force =     0.00000407    0.00000441    1.98626907
     atom   12 type  1   force =    -0.00000799    0.00001738    5.93729823
     atom   13 type  1   force =     0.00000407    0.00000382   -5.93732973
     atom   14 type  1   force =    -0.00000902    0.00001783   -1.98630914
     atom   15 type  1   force =     0.00000350    0.00000442  -13.59154224
     atom   16 type  1   force =     0.00002282   -0.00001401   -9.87500859
     atom   17 type  1   force =     0.00000499    0.00000407    9.87503866
     atom   18 type  1   force =    -0.00000025    0.00000967   13.59157871
     atom   19 type  1   force =     0.00000441    0.00000407    1.98626907
     atom   20 type  1   force =     0.00001738   -0.00000799    5.93729823
     atom   21 type  1   force =     0.00000382    0.00000407   -5.93732973
     atom   22 type  1   force =     0.00001783   -0.00000902   -1.98630914
     atom   23 type  1   force =     0.00000442    0.00000350  -13.59154224
     atom   24 type  1   force =    -0.00001401    0.00002282   -9.87500859
     atom   25 type  1   force =     0.00000499    0.00000499    9.87501102
     atom   26 type  1   force =    -0.00000025   -0.00000025   13.59157811
     atom   27 type  1   force =     0.00000441    0.00000441    1.98624577
     atom   28 type  1   force =     0.00001738    0.00001738    5.93729823
     atom   29 type  1   force =     0.00000382    0.00000382   -5.93739147
     atom   30 type  1   force =     0.00001783    0.00001783   -1.98630914
     atom   31 type  1   force =     0.00000442    0.00000442  -13.59153000
     atom   32 type  1   force =    -0.00001401   -0.00001401   -9.87500859
     The core correction contribution to forces
     atom    1 type  1   force =     0.00000000    0.00000000    0.00000000
     atom    2 type  1   force =     0.00000000    0.00000000    0.00000000
     atom    3 type  1   force =     0.00000000    0.00000000    0.00000000
     atom    4 type  1   force =     0.00000000    0.00000000    0.00000000
     atom    5 type  1   force =     0.00000000    0.00000000    0.00000000
     atom    6 type  1   force =     0.00000000    0.00000000    0.00000000
     atom    7 type  1   force =     0.00000000    0.00000000    0.00000000
     atom    8 type  1   force =     0.00000000    0.00000000    0.00000000
     atom    9 type  1   force =     0.00000000    0.00000000    0.00000000
     atom   10 type  1   force =     0.00000000    0.00000000    0.00000000
     atom   11 type  1   force =     0.00000000    0.00000000    0.00000000
     atom   12 type  1   force =     0.00000000    0.00000000    0.00000000
     atom   13 type  1   force =     0.00000000    0.00000000    0.00000000
     atom   14 type  1   force =     0.00000000    0.00000000    0.00000000
     atom   15 type  1   force =     0.00000000    0.00000000    0.00000000
     atom   16 type  1   force =     0.00000000    0.00000000    0.00000000
     atom   17 type  1   force =     0.00000000    0.00000000    0.00000000
     atom   18 type  1   force =     0.00000000    0.00000000    0.00000000
     atom   19 type  1   force =     0.00000000    0.00000000    0.00000000
     atom   20 type  1   force =     0.00000000    0.00000000    0.00000000
     atom   21 type  1   force =     0.00000000    0.00000000    0.00000000
     atom   22 type  1   force =     0.00000000    0.00000000    0.00000000
     atom   23 type  1   force =     0.00000000    0.00000000    0.00000000
     atom   24 type  1   force =     0.00000000    0.00000000    0.00000000
     atom   25 type  1   force =     0.00000000    0.00000000    0.00000000
     atom   26 type  1   force =     0.00000000    0.00000000    0.00000000
     atom   27 type  1   force =     0.00000000    0.00000000    0.00000000
     atom   28 type  1   force =     0.00000000    0.00000000    0.00000000
     atom   29 type  1   force =     0.00000000    0.00000000    0.00000000
     atom   30 type  1   force =     0.00000000    0.00000000    0.00000000
     atom   31 type  1   force =     0.00000000    0.00000000    0.00000000
     atom   32 type  1   force =     0.00000000    0.00000000    0.00000000
     The Hubbard contrib.    to forces
     atom    1 type  1   force =     0.00000000    0.00000000    0.00000000
     atom    2 type  1   force =     0.00000000    0.00000000    0.00000000
     atom    3 type  1   force =     0.00000000    0.00000000    0.00000000
     atom    4 type  1   force =     0.00000000    0.00000000    0.00000000
     atom    5 type  1   force =     0.00000000    0.00000000    0.00000000
     atom    6 type  1   force =     0.00000000    0.00000000    0.00000000
     atom    7 type  1   force =     0.00000000    0.00000000    0.00000000
     atom    8 type  1   force =     0.00000000    0.00000000    0.00000000
     atom    9 type  1   force =     0.00000000    0.00000000    0.00000000
     atom   10 type  1   force =     0.00000000    0.00000000    0.00000000
     atom   11 type  1   force =     0.00000000    0.00000000    0.00000000
     atom   12 type  1   force =     0.00000000    0.00000000    0.00000000
     atom   13 type  1   force =     0.00000000    0.00000000    0.00000000
     atom   14 type  1   force =     0.00000000    0.00000000    0.00000000
     atom   15 type  1   force =     0.00000000    0.00000000    0.00000000
     atom   16 type  1   force =     0.00000000    0.00000000    0.00000000
     atom   17 type  1   force =     0.00000000    0.00000000    0.00000000
     atom   18 type  1   force =     0.00000000    0.00000000    0.00000000
     atom   19 type  1   force =     0.00000000    0.00000000    0.00000000
     atom   20 type  1   force =     0.00000000    0.00000000    0.00000000
     atom   21 type  1   force =     0.00000000    0.00000000    0.00000000
     atom   22 type  1   force =     0.00000000    0.00000000    0.00000000
     atom   23 type  1   force =     0.00000000    0.00000000    0.00000000
     atom   24 type  1   force =     0.00000000    0.00000000    0.00000000
     atom   25 type  1   force =     0.00000000    0.00000000    0.00000000
     atom   26 type  1   force =     0.00000000    0.00000000    0.00000000
     atom   27 type  1   force =     0.00000000    0.00000000    0.00000000
     atom   28 type  1   force =     0.00000000    0.00000000    0.00000000
     atom   29 type  1   force =     0.00000000    0.00000000    0.00000000
     atom   30 type  1   force =     0.00000000    0.00000000    0.00000000
     atom   31 type  1   force =     0.00000000    0.00000000    0.00000000
     atom   32 type  1   force =     0.00000000    0.00000000    0.00000000
     The SCF correction term to forces
     atom    1 type  1   force =    -0.00000000    0.00000000    0.00000000
     atom    2 type  1   force =     0.00000000    0.00000000    0.00000000
     atom    3 type  1   force =     0.00000000    0.00000000   -0.00000002
     atom    4 type  1   force =    -0.00000001   -0.00000001    0.00000000
     atom    5 type  1   force =     0.00000000    0.00000000   -0.00000000
     atom    6 type  1   force =     0.00000000    0.00000000   -0.00000000
     atom    7 type  1   force =    -0.00000000   -0.00000000    0.00000001
     atom    8 type  1   force =    -0.00000001   -0.00000001   -0.00000000
     atom    9 type  1   force =     0.00000000    0.00000000   -0.00000001
     atom   10 type  1   force =     0.00000000   -0.00000000    0.00000000
     atom   11 type  1   force =     0.00000000   -0.00000000    0.00000001
     atom   12 type  1   force =    -0.00000001    0.00000001    0.00000000
     atom   13 type  1   force =     0.00000000    0.00000000    0.00000000
     atom   14 type  1   force =     0.00000000   -0.00000000   -0.00000000
     atom   15 type  1   force =     0.00000000   -0.00000000    0.00000002
     atom   16 type  1   force =    -0.00000001    0.00000001   -0.00000000
     atom   17 type  1   force =    -0.00000000    0.00000000   -0.00000001
     atom   18 type  1   force =    -0.00000000    0.00000000    0.00000000
     atom   19 type  1   force =    -0.00000000    0.00000000    0.00000001
     atom   20 type  1   force =     0.00000001   -0.00000001    0.00000000
     atom   21 type  1   force =     0.00000000   -0.00000000    0.00000000
     atom   22 type  1   force =    -0.00000000    0.00000000   -0.00000000
     atom   23 type  1   force =    -0.00000000   -0.00000000    0.00000002
     atom   24 type  1   force =     0.00000001   -0.00000001   -0.00000000
     atom   25 type  1   force =    -0.00000000    0.00000000    0.00000002
     atom   26 type  1   force =    -0.00000000   -0.00000000    0.00000000
     atom   27 type  1   force =     0.00000000   -0.00000000    0.00000001
     atom   28 type  1   force =     0.00000001    0.00000001    0.00000000
     atom   29 type  1   force =    -0.00000000    0.00000000   -0.00000001
     atom   30 type  1   force =    -0.00000000   -0.00000000   -0.00000000
     atom   31 type  1   force =     0.00000000   -0.00000000   -0.00000001
     atom   32 type  1   force =     0.00000001    0.00000001   -0.00000000

     Total force =     0.000026     Total SCF correction =     0.000000
     Message from routine punch:
     Nothing written, as per user request (disk_io='none')
 
     init_run     :      6.89s CPU      7.41s WALL (       1 calls)
     electrons    :   1872.95s CPU   1899.82s WALL (       1 calls)
     forces       :      7.37s CPU      7.47s WALL (       1 calls)

     Called by init_run:
     wfcinit      :      2.16s CPU      2.29s WALL (       1 calls)
     wfcinit:wfcr :      2.06s CPU      2.18s WALL (      21 calls)
     potinit      :      0.08s CPU      0.11s WALL (       1 calls)
     hinit0       :      1.08s CPU      1.30s WALL (       1 calls)

     Called by electrons:
     c_bands      :   1141.62s CPU   1153.28s WALL (     220 calls)
     sum_band     :    234.44s CPU    240.61s WALL (     220 calls)
     v_of_rho     :      9.60s CPU      9.99s WALL (     221 calls)
     v_h          :      0.97s CPU      0.98s WALL (     221 calls)
     v_xc         :      8.62s CPU      9.00s WALL (     221 calls)
     newd         :     12.10s CPU     15.19s WALL (     221 calls)
     PAW_pot      :      2.64s CPU      2.79s WALL (     221 calls)
     mix_rho      :     28.08s CPU     28.92s WALL (     220 calls)

     Called by c_bands:
     init_us_2    :     28.96s CPU     29.39s WALL (    9282 calls)
     cegterg      :   1105.35s CPU   1116.23s WALL (    4620 calls)

     Called by sum_band:
     sum_band:wei :      0.26s CPU      0.34s WALL (     220 calls)
     sum_band:loo :    218.09s CPU    220.24s WALL (     220 calls)
     sum_band:buf :      3.02s CPU      3.08s WALL (    4620 calls)
     sum_band:ini :     13.15s CPU     13.27s WALL (    4620 calls)
     sum_band:cal :     38.54s CPU     38.83s WALL (    4620 calls)
     sum_band:bec :      0.85s CPU      0.86s WALL (    4620 calls)
     addusdens    :      8.34s CPU     12.01s WALL (     220 calls)
                                        0.00s GPU  (     220 calls)
     addusd:skk   :      1.35s CPU      2.52s WALL (     220 calls)
                                        0.00s GPU  (     220 calls)

     Called by *egterg:
     cdiaghg      :     77.80s CPU     78.35s WALL (   16539 calls)
     cegterg:over :     44.15s CPU     44.55s WALL (   11919 calls)
     cegterg:upda :     24.51s CPU     24.73s WALL (   11919 calls)
     cegterg:last :     53.41s CPU     53.83s WALL (    7812 calls)
     h_psi        :    818.43s CPU    826.96s WALL (   16560 calls)
     s_psi        :     57.99s CPU     58.49s WALL (   16560 calls)
     g_psi        :      0.50s CPU      0.50s WALL (   11919 calls)

     Called by h_psi:
     h_psi:calbec :     93.75s CPU     94.79s WALL (   16560 calls)
     vloc_psi     :    649.15s CPU    656.06s WALL (   16560 calls)
                                        0.00s GPU  (   16560 calls)
     add_vuspsi   :     71.60s CPU     72.18s WALL (   16560 calls)

     General routines
     calbec       :    132.77s CPU    134.13s WALL (   21264 calls)
     fft          :      8.62s CPU      8.83s WALL (    2873 calls)
     ffts         :     18.70s CPU     19.05s WALL (   27378 calls)
     fftw         :    783.51s CPU    791.95s WALL ( 1749110 calls)
     interpolate  :      0.88s CPU      0.89s WALL (     221 calls)
 
     Parallel routines

     PAW routines
     PAW_pot      :      2.64s CPU      2.79s WALL (     221 calls)
     PAW_symme    :      0.03s CPU      0.03s WALL (     441 calls)
 
     Environ routines
 
     PWSCF        :  31m27.78s CPU  31m55.72s WALL

 
   This run was terminated on:  20: 4: 0  25Dec2024            

=------------------------------------------------------------------------------=
   JOB DONE.
=------------------------------------------------------------------------------=
