
     Program PWSCF v.7.4 starts on 23Jan2025 at  0:35:55 

     This program is part of the open-source Quantum ESPRESSO suite
     for quantum simulation of materials; please cite
         "P. Giannozzi et al., J. Phys.:Condens. Matter 21 395502 (2009);
         "P. Giannozzi et al., J. Phys.:Condens. Matter 29 465901 (2017);
         "P. Giannozzi et al., J. Chem. Phys. 152 154105 (2020);
          URL http://www.quantum-espresso.org", 
     in publications or presentations arising from this work. More details at
     http://www.quantum-espresso.org/quote

     Parallel version (MPI & OpenMP), running on     384 processor cores
     Number of MPI processes:               384
     Threads/MPI process:                     1

     MPI processes distributed on     2 nodes
     646393 MiB available memory on the printing compute node when the environment starts
 
     Reading input from espresso.pwi
Warning: card &CELL ignored
Warning: card    PRESS_CONV_THR   = 0.1 ignored
Warning: card    CELL_DOFREE      = 'ALL' ignored
Warning: card / ignored
Warning: card &FCP ignored
Warning: card / ignored
Warning: card &RISM ignored
Warning: card / ignored

     Current dimensions of program PWSCF are:
     Max number of different atomic species (ntypx) = 10
     Max number of k-points (npk) =  40000
     Max angular momentum in pseudopotentials (lmaxx) =  4

     IMPORTANT: XC functional enforced from input :
     Exchange-correlation= PBE
                           (   1   4   3   4   0   0   0)
     Any further DFT definition will be discarded
     Please, verify this is what you really want

     Message from routine setup:
     using ibrav=0 with symmetry is DISCOURAGED, use correct ibrav instead
 
     K-points division:     npool     =       3
     R & G space division:  proc/nbgrp/npool/nimage =     128
     Subspace diagonalization in iterative solution of the eigenvalue problem:
     a serial algorithm will be used

 
     Parallelization info
     --------------------
     sticks:   dense  smooth     PW     G-vecs:    dense   smooth      PW
     Min          98      39     10                35924     9079    1252
     Max          99      40     11                35945     9106    1285
     Sum       12597    5037   1349              4599357  1163607  161943
 
     Using Slab Decomposition
 


     bravais-lattice index     =            0
     lattice parameter (alat)  =      18.3607  a.u.
     unit-cell volume          =   12036.1829 (a.u.)^3
     number of atoms/cell      =           44
     number of atomic types    =            1
     number of electrons       =       132.00
     number of Kohn-Sham states=           99
     kinetic-energy cutoff     =      80.0000  Ry
     charge density cutoff     =     800.0000  Ry
     scf convergence threshold =      1.0E-06
     mixing beta               =       0.2000
     number of iterations used =            8  local-TF  mixing
     energy convergence thresh.=      1.0E-05
     force convergence thresh. =      3.9E-04
     Exchange-correlation= PBE
                           (   1   4   3   4   0   0   0)
     nstep                     =           50


     celldm(1)=  18.360747  celldm(2)=   0.000000  celldm(3)=   0.000000
     celldm(4)=   0.000000  celldm(5)=   0.000000  celldm(6)=   0.000000

     crystal axes: (cart. coord. in units of alat)
               a(1) = (   1.000000   0.000000   0.000000 )  
               a(2) = (   0.000000   0.586302   0.000000 )  
               a(3) = (   0.000000   0.000000   3.316625 )  

     reciprocal axes: (cart. coord. in units 2 pi/alat)
               b(1) = (  1.000000  0.000000  0.000000 )  
               b(2) = (  0.000000  1.705606  0.000000 )  
               b(3) = (  0.000000  0.000000  0.301511 )  


     PseudoPot. # 1 for Li read from file:
     /iridisfs/home/ba3g18/Repos/Pseudopotentials/pslibrary.1.0.0/pbe/PSEUDOPOTENTIALS/Li.pbe-sl-kjpaw_psl.1.0.0.UPF
     MD5 check sum: 3f4d2cafebb47c6c3aa8ed472e6f074d
     Pseudo is Projector augmented-wave, Zval =  3.0
     Generated using 'atomic' code by A. Dal Corso  v.7.4
     Shape of augmentation charge: PSQ
     Using radial grid of 1017 points,  4 beta functions with: 
                l(1) =   0
                l(2) =   0
                l(3) =   1
                l(4) =   1
     Q(r) pseudized with 0 coefficients 


     atomic species   valence    mass     pseudopotential
     Li                3.00     6.94000     Li( 1.00)

      2 Sym. Ops. (no inversion) found



   Cartesian axes

     site n.     atom                  positions (alat units)
         1        Li     tau(   1) = (   0.5000000   0.5681958   2.4460629  )
         2        Li     tau(   2) = (   0.2500009   0.4445031   0.8705625  )
         3        Li     tau(   3) = (   0.2500000   0.1095617   1.0490089  )
         4        Li     tau(   4) = (   0.5000000   0.2221545   0.9202354  )
         5        Li     tau(   5) = (  -0.0000000   0.5084145   1.0637969  )
         6        Li     tau(   6) = (   0.5000000   0.1953567   1.2316546  )
         7        Li     tau(   7) = (   0.2500001   0.3236703   1.4688136  )
         8        Li     tau(   8) = (   0.2499997   0.5881637   1.6398887  )
         9        Li     tau(   9) = (   0.2499997   0.3792850   1.1661484  )
        10        Li     tau(  10) = (   0.2500002   0.0503945   1.3404779  )
        11        Li     tau(  11) = (  -0.0000000   0.4699334   1.3729517  )
        12        Li     tau(  12) = (   0.5000000   0.1505836   1.5407671  )
        13        Li     tau(  13) = (   0.5000000   0.4245400   1.6767357  )
        14        Li     tau(  14) = (   0.5000000   0.1027308   1.8478123  )
        15        Li     tau(  15) = (   0.2499999   0.5427701   1.9436734  )
        16        Li     tau(  16) = (   0.2499998   0.2310453   2.0849709  )
        17        Li     tau(  17) = (   0.2500003   0.2758176   1.7758591  )
        18        Li     tau(  18) = (  -0.0000000   0.3760070   1.9761483  )
        19        Li     tau(  19) = (   0.5000000   0.0471158   2.1504774  )
        20        Li     tau(  20) = (   0.5000000   0.3168412   2.2676114  )
        21        Li     tau(  21) = (   0.2499992   0.5042889   2.2528272  )
        22        Li     tau(  22) = (   0.2500047   0.2042465   2.3963893  )
        23        Li     tau(  23) = (   1.0000000   0.5682049   2.4460607  )
        24        Li     tau(  24) = (   0.7499991   0.4445031   0.8705625  )
        25        Li     tau(  25) = (   0.7500000   0.1095617   1.0490089  )
        26        Li     tau(  26) = (   1.0000000   0.2221552   0.9202345  )
        27        Li     tau(  27) = (   0.5000000   0.5084143   1.0637984  )
        28        Li     tau(  28) = (   1.0000000   0.1953561   1.2316533  )
        29        Li     tau(  29) = (   0.7499999   0.3236703   1.4688136  )
        30        Li     tau(  30) = (   0.7500003   0.5881637   1.6398887  )
        31        Li     tau(  31) = (   0.7500003   0.3792850   1.1661484  )
        32        Li     tau(  32) = (   0.7499998   0.0503945   1.3404779  )
        33        Li     tau(  33) = (   0.5000000   0.4699337   1.3729521  )
        34        Li     tau(  34) = (   1.0000000   0.1505838   1.5407654  )
        35        Li     tau(  35) = (   1.0000000   0.4245392   1.6767371  )
        36        Li     tau(  36) = (   1.0000000   0.1027317   1.8478111  )
        37        Li     tau(  37) = (   0.7500001   0.5427701   1.9436734  )
        38        Li     tau(  38) = (   0.7500002   0.2310453   2.0849709  )
        39        Li     tau(  39) = (   0.7499997   0.2758176   1.7758591  )
        40        Li     tau(  40) = (   0.5000000   0.3760073   1.9761447  )
        41        Li     tau(  41) = (   1.0000000   0.0471165   2.1504753  )
        42        Li     tau(  42) = (   1.0000000   0.3168381   2.2676189  )
        43        Li     tau(  43) = (   0.7500008   0.5042889   2.2528272  )
        44        Li     tau(  44) = (   0.7499953   0.2042465   2.3963893  )

     number of k points=    28  Marzari-Vanderbilt smearing, width (Ry)=  0.0100
                       cart. coord. in units 2pi/alat
        k(    1) = (   0.0000000   0.0000000   0.0000000), wk =   0.0238095
        k(    2) = (   0.0000000   0.1421338   0.0000000), wk =   0.0476190
        k(    3) = (   0.0000000   0.2842676   0.0000000), wk =   0.0476190
        k(    4) = (   0.0000000   0.4264014   0.0000000), wk =   0.0476190
        k(    5) = (   0.0000000   0.5685352   0.0000000), wk =   0.0476190
        k(    6) = (   0.0000000   0.7106690   0.0000000), wk =   0.0476190
        k(    7) = (   0.0000000  -0.8528028   0.0000000), wk =   0.0238095
        k(    8) = (   0.1428571   0.0000000   0.0000000), wk =   0.0476190
        k(    9) = (   0.1428571   0.1421338   0.0000000), wk =   0.0952381
        k(   10) = (   0.1428571   0.2842676   0.0000000), wk =   0.0952381
        k(   11) = (   0.1428571   0.4264014   0.0000000), wk =   0.0952381
        k(   12) = (   0.1428571   0.5685352   0.0000000), wk =   0.0952381
        k(   13) = (   0.1428571   0.7106690   0.0000000), wk =   0.0952381
        k(   14) = (   0.1428571  -0.8528028   0.0000000), wk =   0.0476190
        k(   15) = (   0.2857143   0.0000000   0.0000000), wk =   0.0476190
        k(   16) = (   0.2857143   0.1421338   0.0000000), wk =   0.0952381
        k(   17) = (   0.2857143   0.2842676   0.0000000), wk =   0.0952381
        k(   18) = (   0.2857143   0.4264014   0.0000000), wk =   0.0952381
        k(   19) = (   0.2857143   0.5685352   0.0000000), wk =   0.0952381
        k(   20) = (   0.2857143   0.7106690   0.0000000), wk =   0.0952381
        k(   21) = (   0.2857143  -0.8528028   0.0000000), wk =   0.0476190
        k(   22) = (   0.4285714   0.0000000   0.0000000), wk =   0.0476190
        k(   23) = (   0.4285714   0.1421338   0.0000000), wk =   0.0952381
        k(   24) = (   0.4285714   0.2842676   0.0000000), wk =   0.0952381
        k(   25) = (   0.4285714   0.4264014   0.0000000), wk =   0.0952381
        k(   26) = (   0.4285714   0.5685352   0.0000000), wk =   0.0952381
        k(   27) = (   0.4285714   0.7106690   0.0000000), wk =   0.0952381
        k(   28) = (   0.4285714  -0.8528028   0.0000000), wk =   0.0476190

     Dense  grid:  4599357 G-vectors     FFT dimensions: ( 180, 100, 576)

     Smooth grid:  1163607 G-vectors     FFT dimensions: ( 108,  64, 360)

     Estimated max dynamical RAM per process >      78.48 MB

     Estimated total dynamical RAM >      27.24 GB

     Initial potential from superposition of free atoms

     starting charge     131.7972, renormalised to     132.0000

     negative rho (up, down):  1.373E-03 0.000E+00
     Starting wfcs are  220 randomized atomic wfcs
     Checking if some PAW data can be deallocated... 

     total cpu time spent up to now is        8.9 secs

     Self-consistent Calculation

     iteration #  1     ecut=    80.00 Ry     beta= 0.20
     Davidson diagonalization with overlap
     ethr =  1.00E-02,  avg # of iterations =  3.8

     negative rho (up, down):  2.834E-05 0.000E+00

     total cpu time spent up to now is       16.4 secs

     total energy              =    -661.87299853 Ry
     estimated scf accuracy    <       5.67240584 Ry

     iteration #  2     ecut=    80.00 Ry     beta= 0.20
     Davidson diagonalization with overlap
     ethr =  4.30E-03,  avg # of iterations =  1.2

     total cpu time spent up to now is       21.4 secs

     total energy              =    -661.48167635 Ry
     estimated scf accuracy    <       4.09264889 Ry

     iteration #  3     ecut=    80.00 Ry     beta= 0.20
     Davidson diagonalization with overlap
     ethr =  3.10E-03,  avg # of iterations =  1.1

     total cpu time spent up to now is       26.0 secs

     total energy              =    -661.66961467 Ry
     estimated scf accuracy    <       0.32193160 Ry

     iteration #  4     ecut=    80.00 Ry     beta= 0.20
     Davidson diagonalization with overlap
     ethr =  2.44E-04,  avg # of iterations =  4.0

     total cpu time spent up to now is       32.1 secs

     total energy              =    -661.69461957 Ry
     estimated scf accuracy    <       0.43229921 Ry

     iteration #  5     ecut=    80.00 Ry     beta= 0.20
     Davidson diagonalization with overlap
     ethr =  2.44E-04,  avg # of iterations =  2.8

     total cpu time spent up to now is       37.1 secs

     total energy              =    -661.69800248 Ry
     estimated scf accuracy    <       0.13068333 Ry

     iteration #  6     ecut=    80.00 Ry     beta= 0.20
     Davidson diagonalization with overlap
     ethr =  9.90E-05,  avg # of iterations =  5.7

     total cpu time spent up to now is       43.2 secs

     total energy              =    -661.68529687 Ry
     estimated scf accuracy    <       0.13657942 Ry

     iteration #  7     ecut=    80.00 Ry     beta= 0.20
     Davidson diagonalization with overlap
     ethr =  9.90E-05,  avg # of iterations =  3.6

     negative rho (up, down):  4.750E-04 0.000E+00

     total cpu time spent up to now is       48.6 secs

     total energy              =    -661.68624614 Ry
     estimated scf accuracy    <       0.04764420 Ry

     iteration #  8     ecut=    80.00 Ry     beta= 0.20
     Davidson diagonalization with overlap
     c_bands:  3 eigenvalues not converged
     ethr =  3.61E-05,  avg # of iterations =  6.2

     negative rho (up, down):  5.727E-02 0.000E+00

     total cpu time spent up to now is       55.3 secs

     total energy              =    -661.67379073 Ry
     estimated scf accuracy    <       0.35960162 Ry

     iteration #  9     ecut=    80.00 Ry     beta= 0.20
     Davidson diagonalization with overlap
     c_bands:  1 eigenvalues not converged
     ethr =  3.61E-05,  avg # of iterations = 12.8

     negative rho (up, down):  5.773E-03 0.000E+00

     total cpu time spent up to now is       63.7 secs

     total energy              =    -661.70229670 Ry
     estimated scf accuracy    <       0.05161629 Ry

     iteration # 10     ecut=    80.00 Ry     beta= 0.20
     Davidson diagonalization with overlap
     c_bands:  2 eigenvalues not converged
     c_bands:  1 eigenvalues not converged
     c_bands:  2 eigenvalues not converged
     ethr =  3.61E-05,  avg # of iterations = 15.7

     negative rho (up, down):  6.252E-02 0.000E+00

     total cpu time spent up to now is       73.7 secs

     total energy              =    -661.67582169 Ry
     estimated scf accuracy    <       0.48990621 Ry

     iteration # 11     ecut=    80.00 Ry     beta= 0.20
     Davidson diagonalization with overlap
     ethr =  3.61E-05,  avg # of iterations = 10.1

     negative rho (up, down):  5.835E-02 0.000E+00

     total cpu time spent up to now is       81.3 secs

     total energy              =    -661.67748109 Ry
     estimated scf accuracy    <       0.10886934 Ry

     iteration # 12     ecut=    80.00 Ry     beta= 0.20
     Davidson diagonalization with overlap
     ethr =  3.61E-05,  avg # of iterations =  1.8

     negative rho (up, down):  1.509E-02 0.000E+00

     total cpu time spent up to now is       85.9 secs

     total energy              =    -661.67688005 Ry
     estimated scf accuracy    <       0.03432569 Ry

     iteration # 13     ecut=    80.00 Ry     beta= 0.20
     Davidson diagonalization with overlap
     ethr =  2.60E-05,  avg # of iterations =  2.1

     negative rho (up, down):  1.142E-02 0.000E+00

     total cpu time spent up to now is       90.9 secs

     total energy              =    -661.67549440 Ry
     estimated scf accuracy    <       0.01259587 Ry

     iteration # 14     ecut=    80.00 Ry     beta= 0.20
     Davidson diagonalization with overlap
     ethr =  9.54E-06,  avg # of iterations = 11.9

     negative rho (up, down):  6.730E-03 0.000E+00

     total cpu time spent up to now is       99.6 secs

     total energy              =    -661.67699341 Ry
     estimated scf accuracy    <       0.00057248 Ry

     iteration # 15     ecut=    80.00 Ry     beta= 0.20
     Davidson diagonalization with overlap
     c_bands:  1 eigenvalues not converged
     c_bands:  1 eigenvalues not converged
     ethr =  4.34E-07,  avg # of iterations = 12.3

     negative rho (up, down):  1.601E-03 0.000E+00

     total cpu time spent up to now is      108.7 secs

     total energy              =    -661.67714660 Ry
     estimated scf accuracy    <       0.00016330 Ry

     iteration # 16     ecut=    80.00 Ry     beta= 0.20
     Davidson diagonalization with overlap
     ethr =  1.24E-07,  avg # of iterations = 11.1

     negative rho (up, down):  1.449E-04 0.000E+00

     total cpu time spent up to now is      116.1 secs

     total energy              =    -661.67713762 Ry
     estimated scf accuracy    <       0.00017197 Ry

     iteration # 17     ecut=    80.00 Ry     beta= 0.20
     Davidson diagonalization with overlap
     ethr =  1.24E-07,  avg # of iterations = 10.8

     negative rho (up, down):  6.053E-05 0.000E+00

     total cpu time spent up to now is      123.2 secs

     total energy              =    -661.67715331 Ry
     estimated scf accuracy    <       0.00000345 Ry

     iteration # 18     ecut=    80.00 Ry     beta= 0.20
     Davidson diagonalization with overlap
     ethr =  2.61E-09,  avg # of iterations =  5.2

     negative rho (up, down):  3.828E-05 0.000E+00

     total cpu time spent up to now is      131.0 secs

     total energy              =    -661.67715754 Ry
     estimated scf accuracy    <       0.00000592 Ry

     iteration # 19     ecut=    80.00 Ry     beta= 0.20
     Davidson diagonalization with overlap
     ethr =  2.61E-09,  avg # of iterations =  2.0

     negative rho (up, down):  7.845E-05 0.000E+00

     total cpu time spent up to now is      135.9 secs

     total energy              =    -661.67716535 Ry
     estimated scf accuracy    <       0.00000212 Ry

     iteration # 20     ecut=    80.00 Ry     beta= 0.20
     Davidson diagonalization with overlap
     ethr =  1.61E-09,  avg # of iterations =  3.9

     negative rho (up, down):  1.143E-04 0.000E+00

     total cpu time spent up to now is      141.5 secs

     total energy              =    -661.67716097 Ry
     estimated scf accuracy    <       0.00000250 Ry

     iteration # 21     ecut=    80.00 Ry     beta= 0.20
     Davidson diagonalization with overlap
     ethr =  1.61E-09,  avg # of iterations =  2.0

     negative rho (up, down):  9.427E-05 0.000E+00

     total cpu time spent up to now is      146.3 secs

     End of self-consistent calculation

          k = 0.0000 0.0000 0.0000 (145443 PWs)   bands (ev):

   -48.4571 -48.4571 -48.4571 -48.4571 -48.1678 -48.1678 -48.1677 -48.1677
   -47.5147 -47.5147 -47.5145 -47.5145 -47.4435 -47.4435 -47.4430 -47.4430
   -47.4346 -47.4271 -47.4263 -47.4263 -47.4222 -47.4211 -47.4199 -47.4199
   -47.4189 -47.4189 -47.4180 -47.4169 -47.4156 -47.4155 -47.4131 -47.4112
   -47.4077 -47.4077 -47.4072 -47.4063 -47.3959 -47.3959 -47.3944 -47.3944
   -47.3943 -47.3943 -47.3917 -47.3916  -4.3716  -4.1206  -3.6971  -3.1823
    -3.1823  -3.1049  -2.9261  -2.9261  -2.4920  -2.4920  -2.3949  -1.8873
    -1.8873  -1.6339  -1.1651  -1.1651  -1.0611  -0.9408  -0.7380  -0.6244
    -0.5828  -0.5344  -0.5344  -0.5242  -0.4075  -0.4075  -0.2210  -0.2210
    -0.2124  -0.1728  -0.0734  -0.0259   0.2029   0.2029   0.3339   0.4396
     0.4655   0.4655   0.5729   0.7663   0.7721   0.7721   1.0346   1.1107
     1.2494   1.2494   1.6443   1.8589   1.8590   1.9982   1.9982   2.0955
     2.1802   2.2034   2.2035

          k = 0.0000 0.1421 0.0000 (145477 PWs)   bands (ev):

   -48.4571 -48.4571 -48.4571 -48.4571 -48.1678 -48.1678 -48.1677 -48.1677
   -47.5146 -47.5146 -47.5145 -47.5145 -47.4435 -47.4435 -47.4430 -47.4430
   -47.4344 -47.4269 -47.4262 -47.4262 -47.4222 -47.4212 -47.4200 -47.4200
   -47.4188 -47.4188 -47.4185 -47.4165 -47.4156 -47.4155 -47.4133 -47.4113
   -47.4077 -47.4077 -47.4071 -47.4062 -47.3960 -47.3960 -47.3944 -47.3944
   -47.3943 -47.3943 -47.3916 -47.3916  -4.3476  -4.0965  -3.6730  -3.1580
    -3.1580  -3.0807  -2.9018  -2.9018  -2.4681  -2.4681  -2.3710  -1.8643
    -1.8643  -1.6140  -1.4683  -1.2290  -1.1449  -1.1449  -0.7957  -0.7108
    -0.6591  -0.6591  -0.4926  -0.4058  -0.4058  -0.3490  -0.3490  -0.2944
    -0.2032  -0.1809   0.0050   0.0872   0.0872   0.0969   0.3435   0.3435
     0.3652   0.4358   0.6192   0.7981   0.7982   0.9492   1.0254   1.1417
     1.3353   1.3353   1.6969   1.8405   1.8815   1.8815   1.9522   2.1076
     2.1245   2.2343   2.2344

          k = 0.0000 0.2843 0.0000 (145449 PWs)   bands (ev):

   -48.4571 -48.4571 -48.4571 -48.4571 -48.1678 -48.1678 -48.1677 -48.1677
   -47.5146 -47.5146 -47.5144 -47.5144 -47.4435 -47.4435 -47.4430 -47.4430
   -47.4338 -47.4266 -47.4259 -47.4259 -47.4222 -47.4214 -47.4203 -47.4203
   -47.4194 -47.4187 -47.4187 -47.4159 -47.4156 -47.4156 -47.4137 -47.4117
   -47.4078 -47.4078 -47.4069 -47.4059 -47.3962 -47.3962 -47.3944 -47.3944
   -47.3944 -47.3943 -47.3915 -47.3914  -4.2755  -4.0243  -3.6005  -3.0851
    -3.0851  -3.0083  -2.8291  -2.8291  -2.3963  -2.3963  -2.3002  -1.9635
    -1.7955  -1.7955  -1.7056  -1.5472  -1.2575  -1.0859  -1.0859  -0.9560
    -0.9560  -0.6753  -0.6751  -0.6751  -0.6563  -0.3978  -0.3802  -0.3802
    -0.2202  -0.2202  -0.0865  -0.0330   0.1281   0.1630   0.1630   0.3377
     0.4592   0.6297   0.7431   0.7431   0.7863   1.1012   1.2346   1.2558
     1.4269   1.4269   1.6728   1.6728   1.8636   1.8884   1.9795   2.2134
     2.2866   2.3781   2.4224

          k = 0.0000 0.4264 0.0000 (145457 PWs)   bands (ev):

   -48.4571 -48.4571 -48.4571 -48.4571 -48.1678 -48.1678 -48.1677 -48.1677
   -47.5146 -47.5146 -47.5144 -47.5144 -47.4435 -47.4435 -47.4430 -47.4430
   -47.4328 -47.4262 -47.4254 -47.4254 -47.4228 -47.4214 -47.4207 -47.4207
   -47.4201 -47.4186 -47.4185 -47.4156 -47.4156 -47.4155 -47.4143 -47.4122
   -47.4080 -47.4080 -47.4066 -47.4055 -47.3964 -47.3963 -47.3944 -47.3944
   -47.3944 -47.3944 -47.3913 -47.3913  -4.1552  -3.9038  -3.4797  -2.9640
    -2.9640  -2.8881  -2.7083  -2.7083  -2.4168  -2.2771  -2.2771  -2.2153
    -2.1228  -1.7342  -1.6821  -1.6821  -1.4099  -1.3148  -1.3148  -1.1202
    -1.0648  -1.0648  -0.9680  -0.9680  -0.6290  -0.6290  -0.6272  -0.3410
    -0.3410  -0.3274  -0.2398  -0.0627  -0.0627   0.0567   0.0708   0.5074
     0.6156   0.6307   0.6307   0.9328   1.1496   1.2672   1.3833   1.3833
     1.3890   1.5535   1.5535   1.6351   1.8754   2.0255   2.0981   2.1568
     2.2920   2.3705   2.4014

          k = 0.0000 0.5685 0.0000 (145382 PWs)   bands (ev):

   -48.4571 -48.4571 -48.4571 -48.4571 -48.1678 -48.1678 -48.1677 -48.1677
   -47.5146 -47.5146 -47.5144 -47.5144 -47.4435 -47.4435 -47.4430 -47.4430
   -47.4316 -47.4260 -47.4248 -47.4248 -47.4236 -47.4213 -47.4213 -47.4213
   -47.4206 -47.4184 -47.4183 -47.4157 -47.4156 -47.4154 -47.4148 -47.4127
   -47.4082 -47.4081 -47.4064 -47.4052 -47.3965 -47.3965 -47.3945 -47.3944
   -47.3944 -47.3944 -47.3911 -47.3911  -3.9867  -3.7350  -3.3106  -2.8307
    -2.7952  -2.7952  -2.7159  -2.5746  -2.5398  -2.5398  -2.1374  -2.1113
    -2.1113  -2.0088  -1.6804  -1.6804  -1.5267  -1.5221  -1.5221  -1.4162
    -1.4162  -1.2609  -0.9961  -0.9961  -0.8610  -0.8512  -0.8512  -0.5008
    -0.5008  -0.3791  -0.1807  -0.1807  -0.1001  -0.0189   0.2908   0.3928
     0.4896   0.4896   0.8342   1.0320   1.3344   1.3344   1.4691   1.4691
     1.4910   1.5110   1.6071   1.6234   1.7913   1.8532   2.0020   2.2579
     2.3225   2.3453   2.3739

          k = 0.0000 0.7107 0.0000 (145380 PWs)   bands (ev):

   -48.4571 -48.4571 -48.4571 -48.4571 -48.1678 -48.1678 -48.1677 -48.1677
   -47.5146 -47.5146 -47.5144 -47.5144 -47.4435 -47.4435 -47.4430 -47.4430
   -47.4302 -47.4269 -47.4243 -47.4242 -47.4236 -47.4219 -47.4219 -47.4216
   -47.4207 -47.4182 -47.4182 -47.4157 -47.4157 -47.4153 -47.4151 -47.4129
   -47.4083 -47.4083 -47.4063 -47.4050 -47.3967 -47.3967 -47.3945 -47.3945
   -47.3944 -47.3944 -47.3910 -47.3910  -3.7697  -3.5178  -3.1902  -3.0955
    -2.9330  -2.5798  -2.5798  -2.5511  -2.4502  -2.3250  -2.3250  -2.0162
    -2.0162  -1.9372  -1.9046  -1.9046  -1.7509  -1.7509  -1.7472  -1.3794
    -1.3794  -1.2723  -1.2723  -1.2098  -1.0663  -0.8280  -0.8280  -0.6621
    -0.6621  -0.4489  -0.2389  -0.2389  -0.1795   0.2646   0.3491   0.3897
     0.3897   0.5730   0.9520   1.0211   1.1168   1.2831   1.2831   1.3246
     1.4365   1.4365   1.5445   1.8443   1.9000   1.9645   1.9989   2.2610
     2.3299   2.4230   2.4711

          k = 0.0000-0.8528 0.0000 (145390 PWs)   bands (ev):

   -48.4571 -48.4571 -48.4571 -48.4571 -48.1678 -48.1678 -48.1677 -48.1677
   -47.5146 -47.5145 -47.5144 -47.5144 -47.4435 -47.4435 -47.4430 -47.4430
   -47.4290 -47.4280 -47.4239 -47.4239 -47.4233 -47.4222 -47.4222 -47.4220
   -47.4207 -47.4182 -47.4181 -47.4157 -47.4157 -47.4153 -47.4152 -47.4130
   -47.4083 -47.4083 -47.4062 -47.4049 -47.3967 -47.3967 -47.3945 -47.3945
   -47.3944 -47.3944 -47.3910 -47.3909  -3.5051  -3.5034  -3.2536  -3.2510
    -2.8252  -2.8250  -2.3286  -2.3286  -2.3106  -2.3106  -2.2296  -2.2233
    -2.0736  -2.0736  -2.0546  -2.0546  -1.6499  -1.6499  -1.6272  -1.6272
    -1.5106  -1.5082  -1.0975  -1.0975  -1.0481  -1.0481  -0.9474  -0.6042
    -0.6042  -0.5885  -0.2914  -0.2914  -0.1313   0.3098   0.3625   0.3625
     0.5853   0.6382   0.9043   0.9336   0.9441   1.2473   1.2473   1.4408
     1.4434   1.4434   1.4740   1.4787   2.0379   2.1878   2.2109   2.2536
     2.2835   2.2898   2.5477

          k = 0.1429 0.0000 0.0000 (145476 PWs)   bands (ev):

   -48.4571 -48.4571 -48.4571 -48.4571 -48.1678 -48.1678 -48.1677 -48.1677
   -47.5146 -47.5146 -47.5145 -47.5145 -47.4435 -47.4435 -47.4431 -47.4431
   -47.4343 -47.4280 -47.4269 -47.4249 -47.4221 -47.4210 -47.4205 -47.4197
   -47.4194 -47.4183 -47.4180 -47.4170 -47.4160 -47.4146 -47.4132 -47.4113
   -47.4077 -47.4075 -47.4072 -47.4064 -47.3959 -47.3959 -47.3948 -47.3948
   -47.3938 -47.3938 -47.3917 -47.3917  -4.3473  -4.0962  -3.6725  -3.4971
    -3.2425  -3.0800  -2.8211  -2.8116  -2.5626  -2.3696  -2.2133  -2.1208
    -1.6083  -1.5415  -1.4621  -1.0447  -0.9219  -0.8333  -0.7141  -0.6824
    -0.6822  -0.6122  -0.6034  -0.5729  -0.4973  -0.3812  -0.3350  -0.1864
    -0.1517  -0.0770  -0.0622  -0.0029   0.0801   0.1410   0.2731   0.2930
     0.4532   0.5714   0.5889   0.7627   0.7751   0.8070   0.9094   1.0396
     1.0653   1.4130   1.6367   1.7129   1.8485   1.8787   1.8865   2.1147
     2.1230   2.2088   2.2367

          k = 0.1429 0.1421 0.0000 (145463 PWs)   bands (ev):

   -48.4571 -48.4571 -48.4571 -48.4571 -48.1678 -48.1678 -48.1677 -48.1677
   -47.5146 -47.5146 -47.5145 -47.5145 -47.4435 -47.4435 -47.4431 -47.4430
   -47.4341 -47.4279 -47.4268 -47.4248 -47.4220 -47.4211 -47.4206 -47.4196
   -47.4195 -47.4186 -47.4183 -47.4166 -47.4160 -47.4146 -47.4134 -47.4114
   -47.4078 -47.4076 -47.4072 -47.4063 -47.3960 -47.3960 -47.3948 -47.3948
   -47.3938 -47.3938 -47.3917 -47.3917  -4.3233  -4.0722  -3.6484  -3.4729
    -3.2183  -3.0558  -2.7965  -2.7876  -2.5382  -2.3458  -2.1899  -2.0969
    -1.5885  -1.5192  -1.4489  -1.4403  -1.2087  -0.8443  -0.8126  -0.7747
    -0.6858  -0.6637  -0.6512  -0.5594  -0.4896  -0.3506  -0.2855  -0.1850
    -0.1833  -0.1086  -0.0907   0.0266   0.0967   0.1751   0.1830   0.2860
     0.3905   0.4532   0.6224   0.7194   0.8748   0.9115   0.9700   1.0555
     1.1511   1.4620   1.6341   1.7330   1.8436   1.8581   1.9910   2.0470
     2.1774   2.2239   2.3668

          k = 0.1429 0.2843 0.0000 (145466 PWs)   bands (ev):

   -48.4571 -48.4571 -48.4571 -48.4571 -48.1678 -48.1678 -48.1677 -48.1677
   -47.5146 -47.5146 -47.5144 -47.5144 -47.4435 -47.4434 -47.4431 -47.4430
   -47.4336 -47.4275 -47.4265 -47.4246 -47.4221 -47.4213 -47.4209 -47.4197
   -47.4195 -47.4194 -47.4182 -47.4161 -47.4161 -47.4147 -47.4138 -47.4118
   -47.4079 -47.4076 -47.4070 -47.4060 -47.3961 -47.3961 -47.3949 -47.3949
   -47.3938 -47.3938 -47.3915 -47.3915  -4.2512  -3.9999  -3.5760  -3.4004
    -3.1459  -2.9835  -2.7231  -2.7157  -2.4651  -2.2751  -2.1198  -2.0253
    -1.9421  -1.6837  -1.5220  -1.4534  -1.3758  -1.2351  -1.2111  -0.9390
    -0.7647  -0.6764  -0.6533  -0.6322  -0.6229  -0.5600  -0.4829  -0.3880
    -0.2601  -0.1247  -0.0093   0.0276   0.0441   0.1452   0.1980   0.2567
     0.3189   0.6163   0.6947   0.7839   0.8130   0.9064   1.1297   1.3057
     1.3100   1.4978   1.5565   1.8269   1.8564   1.9378   1.9774   2.1354
     2.3506   2.3678   2.4791

          k = 0.1429 0.4264 0.0000 (145411 PWs)   bands (ev):

   -48.4571 -48.4571 -48.4571 -48.4571 -48.1678 -48.1678 -48.1677 -48.1677
   -47.5146 -47.5146 -47.5144 -47.5144 -47.4435 -47.4434 -47.4430 -47.4430
   -47.4326 -47.4269 -47.4260 -47.4243 -47.4228 -47.4214 -47.4213 -47.4201
   -47.4201 -47.4192 -47.4181 -47.4161 -47.4157 -47.4148 -47.4143 -47.4123
   -47.4080 -47.4077 -47.4067 -47.4056 -47.3963 -47.3963 -47.3949 -47.3949
   -47.3938 -47.3938 -47.3914 -47.3913  -4.1310  -3.8795  -3.4552  -3.2797
    -3.0254  -2.8633  -2.6010  -2.5960  -2.3942  -2.3437  -2.1910  -2.0991
    -2.0038  -1.9069  -1.7112  -1.6049  -1.3847  -1.3719  -1.3210  -1.2555
    -1.0975  -0.9839  -0.9151  -0.7261  -0.6618  -0.6036  -0.5329  -0.4097
    -0.3832  -0.3066  -0.3025  -0.1113  -0.0829   0.0780   0.0860   0.3981
     0.5037   0.5718   0.6850   0.8324   0.9758   1.1457   1.3222   1.3461
     1.4035   1.5210   1.5981   1.7779   1.7830   2.0608   2.1421   2.1493
     2.3037   2.3212   2.4095

          k = 0.1429 0.5685 0.0000 (145378 PWs)   bands (ev):

   -48.4571 -48.4571 -48.4571 -48.4571 -48.1678 -48.1678 -48.1677 -48.1677
   -47.5146 -47.5146 -47.5144 -47.5144 -47.4434 -47.4434 -47.4430 -47.4430
   -47.4314 -47.4261 -47.4259 -47.4239 -47.4235 -47.4221 -47.4213 -47.4206
   -47.4205 -47.4189 -47.4180 -47.4161 -47.4155 -47.4149 -47.4148 -47.4127
   -47.4082 -47.4078 -47.4065 -47.4053 -47.3965 -47.3965 -47.3950 -47.3950
   -47.3938 -47.3937 -47.3912 -47.3912  -3.9624  -3.7107  -3.2862  -3.1113
    -2.8570  -2.8073  -2.6913  -2.5510  -2.4314  -2.4291  -2.1754  -2.1138
    -1.9842  -1.9839  -1.8411  -1.7594  -1.7050  -1.5032  -1.3284  -1.3020
    -1.2362  -1.1781  -1.1189  -1.0633  -0.8384  -0.7324  -0.6581  -0.5747
    -0.4589  -0.3578  -0.2006  -0.1955  -0.0937  -0.0827   0.0941   0.3897
     0.4414   0.5903   0.5973   0.9508   1.0341   1.2725   1.2759   1.2977
     1.4513   1.5078   1.6727   1.6771   1.7784   2.0604   2.1002   2.2323
     2.3520   2.4239   2.4734

          k = 0.1429 0.7107 0.0000 (145379 PWs)   bands (ev):

   -48.4571 -48.4571 -48.4571 -48.4571 -48.1678 -48.1678 -48.1677 -48.1677
   -47.5145 -47.5145 -47.5144 -47.5144 -47.4434 -47.4434 -47.4430 -47.4430
   -47.4300 -47.4268 -47.4253 -47.4235 -47.4235 -47.4229 -47.4216 -47.4209
   -47.4206 -47.4186 -47.4180 -47.4161 -47.4154 -47.4152 -47.4151 -47.4130
   -47.4083 -47.4079 -47.4064 -47.4051 -47.3966 -47.3966 -47.3951 -47.3950
   -47.3938 -47.3937 -47.3911 -47.3911  -3.7455  -3.4935  -3.1663  -3.0711
    -2.9091  -2.8957  -2.6415  -2.5269  -2.4262  -2.3295  -2.2185  -2.2146
    -2.0702  -1.9593  -1.9134  -1.7229  -1.6837  -1.6558  -1.5898  -1.5303
    -1.3951  -1.1863  -1.1121  -1.0422  -1.0007  -0.9417  -0.9122  -0.5847
    -0.5219  -0.4292  -0.2601  -0.2221  -0.1644   0.0652   0.3171   0.3235
     0.3840   0.5550   0.7303   0.7870   0.9605   1.0300   1.2288   1.2523
     1.4701   1.4972   1.5919   1.6254   1.8152   2.0400   2.2739   2.3095
     2.4054   2.5910   2.6163

          k = 0.1429-0.8528 0.0000 (145420 PWs)   bands (ev):

   -48.4571 -48.4571 -48.4571 -48.4571 -48.1678 -48.1678 -48.1677 -48.1677
   -47.5145 -47.5145 -47.5144 -47.5144 -47.4434 -47.4434 -47.4430 -47.4430
   -47.4288 -47.4279 -47.4247 -47.4237 -47.4232 -47.4231 -47.4220 -47.4211
   -47.4206 -47.4185 -47.4180 -47.4161 -47.4154 -47.4153 -47.4151 -47.4131
   -47.4084 -47.4079 -47.4063 -47.4050 -47.3967 -47.3967 -47.3951 -47.3950
   -47.3938 -47.3937 -47.3911 -47.3910  -3.4810  -3.4793  -3.2294  -3.2269
    -2.8011  -2.8007  -2.6376  -2.6309  -2.3821  -2.3788  -2.2057  -2.1989
    -1.9641  -1.9590  -1.9502  -1.9492  -1.6961  -1.6936  -1.4867  -1.4845
    -1.4061  -1.3622  -1.2702  -1.2588  -0.9223  -0.8010  -0.7476  -0.7237
    -0.6910  -0.5703  -0.2488  -0.2259  -0.1167   0.2622   0.2979   0.3593
     0.4069   0.5410   0.6613   0.6830   0.8511   1.1197   1.2203   1.2447
     1.2796   1.4833   1.5586   1.6112   1.9616   1.9825   2.2193   2.3082
     2.5536   2.5549   2.7377

          k = 0.2857 0.0000 0.0000 (145404 PWs)   bands (ev):

   -48.4571 -48.4571 -48.4571 -48.4571 -48.1678 -48.1678 -48.1677 -48.1677
   -47.5146 -47.5146 -47.5145 -47.5145 -47.4434 -47.4434 -47.4431 -47.4431
   -47.4337 -47.4297 -47.4264 -47.4244 -47.4217 -47.4210 -47.4208 -47.4198
   -47.4195 -47.4183 -47.4181 -47.4175 -47.4156 -47.4137 -47.4135 -47.4116
   -47.4077 -47.4074 -47.4073 -47.4066 -47.3958 -47.3958 -47.3952 -47.3952
   -47.3933 -47.3933 -47.3920 -47.3919  -4.2745  -4.0231  -3.7642  -3.5988
    -3.5107  -3.0820  -3.0053  -2.4832  -2.4169  -2.2937  -2.1560  -1.7654
    -1.7123  -1.5316  -1.0973  -1.0571  -1.0038  -0.9968  -0.8664  -0.7736
    -0.7145  -0.6421  -0.5485  -0.5464  -0.5403  -0.4331  -0.3612  -0.2872
    -0.2494  -0.1154  -0.0874  -0.0372   0.0708   0.0744   0.2433   0.3502
     0.4009   0.5358   0.6113   0.6137   0.6362   0.7845   0.9010   0.9933
     1.1275   1.2896   1.4063   1.5191   1.7466   1.8528   1.9376   2.0740
     2.1787   2.3154   2.3578

          k = 0.2857 0.1421 0.0000 (145431 PWs)   bands (ev):

   -48.4571 -48.4571 -48.4571 -48.4571 -48.1678 -48.1678 -48.1677 -48.1677
   -47.5146 -47.5146 -47.5145 -47.5145 -47.4434 -47.4434 -47.4431 -47.4431
   -47.4335 -47.4296 -47.4263 -47.4243 -47.4217 -47.4210 -47.4208 -47.4201
   -47.4194 -47.4187 -47.4183 -47.4170 -47.4156 -47.4137 -47.4137 -47.4117
   -47.4077 -47.4074 -47.4073 -47.4065 -47.3959 -47.3959 -47.3952 -47.3952
   -47.3933 -47.3933 -47.3919 -47.3919  -4.2505  -3.9990  -3.7401  -3.5746
    -3.4866  -3.0579  -2.9812  -2.4595  -2.3920  -2.2700  -2.1313  -1.7428
    -1.6884  -1.5126  -1.3911  -1.1489  -1.0782  -1.0279  -1.0237  -0.9734
    -0.7520  -0.7478  -0.7048  -0.6098  -0.3734  -0.3571  -0.2878  -0.2710
    -0.2621  -0.1277  -0.1242  -0.0398   0.0825   0.1221   0.2315   0.3778
     0.4067   0.4504   0.4964   0.5943   0.6806   0.9306   1.0013   1.0721
     1.0740   1.3105   1.4739   1.6156   1.7074   1.8679   1.9468   2.2037
     2.2316   2.2693   2.5206

          k = 0.2857 0.2843 0.0000 (145482 PWs)   bands (ev):

   -48.4571 -48.4571 -48.4571 -48.4571 -48.1678 -48.1678 -48.1677 -48.1677
   -47.5146 -47.5146 -47.5145 -47.5145 -47.4434 -47.4434 -47.4431 -47.4431
   -47.4330 -47.4291 -47.4260 -47.4242 -47.4219 -47.4211 -47.4210 -47.4203
   -47.4195 -47.4191 -47.4183 -47.4165 -47.4157 -47.4140 -47.4138 -47.4121
   -47.4078 -47.4074 -47.4071 -47.4062 -47.3960 -47.3960 -47.3953 -47.3953
   -47.3932 -47.3932 -47.3918 -47.3918  -4.1784  -3.9268  -3.6678  -3.5022
    -3.4143  -2.9859  -2.9090  -2.3886  -2.3175  -2.1997  -2.0575  -1.8781
    -1.6763  -1.6183  -1.6173  -1.4468  -1.4364  -1.1686  -1.1651  -1.0129
    -0.9444  -0.9330  -0.7067  -0.6617  -0.5874  -0.5587  -0.3899  -0.3242
    -0.1777  -0.1675  -0.1487  -0.0514   0.0574   0.1856   0.2595   0.2895
     0.3135   0.4417   0.5626   0.6162   0.7472   0.8820   1.0447   1.2646
     1.2760   1.5031   1.5921   1.5947   1.6984   1.9988   2.1204   2.1516
     2.2987   2.3917   2.4224

          k = 0.2857 0.4264 0.0000 (145442 PWs)   bands (ev):

   -48.4571 -48.4571 -48.4571 -48.4571 -48.1678 -48.1678 -48.1677 -48.1677
   -47.5146 -47.5146 -47.5145 -47.5145 -47.4434 -47.4434 -47.4431 -47.4431
   -47.4321 -47.4284 -47.4256 -47.4239 -47.4225 -47.4217 -47.4210 -47.4204
   -47.4202 -47.4189 -47.4183 -47.4161 -47.4158 -47.4145 -47.4140 -47.4125
   -47.4079 -47.4073 -47.4070 -47.4059 -47.3962 -47.3962 -47.3954 -47.3954
   -47.3932 -47.3931 -47.3916 -47.3916  -4.0581  -3.8064  -3.5474  -3.3816
    -3.2939  -2.8659  -2.7891  -2.3263  -2.2710  -2.1940  -2.1186  -2.0281
    -1.9369  -1.8498  -1.6424  -1.6230  -1.5353  -1.4887  -1.3097  -1.1653
    -1.0304  -0.9004  -0.8087  -0.8047  -0.6197  -0.5753  -0.5436  -0.5140
    -0.3615  -0.2977  -0.2462  -0.0965  -0.0525   0.0364   0.1276   0.1422
     0.4189   0.5405   0.5419   0.6249   0.8336   0.8609   1.2156   1.2698
     1.4095   1.4205   1.6372   1.7091   1.8366   2.0120   2.1334   2.3052
     2.3154   2.3557   2.4549

          k = 0.2857 0.5685 0.0000 (145451 PWs)   bands (ev):

   -48.4571 -48.4571 -48.4571 -48.4571 -48.1678 -48.1678 -48.1677 -48.1677
   -47.5145 -47.5145 -47.5144 -47.5144 -47.4434 -47.4434 -47.4431 -47.4431
   -47.4309 -47.4275 -47.4256 -47.4237 -47.4232 -47.4224 -47.4211 -47.4206
   -47.4204 -47.4187 -47.4183 -47.4160 -47.4159 -47.4150 -47.4143 -47.4129
   -47.4080 -47.4073 -47.4068 -47.4056 -47.3964 -47.3964 -47.3955 -47.3955
   -47.3931 -47.3931 -47.3915 -47.3915  -3.8897  -3.6376  -3.3791  -3.2127
    -3.1255  -2.7369  -2.6982  -2.6177  -2.4803  -2.2440  -2.1043  -2.0432
    -2.0259  -1.9815  -1.9106  -1.7661  -1.5485  -1.4334  -1.4043  -1.3322
    -1.1626  -0.9565  -0.9287  -0.7721  -0.7600  -0.6878  -0.6691  -0.6128
    -0.4162  -0.3372  -0.2948  -0.2942  -0.1076  -0.0409   0.0077   0.1262
     0.3430   0.4266   0.4977   0.6898   0.7738   0.7740   1.1918   1.2545
     1.3529   1.4228   1.6814   1.7088   1.8740   1.9818   2.0885   2.2273
     2.4746   2.5519   2.6543

          k = 0.2857 0.7107 0.0000 (145446 PWs)   bands (ev):

   -48.4571 -48.4571 -48.4571 -48.4571 -48.1678 -48.1678 -48.1677 -48.1677
   -47.5145 -47.5145 -47.5144 -47.5144 -47.4434 -47.4434 -47.4431 -47.4431
   -47.4295 -47.4265 -47.4264 -47.4242 -47.4231 -47.4227 -47.4216 -47.4208
   -47.4203 -47.4184 -47.4182 -47.4161 -47.4158 -47.4153 -47.4145 -47.4132
   -47.4081 -47.4073 -47.4067 -47.4054 -47.3965 -47.3965 -47.3956 -47.3956
   -47.3931 -47.3930 -47.3914 -47.3914  -3.6729  -3.4206  -3.1633  -3.0948
    -2.9979  -2.9095  -2.8373  -2.5927  -2.4853  -2.4540  -2.3540  -2.3344
    -1.9469  -1.8529  -1.8422  -1.8041  -1.6503  -1.5442  -1.3563  -1.2472
    -1.1651  -1.1166  -1.1112  -0.9888  -0.9706  -0.6940  -0.6069  -0.5701
    -0.5349  -0.3767  -0.3681  -0.1825  -0.1351  -0.0892  -0.0822   0.2137
     0.2803   0.3505   0.3666   0.4922   0.7402   0.7403   1.0963   1.2262
     1.3269   1.4013   1.6395   1.7162   1.7657   1.9352   2.1085   2.1775
     2.6577   2.7465   2.7723

          k = 0.2857-0.8528 0.0000 (145416 PWs)   bands (ev):

   -48.4571 -48.4571 -48.4571 -48.4571 -48.1678 -48.1678 -48.1677 -48.1677
   -47.5145 -47.5145 -47.5144 -47.5144 -47.4434 -47.4434 -47.4431 -47.4431
   -47.4283 -47.4276 -47.4256 -47.4251 -47.4228 -47.4226 -47.4219 -47.4209
   -47.4203 -47.4184 -47.4181 -47.4161 -47.4157 -47.4155 -47.4146 -47.4134
   -47.4081 -47.4073 -47.4066 -47.4054 -47.3966 -47.3965 -47.3956 -47.3956
   -47.3931 -47.3930 -47.3913 -47.3913  -3.4090  -3.4069  -3.1566  -3.1546
    -2.9031  -2.8982  -2.7288  -2.7276  -2.6473  -2.6465  -2.2237  -2.2166
    -2.1344  -2.1259  -1.6439  -1.6218  -1.5484  -1.5348  -1.4154  -1.4137
    -1.2890  -1.2849  -0.9501  -0.9471  -0.8729  -0.8622  -0.8480  -0.5185
    -0.4792  -0.4601  -0.2662  -0.1473  -0.1128  -0.0748  -0.0717   0.1469
     0.2037   0.2879   0.3365   0.5044   0.6628   0.7366   1.0645   1.1926
     1.3307   1.4264   1.6505   1.6649   1.7048   1.8584   2.1542   2.2083
     2.6180   2.7430   2.7541

          k = 0.4286 0.0000 0.0000 (145506 PWs)   bands (ev):

   -48.4571 -48.4571 -48.4571 -48.4571 -48.1678 -48.1678 -48.1678 -48.1678
   -47.5146 -47.5146 -47.5145 -47.5145 -47.4433 -47.4433 -47.4432 -47.4432
   -47.4327 -47.4313 -47.4257 -47.4249 -47.4211 -47.4208 -47.4207 -47.4204
   -47.4190 -47.4183 -47.4182 -47.4182 -47.4148 -47.4140 -47.4128 -47.4121
   -47.4076 -47.4075 -47.4071 -47.4068 -47.3957 -47.3957 -47.3955 -47.3955
   -47.3928 -47.3928 -47.3923 -47.3923  -4.1530  -3.9829  -3.9012  -3.7304
    -3.4758  -3.3035  -2.8809  -2.7067  -2.1674  -1.9913  -1.9762  -1.7103
    -1.5129  -1.4041  -1.2690  -1.2403  -1.2173  -0.9199  -0.8235  -0.7938
    -0.7597  -0.6624  -0.6408  -0.5319  -0.5090  -0.4696  -0.4359  -0.3902
    -0.2834  -0.1503   0.0070   0.0115   0.0391   0.0553   0.1252   0.1793
     0.4295   0.5619   0.5944   0.6666   0.6670   0.7065   0.8224   1.0191
     1.2011   1.2012   1.2273   1.2317   1.8182   1.8821   1.9955   2.0256
     2.1588   2.2597   2.5786

          k = 0.4286 0.1421 0.0000 (145495 PWs)   bands (ev):

   -48.4571 -48.4571 -48.4571 -48.4571 -48.1678 -48.1678 -48.1678 -48.1678
   -47.5146 -47.5146 -47.5145 -47.5145 -47.4433 -47.4433 -47.4432 -47.4432
   -47.4325 -47.4312 -47.4256 -47.4248 -47.4212 -47.4208 -47.4207 -47.4205
   -47.4192 -47.4189 -47.4181 -47.4176 -47.4148 -47.4141 -47.4128 -47.4122
   -47.4076 -47.4075 -47.4071 -47.4068 -47.3957 -47.3957 -47.3955 -47.3955
   -47.3928 -47.3927 -47.3923 -47.3923  -4.1290  -3.9589  -3.8771  -3.7063
    -3.4517  -3.2794  -2.8569  -2.6829  -2.1439  -1.9682  -1.9508  -1.6853
    -1.4867  -1.3869  -1.2968  -1.2476  -1.2127  -1.2057  -1.1611  -1.0497
    -0.9113  -0.7488  -0.6246  -0.6086  -0.4896  -0.4662  -0.3226  -0.2808
    -0.2650  -0.1254  -0.0186   0.0248   0.0764   0.0910   0.1222   0.2067
     0.4339   0.5018   0.5321   0.6213   0.6766   0.7347   1.0169   1.1242
     1.1331   1.1506   1.3719   1.4470   1.6851   1.7984   2.0543   2.1757
     2.2334   2.3339   2.3751

          k = 0.4286 0.2843 0.0000 (145502 PWs)   bands (ev):

   -48.4571 -48.4571 -48.4571 -48.4571 -48.1678 -48.1678 -48.1678 -48.1678
   -47.5146 -47.5146 -47.5145 -47.5145 -47.4433 -47.4433 -47.4432 -47.4432
   -47.4320 -47.4307 -47.4254 -47.4246 -47.4215 -47.4210 -47.4207 -47.4207
   -47.4196 -47.4194 -47.4179 -47.4172 -47.4150 -47.4144 -47.4131 -47.4125
   -47.4076 -47.4074 -47.4070 -47.4066 -47.3959 -47.3959 -47.3956 -47.3956
   -47.3927 -47.3927 -47.3922 -47.3922  -4.0569  -3.8867  -3.8049  -3.6340
    -3.3793  -3.2072  -2.7850  -2.6114  -2.0743  -1.8998  -1.8747  -1.7720
    -1.6308  -1.6031  -1.5110  -1.4054  -1.3607  -1.3221  -1.1760  -1.1418
    -1.1323  -1.0494  -0.9041  -0.6793  -0.5569  -0.4768  -0.4396  -0.3334
    -0.2860  -0.1086  -0.0627   0.0527   0.1005   0.1525   0.1633   0.2604
     0.3838   0.4308   0.4496   0.5714   0.6258   0.8530   1.0349   1.1618
     1.3594   1.4534   1.4834   1.5189   1.6861   1.8103   2.2029   2.2385
     2.3236   2.3995   2.4179

          k = 0.4286 0.4264 0.0000 (145417 PWs)   bands (ev):

   -48.4571 -48.4571 -48.4571 -48.4571 -48.1678 -48.1678 -48.1678 -48.1677
   -47.5145 -47.5145 -47.5145 -47.5145 -47.4433 -47.4433 -47.4432 -47.4432
   -47.4311 -47.4299 -47.4250 -47.4243 -47.4221 -47.4217 -47.4208 -47.4208
   -47.4200 -47.4194 -47.4177 -47.4168 -47.4153 -47.4148 -47.4134 -47.4129
   -47.4076 -47.4073 -47.4068 -47.4063 -47.3960 -47.3960 -47.3958 -47.3958
   -47.3926 -47.3925 -47.3920 -47.3920  -3.9366  -3.7664  -3.6844  -3.5136
    -3.2588  -3.0869  -2.6655  -2.4927  -2.2132  -2.0552  -1.9987  -1.9097
    -1.8334  -1.7540  -1.7364  -1.5285  -1.4892  -1.3625  -1.2756  -1.1864
    -1.0516  -1.0087  -1.0039  -0.9203  -0.7613  -0.5496  -0.4620  -0.4241
    -0.2861  -0.2216  -0.1562  -0.0796   0.0217   0.0586   0.1768   0.1963
     0.2211   0.2929   0.4180   0.4969   0.5823   0.8889   1.0517   1.2348
     1.3608   1.4965   1.5018   1.6596   1.8628   2.0567   2.1599   2.1696
     2.4399   2.4795   2.5187

          k = 0.4286 0.5685 0.0000 (145407 PWs)   bands (ev):

   -48.4571 -48.4571 -48.4571 -48.4571 -48.1678 -48.1678 -48.1678 -48.1677
   -47.5145 -47.5145 -47.5145 -47.5145 -47.4433 -47.4433 -47.4432 -47.4432
   -47.4300 -47.4289 -47.4250 -47.4244 -47.4227 -47.4224 -47.4211 -47.4210
   -47.4200 -47.4192 -47.4175 -47.4166 -47.4156 -47.4152 -47.4137 -47.4133
   -47.4076 -47.4072 -47.4067 -47.4061 -47.3962 -47.3962 -47.3959 -47.3959
   -47.3925 -47.3924 -47.3919 -47.3919  -3.7682  -3.5981  -3.5158  -3.3451
    -3.0902  -2.9187  -2.6195  -2.4951  -2.4552  -2.3624  -2.3238  -2.1975
    -1.9258  -1.7886  -1.7629  -1.6191  -1.5726  -1.3187  -1.3091  -1.1617
    -1.0936  -1.0420  -0.8914  -0.8585  -0.8275  -0.6649  -0.5383  -0.4897
    -0.3855  -0.3289  -0.2476  -0.2054  -0.0904  -0.0136  -0.0098   0.0822
     0.1073   0.1398   0.2822   0.3912   0.5302   0.8184   1.0096   1.2499
     1.3109   1.4855   1.5331   1.7263   1.8878   1.9907   2.0470   2.1019
     2.6092   2.6149   2.7816

          k = 0.4286 0.7107 0.0000 (145407 PWs)   bands (ev):

   -48.4571 -48.4571 -48.4571 -48.4571 -48.1678 -48.1678 -48.1678 -48.1677
   -47.5145 -47.5145 -47.5145 -47.5145 -47.4433 -47.4433 -47.4432 -47.4432
   -47.4287 -47.4277 -47.4259 -47.4251 -47.4226 -47.4224 -47.4215 -47.4213
   -47.4198 -47.4191 -47.4173 -47.4164 -47.4158 -47.4156 -47.4140 -47.4136
   -47.4076 -47.4071 -47.4066 -47.4060 -47.3963 -47.3963 -47.3960 -47.3960
   -47.3924 -47.3924 -47.3918 -47.3918  -3.5518  -3.3819  -3.2991  -3.1287
    -2.9755  -2.8758  -2.8082  -2.7176  -2.7049  -2.5499  -2.3328  -2.2340
    -2.1634  -2.0665  -1.7243  -1.5613  -1.5305  -1.3693  -1.3467  -1.0921
    -1.0039  -0.8664  -0.8550  -0.8544  -0.7941  -0.7050  -0.6650  -0.6023
    -0.5406  -0.3075  -0.2907  -0.2802  -0.1837  -0.1820  -0.1149  -0.1117
    -0.0010   0.0545   0.1788   0.3378   0.5082   0.7624   0.9478   1.1937
     1.3057   1.4758   1.5232   1.7349   1.8175   1.8859   1.9724   2.0289
     2.6945   2.7395   2.7643

          k = 0.4286-0.8528 0.0000 (145406 PWs)   bands (ev):

   -48.4571 -48.4571 -48.4571 -48.4571 -48.1678 -48.1678 -48.1678 -48.1677
   -47.5145 -47.5145 -47.5144 -47.5144 -47.4433 -47.4433 -47.4432 -47.4432
   -47.4275 -47.4270 -47.4264 -47.4264 -47.4222 -47.4222 -47.4220 -47.4215
   -47.4197 -47.4190 -47.4172 -47.4163 -47.4159 -47.4157 -47.4141 -47.4137
   -47.4076 -47.4071 -47.4066 -47.4059 -47.3964 -47.3963 -47.3960 -47.3960
   -47.3924 -47.3923 -47.3918 -47.3918  -3.2887  -3.2860  -3.1202  -3.1166
    -3.0353  -3.0339  -2.8653  -2.8648  -2.6083  -2.6058  -2.4398  -2.4354
    -2.0159  -2.0045  -1.8512  -1.8355  -1.2985  -1.2974  -1.1409  -1.1396
    -1.0976  -1.0785  -0.8348  -0.8291  -0.7290  -0.6095  -0.5860  -0.5754
    -0.4423  -0.4362  -0.4335  -0.3664  -0.3462  -0.3389  -0.0854  -0.0258
     0.0167   0.0416   0.0481   0.3118   0.4920   0.7727   0.9270   1.1308
     1.3177   1.4888   1.4997   1.7590   1.7658   1.8764   1.9145   1.9887
     2.7277   2.7753   2.7899

     the Fermi energy is    -0.8943 ev

!    total energy              =    -661.67716060 Ry
     total all-electron energy =      -661.677518 Ry
     estimated scf accuracy    <       0.00000046 Ry
     smearing contrib. (-TS)   =       0.00049634 Ry
     internal energy E=F+TS    =    -661.67765694 Ry

     The total energy is F=E-TS. E is the sum of the following terms:
     one-electron contribution =   -3235.94875906 Ry
     hartree contribution      =    1555.37771596 Ry
     xc contribution           =    -157.72839271 Ry
     ewald contribution        =    1172.74152440 Ry
     one-center paw contrib.   =       3.88025446 Ry

     convergence has been achieved in  21 iterations

     Forces acting on atoms (cartesian axes, Ry/au):

     atom    1 type  1   force =     0.00000000    0.00014481   -0.00001626
     atom    2 type  1   force =    -0.00000090   -0.00014380    0.00001630
     atom    3 type  1   force =     0.00000055   -0.00014387    0.00014910
     atom    4 type  1   force =     0.00000000    0.00017132    0.00006216
     atom    5 type  1   force =     0.00000000    0.00007580    0.00009536
     atom    6 type  1   force =     0.00000000    0.00000325    0.00017269
     atom    7 type  1   force =     0.00000032   -0.00004131   -0.00000692
     atom    8 type  1   force =    -0.00000016   -0.00013378    0.00002875
     atom    9 type  1   force =     0.00000052    0.00001393    0.00011278
     atom   10 type  1   force =     0.00000082   -0.00007715    0.00017716
     atom   11 type  1   force =     0.00000000    0.00001076    0.00017325
     atom   12 type  1   force =     0.00000000    0.00002170    0.00002095
     atom   13 type  1   force =     0.00000000    0.00013270   -0.00002890
     atom   14 type  1   force =     0.00000000    0.00004189    0.00000671
     atom   15 type  1   force =     0.00000025   -0.00001193   -0.00017274
     atom   16 type  1   force =     0.00000009   -0.00000327   -0.00017367
     atom   17 type  1   force =     0.00000009   -0.00002261   -0.00002164
     atom   18 type  1   force =     0.00000000    0.00007636   -0.00017755
     atom   19 type  1   force =     0.00000000   -0.00001364   -0.00011417
     atom   20 type  1   force =     0.00000000    0.00014342   -0.00014964
     atom   21 type  1   force =     0.00000009   -0.00007519   -0.00009367
     atom   22 type  1   force =     0.00000040   -0.00017062   -0.00006122
     atom   23 type  1   force =     0.00000000    0.00014443   -0.00001570
     atom   24 type  1   force =     0.00000090   -0.00014380    0.00001630
     atom   25 type  1   force =    -0.00000055   -0.00014387    0.00014910
     atom   26 type  1   force =     0.00000000    0.00017107    0.00006192
     atom   27 type  1   force =     0.00000000    0.00007496    0.00009381
     atom   28 type  1   force =     0.00000000    0.00000363    0.00017298
     atom   29 type  1   force =    -0.00000032   -0.00004131   -0.00000692
     atom   30 type  1   force =     0.00000016   -0.00013378    0.00002875
     atom   31 type  1   force =    -0.00000052    0.00001393    0.00011278
     atom   32 type  1   force =    -0.00000082   -0.00007715    0.00017716
     atom   33 type  1   force =     0.00000000    0.00001242    0.00017219
     atom   34 type  1   force =     0.00000000    0.00002189    0.00002102
     atom   35 type  1   force =     0.00000000    0.00013361   -0.00002758
     atom   36 type  1   force =     0.00000000    0.00004227    0.00000687
     atom   37 type  1   force =    -0.00000025   -0.00001193   -0.00017274
     atom   38 type  1   force =    -0.00000009   -0.00000327   -0.00017367
     atom   39 type  1   force =    -0.00000009   -0.00002261   -0.00002164
     atom   40 type  1   force =     0.00000000    0.00007652   -0.00017607
     atom   41 type  1   force =     0.00000000   -0.00001349   -0.00011310
     atom   42 type  1   force =     0.00000000    0.00014356   -0.00014939
     atom   43 type  1   force =    -0.00000009   -0.00007519   -0.00009367
     atom   44 type  1   force =    -0.00000040   -0.00017062   -0.00006122

     Total force =     0.000986     Total SCF correction =     0.000889
     SCF correction compared to forces is large: reduce conv_thr to get better values

     BFGS Geometry Optimization
     Energy error            =      9.7E-07 Ry
     Gradient error          =      1.8E-04 Ry/Bohr

     bfgs converged in   1 scf cycles and   0 bfgs steps
     (criteria: energy <  1.0E-05 Ry, force <  3.9E-04 Ry/Bohr)

     End of BFGS Geometry Optimization

     Final energy             =    -661.6771605981 Ry
Begin final coordinates

ATOMIC_POSITIONS (angstrom)
Li               4.8580444100        5.5206410300       23.7661646100
Li               2.4290304800        4.3188318600        8.4584621800
Li               2.4290222100        1.0645107800       10.1922638200
Li               4.8580444100        2.1584728000        8.9410889900
Li              -0.0000000100        4.9398005400       10.3359455800
Li               4.8580444100        1.8981028000       11.9668650400
Li               2.4290230000        3.1448090100       14.2711236600
Li               2.4290194200        5.7146506100       15.9333042800
Li               2.4290193600        3.6851667300       11.3304015100
Li               2.4290237800        0.4896375000       13.0242028000
Li              -0.0000000100        4.5659146600       13.3397202400
Li               4.8580444100        1.4630835500       14.9702297700
Li               4.8580444100        4.1248680200       16.2913128400
Li               4.8580444100        0.9981412100       17.9535086700
Li               2.4290208400        5.2736023600       18.8849032500
Li               2.4290201800        2.2448563600       20.2577629000
Li               2.4290250300        2.6798684800       17.2544051200
Li              -0.0000000100        3.6533176500       19.2004325800
Li               4.8580444100        0.4577811300       20.8942290900
Li               4.8580444100        3.0784573800       22.0323139000
Li               2.4290146600        4.8997162100       21.8886695500
Li               2.4290681800        1.9844767300       23.2835316000
Li               9.7160888300        5.5207294400       23.7661429800
Li               7.2870583400        4.3188318700        8.4584621800
Li               7.2870666100        1.0645107800       10.1922638300
Li               9.7160888300        2.1584795200        8.9410805700
Li               4.8580444100        4.9397984900       10.3359594900
Li               9.7160888300        1.8980975000       11.9668526200
Li               7.2870658200        3.1448090100       14.2711236600
Li               7.2870694000        5.7146506100       15.9333042800
Li               7.2870694500        3.6851667300       11.3304015100
Li               7.2870650400        0.4896375000       13.0242028000
Li               4.8580444100        4.5659180600       13.3397243300
Li               9.7160888300        1.4630853300       14.9702138300
Li               9.7160888300        4.1248609200       16.2913269900
Li               9.7160888300        0.9981501100       17.9534963800
Li               7.2870679800        5.2736023600       18.8849032500
Li               7.2870686400        2.2448563600       20.2577629000
Li               7.2870637800        2.6798684800       17.2544051200
Li               4.8580444100        3.6533204100       19.2003972700
Li               9.7160888300        0.4577877800       20.8942094000
Li               9.7160888300        3.0784267700       22.0323865300
Li               7.2870741600        4.8997162100       21.8886695500
Li               7.2870206400        1.9844767300       23.2835316000
End final coordinates


     Message from routine punch:
     Nothing written, as per user request (disk_io='none')
 
     init_run     :      7.60s CPU      7.93s WALL (       1 calls)
     electrons    :    134.98s CPU    137.40s WALL (       1 calls)
     forces       :      0.87s CPU      0.91s WALL (       1 calls)

     Called by init_run:
     wfcinit      :      3.08s CPU      3.29s WALL (       1 calls)
     potinit      :      0.41s CPU      0.45s WALL (       1 calls)
     hinit0       :      0.02s CPU      0.05s WALL (       1 calls)

     Called by electrons:
     c_bands      :    115.11s CPU    116.73s WALL (      21 calls)
     sum_band     :     15.07s CPU     15.49s WALL (      21 calls)
     v_of_rho     :      1.30s CPU      1.34s WALL (      22 calls)
     newd         :      0.47s CPU      0.61s WALL (      22 calls)
     PAW_pot      :      0.55s CPU      0.57s WALL (      22 calls)
     mix_rho      :      2.17s CPU      2.21s WALL (      21 calls)

     Called by c_bands:
     init_us_2    :      2.40s CPU      2.41s WALL (     440 calls)
     cegterg      :     92.66s CPU     94.24s WALL (     210 calls)

     Called by *egterg:
     cdiaghg      :     14.27s CPU     14.34s WALL (    1444 calls)
     h_psi        :     55.35s CPU     56.86s WALL (    1454 calls)
     s_psi        :      7.29s CPU      7.32s WALL (    1454 calls)
     g_psi        :      0.04s CPU      0.04s WALL (    1234 calls)

     Called by h_psi:
     h_psi:calbec :     11.36s CPU     11.60s WALL (    1454 calls)
     vloc_psi     :     33.64s CPU     34.87s WALL (    1454 calls)
                                        0.00s GPU  (    1454 calls)
     add_vuspsi   :      9.94s CPU      9.97s WALL (    1454 calls)

     General routines
     calbec       :     15.42s CPU     15.71s WALL (    1704 calls)
     fft          :      0.89s CPU      0.90s WALL (     286 calls)
     ffts         :      1.61s CPU      1.63s WALL (    2287 calls)
     fftw         :     38.00s CPU     39.36s WALL (  124054 calls)
     interpolate  :      0.08s CPU      0.08s WALL (      22 calls)
 
     Parallel routines
 
     PWSCF        :   2m24.00s CPU   2m31.11s WALL

 
   This run was terminated on:   0:38:26  23Jan2025            

=------------------------------------------------------------------------------=
   JOB DONE.
=------------------------------------------------------------------------------=
