
     Program PWSCF v.7.4 starts on 23Jan2025 at  0:35:54 

     This program is part of the open-source Quantum ESPRESSO suite
     for quantum simulation of materials; please cite
         "P. Giannozzi et al., J. Phys.:Condens. Matter 21 395502 (2009);
         "P. Giannozzi et al., J. Phys.:Condens. Matter 29 465901 (2017);
         "P. Giannozzi et al., J. Chem. Phys. 152 154105 (2020);
          URL http://www.quantum-espresso.org", 
     in publications or presentations arising from this work. More details at
     http://www.quantum-espresso.org/quote

     Parallel version (MPI & OpenMP), running on     384 processor cores
     Number of MPI processes:               384
     Threads/MPI process:                     1

     MPI processes distributed on     2 nodes
     668091 MiB available memory on the printing compute node when the environment starts
 
     Reading input from espresso.pwi
Warning: card &CELL ignored
Warning: card    PRESS_CONV_THR   = 0.1 ignored
Warning: card    CELL_DOFREE      = 'ALL' ignored
Warning: card / ignored
Warning: card &FCP ignored
Warning: card / ignored
Warning: card &RISM ignored
Warning: card / ignored

     Current dimensions of program PWSCF are:
     Max number of different atomic species (ntypx) = 10
     Max number of k-points (npk) =  40000
     Max angular momentum in pseudopotentials (lmaxx) =  4

     IMPORTANT: XC functional enforced from input :
     Exchange-correlation= PBE
                           (   1   4   3   4   0   0   0)
     Any further DFT definition will be discarded
     Please, verify this is what you really want

     Found identity + ( -0.5000  0.0000  0.0000) symmetry
     This is a supercell, fractional translations are disabled
     Message from routine setup:
     using ibrav=0 with symmetry is DISCOURAGED, use correct ibrav instead
 
     K-points division:     npool     =       3
     R & G space division:  proc/nbgrp/npool/nimage =     128
     Subspace diagonalization in iterative solution of the eigenvalue problem:
     a serial algorithm will be used

 
     Parallelization info
     --------------------
     sticks:   dense  smooth     PW     G-vecs:    dense   smooth      PW
     Min         102      41     10                39180     9904    1336
     Max         103      42     11                39217     9927    1377
     Sum       13133    5269   1401              5017225  1269079  174843
 
     Using Slab Decomposition
 


     bravais-lattice index     =            0
     lattice parameter (alat)  =      11.2436  a.u.
     unit-cell volume          =   13130.3767 (a.u.)^3
     number of atoms/cell      =           24
     number of atomic types    =            1
     number of electrons       =        72.00
     number of Kohn-Sham states=           54
     kinetic-energy cutoff     =      80.0000  Ry
     charge density cutoff     =     800.0000  Ry
     scf convergence threshold =      1.0E-06
     mixing beta               =       0.2000
     number of iterations used =            8  local-TF  mixing
     energy convergence thresh.=      1.0E-05
     force convergence thresh. =      3.9E-04
     Exchange-correlation= PBE
                           (   1   4   3   4   0   0   0)
     nstep                     =           50


     celldm(1)=  11.243615  celldm(2)=   0.000000  celldm(3)=   0.000000
     celldm(4)=   0.000000  celldm(5)=   0.000000  celldm(6)=   0.000000

     crystal axes: (cart. coord. in units of alat)
               a(1) = (   1.000000   0.000000   0.000000 )  
               a(2) = (   0.000000   1.632993   0.000000 )  
               a(3) = (   0.000000   0.000000   5.656854 )  

     reciprocal axes: (cart. coord. in units 2 pi/alat)
               b(1) = (  1.000000  0.000000  0.000000 )  
               b(2) = (  0.000000  0.612372  0.000000 )  
               b(3) = (  0.000000  0.000000  0.176777 )  


     PseudoPot. # 1 for Li read from file:
     /iridisfs/home/ba3g18/Repos/Pseudopotentials/pslibrary.1.0.0/pbe/PSEUDOPOTENTIALS/Li.pbe-sl-kjpaw_psl.1.0.0.UPF
     MD5 check sum: 3f4d2cafebb47c6c3aa8ed472e6f074d
     Pseudo is Projector augmented-wave, Zval =  3.0
     Generated using 'atomic' code by A. Dal Corso  v.7.4
     Shape of augmentation charge: PSQ
     Using radial grid of 1017 points,  4 beta functions with: 
                l(1) =   0
                l(2) =   0
                l(3) =   1
                l(4) =   1
     Q(r) pseudized with 0 coefficients 


     atomic species   valence    mass     pseudopotential
     Li                3.00     6.94000     Li( 1.00)

      2 Sym. Ops. (no inversion) found



   Cartesian axes

     site n.     atom                  positions (alat units)
         1        Li     tau(   1) = (   0.5006697   0.8164966   3.3925065  )
         2        Li     tau(   2) = (   0.1659970   0.4082497   2.2643503  )
         3        Li     tau(   3) = (   0.3837255   0.8164966   2.4770591  )
         4        Li     tau(   4) = (   0.4858088   0.4082474   2.7141964  )
         5        Li     tau(   5) = (   0.1808513   0.8164966   2.9426588  )
         6        Li     tau(   6) = (   0.2829402   0.4082494   3.1797973  )
         7        Li     tau(   7) = (   0.5006709   1.6329931   3.3925028  )
         8        Li     tau(   8) = (   0.1659970   1.2247435   2.2643503  )
         9        Li     tau(   9) = (   0.3837291   1.6329931   2.4770547  )
        10        Li     tau(  10) = (   0.4858088   1.2247458   2.7141964  )
        11        Li     tau(  11) = (   0.1808619   1.6329931   2.9426567  )
        12        Li     tau(  12) = (   0.2829402   1.2247439   3.1797973  )
        13        Li     tau(  13) = (   1.0006697   0.8164966   3.3925065  )
        14        Li     tau(  14) = (   0.6659970   0.4082495   2.2643501  )
        15        Li     tau(  15) = (   0.8837254   0.8164966   2.4770590  )
        16        Li     tau(  16) = (   0.9858088   0.4082476   2.7141965  )
        17        Li     tau(  17) = (   0.6808512   0.8164966   2.9426587  )
        18        Li     tau(  18) = (   0.7829402   0.4082495   3.1797973  )
        19        Li     tau(  19) = (   1.0006709   1.6329931   3.3925023  )
        20        Li     tau(  20) = (   0.6659970   1.2247437   2.2643501  )
        21        Li     tau(  21) = (   0.8837291   1.6329931   2.4770550  )
        22        Li     tau(  22) = (   0.9858088   1.2247457   2.7141965  )
        23        Li     tau(  23) = (   0.6808619   1.6329931   2.9426570  )
        24        Li     tau(  24) = (   0.7829401   1.2247438   3.1797973  )

     number of k points=    24  Marzari-Vanderbilt smearing, width (Ry)=  0.0100
                       cart. coord. in units 2pi/alat
        k(    1) = (   0.0000000   0.0000000   0.0000000), wk =   0.0259740
        k(    2) = (   0.0000000   0.0874818   0.0000000), wk =   0.0519481
        k(    3) = (   0.0000000   0.1749636   0.0000000), wk =   0.0519481
        k(    4) = (   0.0000000   0.2624454   0.0000000), wk =   0.0519481
        k(    5) = (   0.0909091   0.0000000   0.0000000), wk =   0.0519481
        k(    6) = (   0.0909091   0.0874818   0.0000000), wk =   0.1038961
        k(    7) = (   0.0909091   0.1749636   0.0000000), wk =   0.1038961
        k(    8) = (   0.0909091   0.2624454   0.0000000), wk =   0.1038961
        k(    9) = (   0.1818182   0.0000000   0.0000000), wk =   0.0519481
        k(   10) = (   0.1818182   0.0874818   0.0000000), wk =   0.1038961
        k(   11) = (   0.1818182   0.1749636   0.0000000), wk =   0.1038961
        k(   12) = (   0.1818182   0.2624454   0.0000000), wk =   0.1038961
        k(   13) = (   0.2727273   0.0000000   0.0000000), wk =   0.0519481
        k(   14) = (   0.2727273   0.0874818   0.0000000), wk =   0.1038961
        k(   15) = (   0.2727273   0.1749636   0.0000000), wk =   0.1038961
        k(   16) = (   0.2727273   0.2624454   0.0000000), wk =   0.1038961
        k(   17) = (   0.3636364   0.0000000   0.0000000), wk =   0.0519481
        k(   18) = (   0.3636364   0.0874818   0.0000000), wk =   0.1038961
        k(   19) = (   0.3636364   0.1749636   0.0000000), wk =   0.1038961
        k(   20) = (   0.3636364   0.2624454   0.0000000), wk =   0.1038961
        k(   21) = (   0.4545455   0.0000000   0.0000000), wk =   0.0519481
        k(   22) = (   0.4545455   0.0874818   0.0000000), wk =   0.1038961
        k(   23) = (   0.4545455   0.1749636   0.0000000), wk =   0.1038961
        k(   24) = (   0.4545455   0.2624454   0.0000000), wk =   0.1038961

     Dense  grid:  5017225 G-vectors     FFT dimensions: ( 108, 180, 576)

     Smooth grid:  1269079 G-vectors     FFT dimensions: (  72, 108, 375)

     Estimated max dynamical RAM per process >      76.56 MB

     Estimated total dynamical RAM >      19.75 GB

     Initial potential from superposition of free atoms

     starting charge      71.8894, renormalised to      72.0000

     negative rho (up, down):  2.316E-03 0.000E+00
     Starting wfcs are  120 randomized atomic wfcs
     Checking if some PAW data can be deallocated... 

     total cpu time spent up to now is        6.9 secs

     Self-consistent Calculation

     iteration #  1     ecut=    80.00 Ry     beta= 0.20
     Davidson diagonalization with overlap
     ethr =  1.00E-02,  avg # of iterations =  3.3

     negative rho (up, down):  1.837E-04 0.000E+00

     total cpu time spent up to now is       11.0 secs

     total energy              =    -360.97770716 Ry
     estimated scf accuracy    <       2.59401342 Ry

     iteration #  2     ecut=    80.00 Ry     beta= 0.20
     Davidson diagonalization with overlap
     ethr =  3.60E-03,  avg # of iterations =  1.4

     negative rho (up, down):  2.233E-08 0.000E+00

     total cpu time spent up to now is       13.6 secs

     total energy              =    -360.53348910 Ry
     estimated scf accuracy    <       1.93945497 Ry

     iteration #  3     ecut=    80.00 Ry     beta= 0.20
     Davidson diagonalization with overlap
     ethr =  2.69E-03,  avg # of iterations =  1.7

     total cpu time spent up to now is       16.2 secs

     total energy              =    -360.75492711 Ry
     estimated scf accuracy    <       0.21909283 Ry

     iteration #  4     ecut=    80.00 Ry     beta= 0.20
     Davidson diagonalization with overlap
     ethr =  3.04E-04,  avg # of iterations =  4.0

     total cpu time spent up to now is       18.9 secs

     total energy              =    -360.80485843 Ry
     estimated scf accuracy    <       0.49334274 Ry

     iteration #  5     ecut=    80.00 Ry     beta= 0.20
     Davidson diagonalization with overlap
     ethr =  3.04E-04,  avg # of iterations =  1.2

     total cpu time spent up to now is       21.0 secs

     total energy              =    -360.77108409 Ry
     estimated scf accuracy    <       0.28372939 Ry

     iteration #  6     ecut=    80.00 Ry     beta= 0.20
     Davidson diagonalization with overlap
     ethr =  3.04E-04,  avg # of iterations =  2.0

     total cpu time spent up to now is       23.2 secs

     total energy              =    -360.79592586 Ry
     estimated scf accuracy    <       0.05153659 Ry

     iteration #  7     ecut=    80.00 Ry     beta= 0.20
     Davidson diagonalization with overlap
     ethr =  7.16E-05,  avg # of iterations =  3.6

     total cpu time spent up to now is       25.8 secs

     total energy              =    -360.80677076 Ry
     estimated scf accuracy    <       0.24709887 Ry

     iteration #  8     ecut=    80.00 Ry     beta= 0.20
     Davidson diagonalization with overlap
     ethr =  7.16E-05,  avg # of iterations =  1.0

     total cpu time spent up to now is       27.8 secs

     total energy              =    -360.80833778 Ry
     estimated scf accuracy    <       0.21477908 Ry

     iteration #  9     ecut=    80.00 Ry     beta= 0.20
     Davidson diagonalization with overlap
     ethr =  7.16E-05,  avg # of iterations =  1.0

     negative rho (up, down):  9.975E-02 0.000E+00

     total cpu time spent up to now is       29.8 secs

     total energy              =    -360.76624496 Ry
     estimated scf accuracy    <       0.23248717 Ry

     iteration # 10     ecut=    80.00 Ry     beta= 0.20
     Davidson diagonalization with overlap
     ethr =  7.16E-05,  avg # of iterations =  7.0

     negative rho (up, down):  3.734E-02 0.000E+00

     total cpu time spent up to now is       32.6 secs

     total energy              =    -360.79278558 Ry
     estimated scf accuracy    <       0.02195992 Ry

     iteration # 11     ecut=    80.00 Ry     beta= 0.20
     Davidson diagonalization with overlap
     ethr =  3.05E-05,  avg # of iterations =  7.0

     negative rho (up, down):  8.549E-02 0.000E+00

     total cpu time spent up to now is       35.7 secs

     total energy              =    -360.75019554 Ry
     estimated scf accuracy    <       0.15539232 Ry

     iteration # 12     ecut=    80.00 Ry     beta= 0.20
     Davidson diagonalization with overlap
     c_bands:  1 eigenvalues not converged
     ethr =  3.05E-05,  avg # of iterations = 12.5

     negative rho (up, down):  7.445E-02 0.000E+00

     total cpu time spent up to now is       39.5 secs

     total energy              =    -360.76511664 Ry
     estimated scf accuracy    <       0.03441811 Ry

     iteration # 13     ecut=    80.00 Ry     beta= 0.20
     Davidson diagonalization with overlap
     ethr =  3.05E-05,  avg # of iterations =  7.4

     negative rho (up, down):  6.780E-02 0.000E+00

     total cpu time spent up to now is       42.7 secs

     total energy              =    -360.77198406 Ry
     estimated scf accuracy    <       0.06289872 Ry

     iteration # 14     ecut=    80.00 Ry     beta= 0.20
     Davidson diagonalization with overlap
     ethr =  3.05E-05,  avg # of iterations =  5.3

     negative rho (up, down):  5.154E-02 0.000E+00

     total cpu time spent up to now is       45.1 secs

     total energy              =    -360.77297194 Ry
     estimated scf accuracy    <       0.00943964 Ry

     iteration # 15     ecut=    80.00 Ry     beta= 0.20
     Davidson diagonalization with overlap
     ethr =  1.31E-05,  avg # of iterations =  7.9

     negative rho (up, down):  3.916E-02 0.000E+00

     total cpu time spent up to now is       48.0 secs

     total energy              =    -360.77416132 Ry
     estimated scf accuracy    <       0.00122941 Ry

     iteration # 16     ecut=    80.00 Ry     beta= 0.20
     Davidson diagonalization with overlap
     ethr =  1.71E-06,  avg # of iterations =  8.0

     negative rho (up, down):  1.205E-02 0.000E+00

     total cpu time spent up to now is       51.1 secs

     total energy              =    -360.77259774 Ry
     estimated scf accuracy    <       0.00798553 Ry

     iteration # 17     ecut=    80.00 Ry     beta= 0.20
     Davidson diagonalization with overlap
     ethr =  1.71E-06,  avg # of iterations =  6.6

     negative rho (up, down):  5.993E-03 0.000E+00

     total cpu time spent up to now is       54.3 secs

     total energy              =    -360.77353541 Ry
     estimated scf accuracy    <       0.00038881 Ry

     iteration # 18     ecut=    80.00 Ry     beta= 0.20
     Davidson diagonalization with overlap
     ethr =  5.40E-07,  avg # of iterations =  7.0

     negative rho (up, down):  3.024E-03 0.000E+00

     total cpu time spent up to now is       57.0 secs

     total energy              =    -360.77367618 Ry
     estimated scf accuracy    <       0.00002434 Ry

     iteration # 19     ecut=    80.00 Ry     beta= 0.20
     Davidson diagonalization with overlap
     ethr =  3.38E-08,  avg # of iterations =  6.0

     negative rho (up, down):  2.594E-04 0.000E+00

     total cpu time spent up to now is       59.9 secs

     total energy              =    -360.77367570 Ry
     estimated scf accuracy    <       0.00010381 Ry

     iteration # 20     ecut=    80.00 Ry     beta= 0.20
     Davidson diagonalization with overlap
     ethr =  3.38E-08,  avg # of iterations =  6.3

     negative rho (up, down):  2.108E-04 0.000E+00

     total cpu time spent up to now is       62.6 secs

     total energy              =    -360.77368511 Ry
     estimated scf accuracy    <       0.00000456 Ry

     iteration # 21     ecut=    80.00 Ry     beta= 0.20
     Davidson diagonalization with overlap
     ethr =  6.33E-09,  avg # of iterations =  4.1

     negative rho (up, down):  2.395E-04 0.000E+00

     total cpu time spent up to now is       65.1 secs

     End of self-consistent calculation

          k = 0.0000 0.0000 0.0000 (158461 PWs)   bands (ev):

   -49.1578 -49.1577 -49.1577 -49.1577 -49.1497 -49.1497 -49.1497 -49.1497
   -48.5523 -48.5520 -48.5519 -48.5519 -48.5440 -48.5439 -48.5438 -48.5438
   -48.3878 -48.3836 -48.3836 -48.3789 -48.3777 -48.3755 -48.3754 -48.3729
    -5.2762  -4.4796  -4.1079  -4.1079  -3.2980  -3.2980  -3.2058  -2.2130
    -2.2021  -2.0115  -2.0115  -1.9765  -1.5783  -1.4658  -1.4658  -1.4537
    -1.4128  -1.0698  -1.0698  -0.7404  -0.7404  -0.6688  -0.5909  -0.5909
    -0.4637  -0.1316   0.5678   0.8591   1.1479   1.2012

          k = 0.0000 0.0875 0.0000 (158508 PWs)   bands (ev):

   -49.1578 -49.1577 -49.1577 -49.1577 -49.1497 -49.1497 -49.1497 -49.1497
   -48.5523 -48.5520 -48.5519 -48.5519 -48.5440 -48.5439 -48.5438 -48.5438
   -48.3877 -48.3846 -48.3826 -48.3790 -48.3777 -48.3760 -48.3749 -48.3729
    -5.2522  -4.4558  -4.4142  -3.7934  -3.5606  -3.1814  -2.9637  -2.2876
    -2.1885  -2.1797  -1.9538  -1.7303  -1.6112  -1.5609  -1.5409  -1.5230
    -1.4018  -1.1814  -1.0019  -0.9055  -0.8110  -0.7187  -0.5479  -0.4700
    -0.2805  -0.1395   0.5286   0.8963   1.0612   1.2512

          k = 0.0000 0.1750 0.0000 (158440 PWs)   bands (ev):

   -49.1578 -49.1577 -49.1577 -49.1577 -49.1497 -49.1497 -49.1497 -49.1497
   -48.5522 -48.5520 -48.5519 -48.5519 -48.5440 -48.5439 -48.5438 -48.5438
   -48.3874 -48.3855 -48.3816 -48.3794 -48.3775 -48.3765 -48.3744 -48.3731
    -5.1802  -4.6767  -4.3844  -3.8951  -3.3202  -3.1087  -2.7073  -2.4082
    -2.1162  -2.1129  -1.9850  -1.8868  -1.6855  -1.6850  -1.5882  -1.5091
    -1.3709  -1.2307  -1.1785  -1.1543  -0.8757  -0.5522  -0.4419  -0.4122
    -0.1699   0.0773   0.2749   0.9917   0.9956   1.3582

          k = 0.0000 0.2624 0.0000 (158482 PWs)   bands (ev):

   -49.1578 -49.1577 -49.1577 -49.1577 -49.1497 -49.1497 -49.1497 -49.1497
   -48.5522 -48.5521 -48.5519 -48.5519 -48.5440 -48.5439 -48.5438 -48.5438
   -48.3869 -48.3863 -48.3807 -48.3799 -48.3773 -48.3769 -48.3739 -48.3735
    -5.0602  -4.8923  -4.2657  -4.1008  -2.9895  -2.8930  -2.8308  -2.4361
    -2.0692  -2.0039  -2.0002  -1.8575  -1.8501  -1.7821  -1.6584  -1.6250
    -1.4238  -1.3258  -1.3056  -1.2759  -0.5674  -0.3958  -0.3698  -0.3697
    -0.2407  -0.1456   0.4370   0.7452   1.0980   1.1460

          k = 0.0909 0.0000 0.0000 (158586 PWs)   bands (ev):

   -49.1576 -49.1576 -49.1576 -49.1575 -49.1499 -49.1499 -49.1498 -49.1498
   -48.5521 -48.5518 -48.5517 -48.5517 -48.5442 -48.5441 -48.5439 -48.5439
   -48.3876 -48.3834 -48.3834 -48.3788 -48.3779 -48.3756 -48.3756 -48.3730
    -5.2502  -4.4533  -4.0811  -4.0811  -3.2707  -3.2707  -3.1777  -2.7061
    -2.0579  -1.9807  -1.9807  -1.9450  -1.6792  -1.6792  -1.5184  -1.4194
    -1.2242  -1.1344  -1.1344  -0.7095  -0.7095  -0.6352  -0.4745  -0.4745
    -0.4295  -0.1405   0.6008   0.8941   1.1776   1.2359

          k = 0.0909 0.0875 0.0000 (158583 PWs)   bands (ev):

   -49.1576 -49.1576 -49.1576 -49.1575 -49.1499 -49.1499 -49.1498 -49.1498
   -48.5521 -48.5518 -48.5518 -48.5517 -48.5442 -48.5441 -48.5440 -48.5439
   -48.3875 -48.3844 -48.3824 -48.3789 -48.3779 -48.3762 -48.3751 -48.3730
    -5.2262  -4.4294  -4.3876  -3.7666  -3.5331  -3.1533  -2.9363  -2.6826
    -2.2575  -2.0348  -1.9221  -1.9142  -1.6976  -1.5781  -1.5116  -1.5015
    -1.2400  -1.2117  -1.0232  -0.8769  -0.7773  -0.6696  -0.5154  -0.4372
    -0.2133  -0.1536   0.5625   0.9314   1.0940   1.2861

          k = 0.0909 0.1750 0.0000 (158548 PWs)   bands (ev):

   -49.1576 -49.1576 -49.1576 -49.1575 -49.1499 -49.1499 -49.1498 -49.1498
   -48.5521 -48.5519 -48.5517 -48.5517 -48.5442 -48.5440 -48.5440 -48.5439
   -48.3872 -48.3853 -48.3814 -48.3792 -48.3777 -48.3767 -48.3745 -48.3732
    -5.1541  -4.6503  -4.3580  -3.8685  -3.2922  -3.0806  -2.6800  -2.6125
    -2.3780  -2.1412  -1.9665  -1.9538  -1.8549  -1.5637  -1.5537  -1.4524
    -1.2558  -1.1760  -1.1462  -0.9910  -0.8491  -0.6818  -0.4097  -0.3791
    -0.2032   0.0704   0.3077   0.8873   1.0231   1.0314

          k = 0.0909 0.2624 0.0000 (158567 PWs)   bands (ev):

   -49.1576 -49.1576 -49.1576 -49.1575 -49.1499 -49.1499 -49.1498 -49.1498
   -48.5520 -48.5519 -48.5517 -48.5517 -48.5441 -48.5441 -48.5440 -48.5439
   -48.3868 -48.3861 -48.3806 -48.3798 -48.3775 -48.3771 -48.3740 -48.3736
    -5.0341  -4.8661  -4.2393  -4.0743  -2.9614  -2.8644  -2.8028  -2.4969
    -2.4065  -2.3383  -2.0393  -1.8567  -1.7496  -1.7143  -1.6248  -1.5942
    -1.3782  -1.2980  -1.1224  -1.0567  -0.5395  -0.4980  -0.3634  -0.3368
    -0.3151  -0.1155   0.3467   0.6158   1.1299   1.1807

          k = 0.1818 0.0000 0.0000 (158656 PWs)   bands (ev):

   -49.1571 -49.1571 -49.1571 -49.1571 -49.1503 -49.1503 -49.1503 -49.1503
   -48.5516 -48.5513 -48.5513 -48.5512 -48.5447 -48.5445 -48.5444 -48.5444
   -48.3871 -48.3830 -48.3829 -48.3786 -48.3784 -48.3761 -48.3761 -48.3733
    -5.1721  -4.3744  -4.0007  -4.0007  -3.1892  -3.1892  -3.1842  -3.0938
    -2.4412  -2.0629  -2.0629  -1.8887  -1.8887  -1.8506  -1.3766  -1.3766
    -1.3165  -1.2959  -0.9841  -0.6168  -0.6168  -0.5346  -0.3340  -0.3340
    -0.3269   0.0035   0.6991   0.9992   1.2636   1.3397

          k = 0.1818 0.0875 0.0000 (158615 PWs)   bands (ev):

   -49.1571 -49.1571 -49.1571 -49.1571 -49.1503 -49.1503 -49.1503 -49.1503
   -48.5516 -48.5513 -48.5513 -48.5512 -48.5447 -48.5445 -48.5444 -48.5444
   -48.3870 -48.3839 -48.3820 -48.3785 -48.3785 -48.3767 -48.3755 -48.3734
    -5.1481  -4.3505  -4.3079  -3.6865  -3.4509  -3.1603  -3.0694  -2.8546
    -2.4184  -2.3450  -2.1676  -1.8274  -1.8203  -1.6000  -1.5353  -1.4790
    -1.2758  -1.1545  -0.9705  -0.7915  -0.6761  -0.5097  -0.4182  -0.3394
    -0.1785  -0.0409   0.6640   0.9235   1.0373   1.1910

          k = 0.1818 0.1750 0.0000 (158633 PWs)   bands (ev):

   -49.1571 -49.1571 -49.1571 -49.1571 -49.1503 -49.1503 -49.1503 -49.1503
   -48.5516 -48.5514 -48.5513 -48.5512 -48.5447 -48.5445 -48.5445 -48.5444
   -48.3867 -48.3848 -48.3810 -48.3788 -48.3783 -48.3772 -48.3749 -48.3736
    -5.0759  -4.5711  -4.2790  -3.7890  -3.2085  -3.0887  -2.9967  -2.5986
    -2.5956  -2.3506  -2.2877  -1.9115  -1.8606  -1.7593  -1.4501  -1.3330
    -1.2186  -1.0498  -0.9714  -0.9336  -0.7702  -0.6793  -0.3134  -0.2799
    -0.1977  -0.0296   0.4052   0.6286   1.1169   1.1806

          k = 0.1818 0.2624 0.0000 (158673 PWs)   bands (ev):

   -49.1571 -49.1571 -49.1571 -49.1571 -49.1503 -49.1503 -49.1503 -49.1503
   -48.5515 -48.5514 -48.5513 -48.5512 -48.5446 -48.5445 -48.5445 -48.5444
   -48.3862 -48.3856 -48.3801 -48.3794 -48.3781 -48.3777 -48.3744 -48.3739
    -4.9557  -4.7873  -4.1601  -3.9949  -2.9700  -2.8773  -2.8051  -2.7789
    -2.7189  -2.3180  -2.2395  -2.0889  -1.9501  -1.6521  -1.5242  -1.5024
    -1.1405  -1.1215  -0.8840  -0.8399  -0.7532  -0.4748  -0.4568  -0.2664
    -0.2380  -0.0260   0.1557   0.3780   1.2249   1.2848

          k = 0.2727 0.0000 0.0000 (158650 PWs)   bands (ev):

   -49.1564 -49.1564 -49.1563 -49.1563 -49.1511 -49.1511 -49.1511 -49.1510
   -48.5509 -48.5506 -48.5505 -48.5505 -48.5455 -48.5453 -48.5452 -48.5452
   -48.3862 -48.3822 -48.3822 -48.3796 -48.3778 -48.3769 -48.3768 -48.3738
    -5.0421  -4.2433  -3.8673  -3.8673  -3.6188  -3.0543  -3.0543  -2.9550
    -2.8437  -2.4585  -2.4585  -1.7370  -1.7370  -1.7009  -1.7009  -1.6946
    -1.5746  -1.1452  -0.5706  -0.4630  -0.4630  -0.4091  -0.4091  -0.3673
    -0.1561   0.2198   0.7244   0.8603   1.0167   1.1752

          k = 0.2727 0.0875 0.0000 (158636 PWs)   bands (ev):

   -49.1564 -49.1564 -49.1563 -49.1563 -49.1511 -49.1511 -49.1511 -49.1510
   -48.5509 -48.5506 -48.5505 -48.5505 -48.5455 -48.5453 -48.5452 -48.5452
   -48.3861 -48.3831 -48.3812 -48.3795 -48.3779 -48.3775 -48.3762 -48.3739
    -5.0180  -4.2194  -4.1753  -3.5947  -3.5537  -3.3145  -2.9306  -2.8204
    -2.7580  -2.7197  -2.1817  -2.0190  -1.9046  -1.6709  -1.5525  -1.4387
    -1.4177  -1.3143  -0.6508  -0.6320  -0.5497  -0.5080  -0.2566  -0.1775
    -0.1709   0.0873   0.5231   0.7809   0.8320   1.2125

          k = 0.2727 0.1750 0.0000 (158686 PWs)   bands (ev):

   -49.1564 -49.1564 -49.1563 -49.1563 -49.1511 -49.1511 -49.1511 -49.1510
   -48.5508 -48.5506 -48.5505 -48.5505 -48.5454 -48.5453 -48.5452 -48.5452
   -48.3858 -48.3840 -48.3803 -48.3793 -48.3782 -48.3781 -48.3756 -48.3741
    -4.9457  -4.4394  -4.1477  -3.6570  -3.5222  -3.0698  -3.0183  -2.8577
    -2.7506  -2.4646  -2.2849  -2.1382  -1.7067  -1.6551  -1.6009  -1.4875
    -1.2775  -1.2094  -0.8905  -0.7283  -0.6424  -0.4965  -0.2957  -0.1542
    -0.1148  -0.0097   0.3178   0.5655   0.6128   1.2692

          k = 0.2727 0.2624 0.0000 (158742 PWs)   bands (ev):

   -49.1564 -49.1564 -49.1563 -49.1563 -49.1511 -49.1511 -49.1511 -49.1510
   -48.5508 -48.5507 -48.5505 -48.5505 -48.5454 -48.5453 -48.5452 -48.5452
   -48.3853 -48.3847 -48.3795 -48.3790 -48.3788 -48.3786 -48.3750 -48.3745
    -4.8251  -4.6562  -4.0286  -3.8631  -3.4017  -3.2335  -2.7384  -2.6373
    -2.6354  -2.5805  -2.4770  -2.1715  -1.8027  -1.4906  -1.3866  -1.3572
    -1.3508  -1.3077  -1.1755  -0.7610  -0.5702  -0.4541  -0.3225  -0.1059
    -0.0739   0.0069   0.0980   0.1200   0.6495   0.7667

          k = 0.3636 0.0000 0.0000 (158708 PWs)   bands (ev):

   -49.1554 -49.1554 -49.1554 -49.1553 -49.1521 -49.1520 -49.1520 -49.1520
   -48.5499 -48.5496 -48.5495 -48.5495 -48.5465 -48.5462 -48.5461 -48.5461
   -48.3850 -48.3812 -48.3812 -48.3808 -48.3779 -48.3778 -48.3770 -48.3745
    -4.8603  -4.0606  -4.0052  -3.6816  -3.6816  -3.2152  -2.8677  -2.8677
    -2.8284  -2.8284  -2.7629  -2.0369  -2.0369  -1.9097  -1.5286  -1.5286
    -1.4797  -0.9055  -0.6627  -0.6627  -0.6164  -0.2495  -0.2495  -0.1342
     0.0825   0.2181   0.6088   0.7087   0.7087   0.9766

          k = 0.3636 0.0875 0.0000 (158710 PWs)   bands (ev):

   -49.1554 -49.1554 -49.1554 -49.1553 -49.1521 -49.1520 -49.1520 -49.1520
   -48.5499 -48.5496 -48.5495 -48.5495 -48.5464 -48.5462 -48.5462 -48.5461
   -48.3849 -48.3821 -48.3807 -48.3803 -48.3785 -48.3771 -48.3771 -48.3746
    -4.8361  -4.0367  -3.9906  -3.9809  -3.3694  -3.1914  -3.1350  -3.1252
    -2.7385  -2.5339  -2.5338  -2.2666  -1.8862  -1.8141  -1.7248  -1.4553
    -1.2169  -1.0851  -0.9331  -0.5894  -0.4572  -0.3345  -0.2737  -0.0678
    -0.0313   0.0456   0.3944   0.5420   0.8262   1.0631

          k = 0.3636 0.1750 0.0000 (158765 PWs)   bands (ev):

   -49.1554 -49.1554 -49.1554 -49.1554 -49.1521 -49.1520 -49.1520 -49.1520
   -48.5498 -48.5496 -48.5496 -48.5495 -48.5464 -48.5462 -48.5462 -48.5461
   -48.3846 -48.3829 -48.3805 -48.3794 -48.3792 -48.3774 -48.3764 -48.3748
    -4.7635  -4.2555  -3.9649  -3.9081  -3.4738  -3.3994  -3.1204  -2.8773
    -2.6657  -2.6401  -2.2805  -2.0099  -1.9316  -1.8168  -1.4948  -1.4944
    -1.3817  -1.0362  -1.0314  -0.6709  -0.5909  -0.4808  -0.4725   0.0187
     0.0651   0.1116   0.1154   0.1633   0.7774   0.7822

          k = 0.3636 0.2624 0.0000 (158741 PWs)   bands (ev):

   -49.1554 -49.1554 -49.1554 -49.1554 -49.1521 -49.1520 -49.1520 -49.1520
   -48.5498 -48.5497 -48.5495 -48.5495 -48.5464 -48.5463 -48.5462 -48.5461
   -48.3842 -48.3836 -48.3802 -48.3797 -48.3786 -48.3780 -48.3758 -48.3752
    -4.6425  -4.4731  -3.8455  -3.7867  -3.6798  -3.6170  -3.0027  -2.8400
    -2.5465  -2.4414  -2.3896  -1.9692  -1.7053  -1.5997  -1.5966  -1.5373
    -1.2672  -1.1426  -1.1250  -1.0839  -0.7509  -0.4050  -0.2500  -0.1444
    -0.1418   0.1149   0.1545   0.3154   0.3902   0.6762

          k = 0.4545 0.0000 0.0000 (158726 PWs)   bands (ev):

   -49.1543 -49.1543 -49.1543 -49.1543 -49.1532 -49.1531 -49.1531 -49.1531
   -48.5488 -48.5485 -48.5484 -48.5484 -48.5476 -48.5473 -48.5473 -48.5473
   -48.3836 -48.3822 -48.3801 -48.3801 -48.3790 -48.3789 -48.3762 -48.3753
    -4.6266  -4.3414  -3.8272  -3.5445  -3.4449  -3.4449  -3.1594  -3.1594
    -2.6322  -2.6322  -2.5204  -2.3525  -2.3525  -2.2327  -1.2694  -1.2693
    -1.2117  -0.9716  -0.9715  -0.9062  -0.5980  -0.2232   0.0215   0.0215
     0.1625   0.3448   0.3448   0.3885   0.5125   0.7610

          k = 0.4545 0.0875 0.0000 (158685 PWs)   bands (ev):

   -49.1543 -49.1543 -49.1543 -49.1543 -49.1532 -49.1531 -49.1531 -49.1531
   -48.5487 -48.5485 -48.5484 -48.5484 -48.5476 -48.5473 -48.5473 -48.5472
   -48.3835 -48.3821 -48.3809 -48.3797 -48.3793 -48.3782 -48.3763 -48.3754
    -4.6023  -4.3171  -3.8032  -3.7545  -3.5206  -3.4685  -3.1355  -2.8849
    -2.8552  -2.5969  -2.4961  -2.3007  -2.2086  -2.0270  -1.5575  -1.2576
    -1.1864  -0.9415  -0.8799  -0.7938  -0.6304  -0.4463  -0.2151   0.0243
     0.0695   0.2562   0.3214   0.3766   0.6028   0.6088

          k = 0.4545 0.1750 0.0000 (158746 PWs)   bands (ev):

   -49.1543 -49.1543 -49.1543 -49.1543 -49.1532 -49.1531 -49.1531 -49.1531
   -48.5487 -48.5485 -48.5485 -48.5484 -48.5475 -48.5474 -48.5473 -48.5472
   -48.3833 -48.3819 -48.3817 -48.3804 -48.3784 -48.3774 -48.3766 -48.3757
    -4.5295  -4.2442  -4.0201  -3.7342  -3.7314  -3.4490  -3.2410  -2.9616
    -2.6333  -2.4236  -2.3417  -2.1370  -2.0510  -1.7842  -1.6715  -1.3655
    -1.2284  -1.1061  -0.9187  -0.7874  -0.7264  -0.3979  -0.3495  -0.2750
    -0.0918  -0.0819   0.3368   0.4094   0.6278   0.7639

          k = 0.4545 0.2624 0.0000 (158787 PWs)   bands (ev):

   -49.1543 -49.1543 -49.1543 -49.1543 -49.1532 -49.1531 -49.1531 -49.1531
   -48.5487 -48.5486 -48.5484 -48.5484 -48.5475 -48.5474 -48.5473 -48.5472
   -48.3829 -48.3824 -48.3815 -48.3810 -48.3777 -48.3771 -48.3767 -48.3761
    -4.4082  -4.2383  -4.1227  -3.9526  -3.6120  -3.4464  -3.3301  -3.1653
    -2.3053  -2.1948  -2.1499  -2.0208  -1.9057  -1.8654  -1.7146  -1.4146
    -1.3461  -1.0529  -0.9866  -0.8841  -0.8311  -0.6663  -0.5870  -0.4858
     0.0608   0.2549   0.3839   0.4450   0.5475   0.6242

     the Fermi energy is    -1.9212 ev

!    total energy              =    -360.77368546 Ry
     total all-electron energy =      -360.773881 Ry
     estimated scf accuracy    <       0.00000083 Ry
     smearing contrib. (-TS)   =      -0.00120131 Ry
     internal energy E=F+TS    =    -360.77248415 Ry

     The total energy is F=E-TS. E is the sum of the following terms:
     one-electron contribution =   -2180.24213546 Ry
     hartree contribution      =    1053.08733643 Ry
     xc contribution           =     -85.98495784 Ry
     ewald contribution        =     850.25321392 Ry
     one-center paw contrib.   =       2.11405879 Ry

     convergence has been achieved in  21 iterations

     Forces acting on atoms (cartesian axes, Ry/au):

     atom    1 type  1   force =     0.00003481    0.00000000   -0.00025218
     atom    2 type  1   force =    -0.00003154    0.00000293    0.00024658
     atom    3 type  1   force =    -0.00009459    0.00000000    0.00017538
     atom    4 type  1   force =     0.00004513    0.00000626    0.00033752
     atom    5 type  1   force =    -0.00004022    0.00000000   -0.00033158
     atom    6 type  1   force =     0.00008979    0.00000375   -0.00018210
     atom    7 type  1   force =     0.00002986    0.00000000   -0.00024961
     atom    8 type  1   force =    -0.00003154   -0.00000293    0.00024658
     atom    9 type  1   force =    -0.00009004    0.00000000    0.00019093
     atom   10 type  1   force =     0.00004513   -0.00000626    0.00033752
     atom   11 type  1   force =    -0.00003798    0.00000000   -0.00033545
     atom   12 type  1   force =     0.00008979   -0.00000375   -0.00018210
     atom   13 type  1   force =     0.00003100    0.00000000   -0.00025370
     atom   14 type  1   force =    -0.00003102   -0.00000008    0.00024614
     atom   15 type  1   force =    -0.00009322    0.00000000    0.00017822
     atom   16 type  1   force =     0.00004283    0.00000071    0.00034075
     atom   17 type  1   force =    -0.00003970    0.00000000   -0.00033630
     atom   18 type  1   force =     0.00008749    0.00000341   -0.00018619
     atom   19 type  1   force =     0.00003080    0.00000000   -0.00024652
     atom   20 type  1   force =    -0.00003102    0.00000008    0.00024614
     atom   21 type  1   force =    -0.00008992    0.00000000    0.00018876
     atom   22 type  1   force =     0.00004283   -0.00000071    0.00034075
     atom   23 type  1   force =    -0.00004613    0.00000000   -0.00033335
     atom   24 type  1   force =     0.00008749   -0.00000341   -0.00018619

     Total force =     0.001326     Total SCF correction =     0.000674
     SCF correction compared to forces is large: reduce conv_thr to get better values

     BFGS Geometry Optimization
     Energy error            =      1.8E-06 Ry
     Gradient error          =      3.4E-04 Ry/Bohr

     bfgs converged in   1 scf cycles and   0 bfgs steps
     (criteria: energy <  1.0E-05 Ry, force <  3.9E-04 Ry/Bohr)

     End of BFGS Geometry Optimization

     Final energy             =    -360.7736854555 Ry
Begin final coordinates

ATOMIC_POSITIONS (angstrom)
Li               2.9789169200        4.8580445300       20.1849549100
Li               0.9876596800        2.4290307800       13.4725783600
Li               2.2831148300        4.8580445600       14.7381667900
Li               2.8904969000        2.4290170400       16.1491013700
Li               1.0760405200        4.8580445800       17.5084220300
Li               1.6834560400        2.4290285500       18.9193637300
Li               2.9789243100        9.7160883600       20.1849329200
Li               0.9876596400        7.2870583800       13.4725784200
Li               2.2831361000        9.7160883800       14.7381406000
Li               2.8904967200        7.2870721000       16.1491014100
Li               1.0761041200        9.7160883300       17.5084093400
Li               1.6834559700        7.2870605600       18.9193638100
Li               5.9538495500        4.8580445300       20.1849552700
Li               3.9625921400        2.4290295500       13.4725768800
Li               5.2580465200        4.8580445600       14.7381661300
Li               5.8654289900        2.4290178400       16.1491024000
Li               4.0509725800        4.8580445800       17.5084216900
Li               4.6583880400        2.4290292500       18.9193642000
Li               5.9538564900        9.7160883600       20.1849298100
Li               3.9625920900        7.2870596100       13.4725769500
Li               5.2580686000        9.7160883800       14.7381424200
Li               5.8654288100        7.2870713000       16.1491024400
Li               4.0510361400        9.7160883300       17.5084115800
Li               4.6583879700        7.2870598600       18.9193642800
End final coordinates


     Message from routine punch:
     Nothing written, as per user request (disk_io='none')
 
     init_run     :      5.78s CPU      6.00s WALL (       1 calls)
     electrons    :     56.64s CPU     58.21s WALL (       1 calls)
     forces       :      0.32s CPU      0.34s WALL (       1 calls)

     Called by init_run:
     wfcinit      :      1.25s CPU      1.34s WALL (       1 calls)
     potinit      :      0.28s CPU      0.32s WALL (       1 calls)
     hinit0       :      0.02s CPU      0.05s WALL (       1 calls)

     Called by electrons:
     c_bands      :     43.78s CPU     44.54s WALL (      21 calls)
     sum_band     :      7.46s CPU      7.84s WALL (      21 calls)
     v_of_rho     :      1.49s CPU      1.54s WALL (      22 calls)
     newd         :      0.37s CPU      0.50s WALL (      22 calls)
     PAW_pot      :      0.54s CPU      0.58s WALL (      22 calls)
     mix_rho      :      2.56s CPU      2.65s WALL (      21 calls)

     Called by c_bands:
     init_us_2    :      0.92s CPU      0.93s WALL (     352 calls)
     cegterg      :     35.05s CPU     35.79s WALL (     168 calls)

     Called by *egterg:
     cdiaghg      :      3.02s CPU      3.05s WALL (    1135 calls)
     h_psi        :     24.19s CPU     24.92s WALL (    1143 calls)
     s_psi        :      2.84s CPU      2.86s WALL (    1143 calls)
     g_psi        :      0.02s CPU      0.02s WALL (     967 calls)

     Called by h_psi:
     h_psi:calbec :      3.26s CPU      3.36s WALL (    1143 calls)
     vloc_psi     :     17.34s CPU     17.93s WALL (    1143 calls)
                                        0.00s GPU  (    1143 calls)
     add_vuspsi   :      3.40s CPU      3.42s WALL (    1143 calls)

     General routines
     calbec       :      4.15s CPU      4.27s WALL (    1343 calls)
     fft          :      1.02s CPU      1.04s WALL (     286 calls)
     ffts         :      1.80s CPU      1.83s WALL (    2331 calls)
     fftw         :     19.39s CPU     20.05s WALL (   54800 calls)
     interpolate  :      0.09s CPU      0.09s WALL (      22 calls)
 
     Parallel routines
 
     PWSCF        :   1m 5.24s CPU   1m 8.01s WALL

 
   This run was terminated on:   0:37: 2  23Jan2025            

=------------------------------------------------------------------------------=
   JOB DONE.
=------------------------------------------------------------------------------=
