
     Program PWSCF v.7.4 starts on 18Jan2025 at 15:52:19 

     This program is part of the open-source Quantum ESPRESSO suite
     for quantum simulation of materials; please cite
         "P. Giannozzi et al., J. Phys.:Condens. Matter 21 395502 (2009);
         "P. Giannozzi et al., J. Phys.:Condens. Matter 29 465901 (2017);
         "P. Giannozzi et al., J. Chem. Phys. 152 154105 (2020);
          URL http://www.quantum-espresso.org", 
     in publications or presentations arising from this work. More details at
     http://www.quantum-espresso.org/quote

     Parallel version (MPI & OpenMP), running on     384 processor cores
     Number of MPI processes:               384
     Threads/MPI process:                     1

     MPI processes distributed on     3 nodes
     234764 MiB available memory on the printing compute node when the environment starts

     Reading input from espresso.pwi
Warning: card &CELL ignored
Warning: card    PRESS_CONV_THR   = 0.1 ignored
Warning: card    CELL_DOFREE      = 'ALL' ignored
Warning: card / ignored
Warning: card &FCP ignored
Warning: card / ignored
Warning: card &RISM ignored
Warning: card / ignored

     Current dimensions of program PWSCF are:
     Max number of different atomic species (ntypx) = 10
     Max number of k-points (npk) =  40000
     Max angular momentum in pseudopotentials (lmaxx) =  4

     IMPORTANT: XC functional enforced from input :
     Exchange-correlation= PBE
                           (   1   4   3   4   0   0   0)
     Any further DFT definition will be discarded
     Please, verify this is what you really want


     Reading input from environ.in:
     * using ionic solvent mode
     * setting boundary derivatives method to SSCS default
     * setting electrolyte-boundary derivatives method to SSCS default

Environ Warning (1001): card EOF ignored

     
     Found identity + (  0.5000  0.0000  0.0000) symmetry
     This is a supercell, fractional translations are disabled

     K-points division:     npool     =       2
     R & G space division:  proc/nbgrp/npool/nimage =     192
     Subspace diagonalization in iterative solution of the eigenvalue problem:
     a serial algorithm will be used


     Parallelization info
     --------------------
     sticks:   dense  smooth     PW     G-vecs:    dense   smooth      PW
     Min          62      25      6                33436     8439    1136
     Max          63      27      7                33505     8489    1207
     Sum       11999    4803   1285              6425037  1625491  225007

     Using Slab Decomposition



     bravais-lattice index     =            8
     lattice parameter (alat)  =      12.9830  a.u.
     unit-cell volume          =   16814.9378 (a.u.)^3
     number of atoms/cell      =           20
     number of atomic types    =            1
     number of electrons       =        60.00
     number of Kohn-Sham states=           45
     kinetic-energy cutoff     =      80.0000  Ry
     charge density cutoff     =     800.0000  Ry
     scf convergence threshold =      1.0E-06
     mixing beta               =       0.2000
     number of iterations used =            8  local-TF  mixing
     energy convergence thresh.=      1.0E-05
     force convergence thresh. =      3.9E-04
     Exchange-correlation= PBE
                           (   1   4   3   4   0   0   0)
     nstep                     =          999


     ================================================================================

                                  Environ Setup Summary

     ================================================================================

     Please cite

          O. Andreussi, I. Dabo and N. Marzari, J. Chem. Phys. 136, 064102 (2012)
          F. Nattino, M. Truscott, N. Marzari, and O. Andreussi, J. Chem. Phys. 150, 041722 (2019)

     in publications or presentations arising from this work.

     ================================================================================

     Parameters
     ==========

     compensation onset threshold      =               0.1000E+00
     static permittivity               =                    89.90
     surface tension in input (dyn/cm) =                    37.30
     surface tension in internal units =               0.4792E-04

     Solvent Boundary
     ================

     solvent mode                      =                    ionic
     derivatives method                =                   lowmem
     electrolyte derivatives method    =                   lowmem
     numerical core for derivatives    =                      fft
     switching function adopted        =                     SCCS
     density limit for vacuum region   =               0.5000E-02
     density limit for bulk solvent    =               0.1000E-03
     soft-sphere radius mode           =                    bondi
     soft-sphere softness              =                     0.50
     alpha                             =                     1.32

     Electrostatic Setup
     ===================

     electrostatic problem to solve    =                    modpb
     numerical solver adopted          =                   newton
     type of auxiliary density adopted =                     none
     numerical core for poisson        =                      fft
     adopting a nested solver scheme
     inner solver                      =                       cg
     inner core                        =                      fft
     type of pbc corrections           =                parabolic
     numerical core for corrections    =                      1da

     ================================================================================


     >>>>> Grand-Canonical SCF is activated <<<<<
     Initial Total Charge  =     0.000000 e
     Target Fermi Energy   =    -4.904000 eV
     Thr. of Fermi Energy  =     0.001000 eV
     Wave-shift of Kerker  =     0.400000 bohr^-1
     Wave-shift of Hartree =     1.500000 bohr^-1
     Mixing Rate of Fermi  =     0.050000

     celldm(1)=  12.983009  celldm(2)=   1.118034  celldm(3)=   6.872491
     celldm(4)=   0.000000  celldm(5)=   0.000000  celldm(6)=   0.000000

     crystal axes: (cart. coord. in units of alat)
               a(1) = (   1.000000   0.000000   0.000000 )  
               a(2) = (   0.000000   1.118034   0.000000 )  
               a(3) = (   0.000000   0.000000   6.872491 )  

     reciprocal axes: (cart. coord. in units 2 pi/alat)
               b(1) = (  1.000000  0.000000  0.000000 )  
               b(2) = (  0.000000  0.894427  0.000000 )  
               b(3) = (  0.000000  0.000000  0.145508 )  


     PseudoPot. # 1 for Li read from file:
     /work/e89/e89/ba3g18/Repos/Pseudopotentials/Pslibrary/Li.pbe-sl-kjpaw_psl.1.0.0.UPF
     MD5 check sum: 3f4d2cafebb47c6c3aa8ed472e6f074d
     Pseudo is Projector augmented-wave, Zval =  3.0
     Generated using 'atomic' code by A. Dal Corso  v.7.4
     Shape of augmentation charge: PSQ
     Using radial grid of 1017 points,  4 beta functions with: 
                l(1) =   0
                l(2) =   0
                l(3) =   1
                l(4) =   1
     Q(r) pseudized with 0 coefficients 


     atomic species   valence    mass     pseudopotential
     Li                3.00     6.94000     Li( 1.00)

      2 Sym. Ops. (no inversion) found


                                    s                        frac. trans.

      isym =  1     identity                                     

 cryst.   s( 1) = (     1          0          0      )
                  (     0          1          0      )
                  (     0          0          1      )

 cart.    s( 1) = (  1.0000000  0.0000000  0.0000000 )
                  (  0.0000000  1.0000000  0.0000000 )
                  (  0.0000000  0.0000000  1.0000000 )


      isym =  2     inv. 180 deg rotation - cart. axis [1,0,0]   

 cryst.   s( 2) = (    -1          0          0      )
                  (     0          1          0      )
                  (     0          0          1      )

 cart.    s( 2) = ( -1.0000000  0.0000000  0.0000000 )
                  (  0.0000000  1.0000000  0.0000000 )
                  (  0.0000000  0.0000000  1.0000000 )


     point group C_s (m)    
     there are  2 classes
     the character table:

       E     s    
A'     1.00  1.00
A''    1.00 -1.00

     the symmetry operations in each class and the name of the first element:

     E        1
          identity                                               
     s        2
          inv. 180 deg rotation - cart. axis [1,0,0]             

   Cartesian axes

     site n.     atom                  positions (alat units)
         1        Li     tau(   1) = (  -0.0000000   0.4603141   3.6871226  )
         2        Li     tau(   2) = (  -0.0000000   0.8796936   3.5156909  )
         3        Li     tau(   3) = (  -0.0000000   0.2378880   3.2539306  )
         4        Li     tau(   4) = (  -0.0000000   0.6155478   2.9954501  )
         5        Li     tau(   5) = (  -0.0000000   0.1327140   4.0468618  )
         6        Li     tau(   6) = (   0.2500001   0.5737524   3.3568007  )
         7        Li     tau(   7) = (   0.2500000   0.9931299   3.1853675  )
         8        Li     tau(   8) = (   0.2500000   0.2026939   2.8256255  )
         9        Li     tau(   9) = (   0.2499999   0.8378965   3.8770398  )
        10        Li     tau(  10) = (   0.2499999   0.0975227   3.6185582  )
        11        Li     tau(  11) = (   0.5000000   0.4603142   3.6871226  )
        12        Li     tau(  12) = (   0.5000000   0.8796937   3.5156910  )
        13        Li     tau(  13) = (   0.5000000   0.2378880   3.2539306  )
        14        Li     tau(  14) = (   0.5000000   0.6155477   2.9954500  )
        15        Li     tau(  15) = (   0.5000000   0.1327133   4.0468610  )
        16        Li     tau(  16) = (   0.7499999   0.5737524   3.3568007  )
        17        Li     tau(  17) = (   0.7500000   0.9931299   3.1853675  )
        18        Li     tau(  18) = (   0.7500000   0.2026939   2.8256255  )
        19        Li     tau(  19) = (   0.7500001   0.8378965   3.8770398  )
        20        Li     tau(  20) = (   0.7500000   0.0975227   3.6185582  )

   Crystallographic axes

     site n.     atom                  positions (cryst. coord.)
         1        Li     tau(   1) = ( -0.0000000  0.4117175  0.5365045  )
         2        Li     tau(   2) = ( -0.0000000  0.7868219  0.5115599  )
         3        Li     tau(   3) = ( -0.0000000  0.2127735  0.4734718  )
         4        Li     tau(   4) = ( -0.0000000  0.5505626  0.4358609  )
         5        Li     tau(   5) = ( -0.0000000  0.1187030  0.5888493  )
         6        Li     tau(   6) = (  0.2500001  0.5131797  0.4884402  )
         7        Li     tau(   7) = (  0.2500000  0.8882824  0.4634953  )
         8        Li     tau(   8) = (  0.2500000  0.1812949  0.4111501  )
         9        Li     tau(   9) = (  0.2499999  0.7494374  0.5641389  )
        10        Li     tau(  10) = (  0.2499999  0.0872270  0.5265279  )
        11        Li     tau(  11) = (  0.5000000  0.4117175  0.5365045  )
        12        Li     tau(  12) = (  0.5000000  0.7868219  0.5115599  )
        13        Li     tau(  13) = (  0.5000000  0.2127735  0.4734718  )
        14        Li     tau(  14) = (  0.5000000  0.5505626  0.4358609  )
        15        Li     tau(  15) = (  0.5000000  0.1187024  0.5888492  )
        16        Li     tau(  16) = (  0.7499999  0.5131797  0.4884402  )
        17        Li     tau(  17) = (  0.7500000  0.8882824  0.4634953  )
        18        Li     tau(  18) = (  0.7500000  0.1812949  0.4111501  )
        19        Li     tau(  19) = (  0.7500001  0.7494374  0.5641389  )
        20        Li     tau(  20) = (  0.7500000  0.0872270  0.5265279  )

     number of k points=    30  Marzari-Vanderbilt smearing, width (Ry)=  0.0100
                       cart. coord. in units 2pi/alat
        k(    1) = (   0.0000000   0.0000000   0.0000000), wk =   0.0222222
        k(    2) = (   0.0000000   0.0993808   0.0000000), wk =   0.0444444
        k(    3) = (   0.0000000   0.1987616   0.0000000), wk =   0.0444444
        k(    4) = (   0.0000000   0.2981424   0.0000000), wk =   0.0444444
        k(    5) = (   0.0000000   0.3975232   0.0000000), wk =   0.0444444
        k(    6) = (   0.1000000   0.0000000   0.0000000), wk =   0.0444444
        k(    7) = (   0.1000000   0.0993808   0.0000000), wk =   0.0888889
        k(    8) = (   0.1000000   0.1987616   0.0000000), wk =   0.0888889
        k(    9) = (   0.1000000   0.2981424   0.0000000), wk =   0.0888889
        k(   10) = (   0.1000000   0.3975232   0.0000000), wk =   0.0888889
        k(   11) = (   0.2000000   0.0000000   0.0000000), wk =   0.0444444
        k(   12) = (   0.2000000   0.0993808   0.0000000), wk =   0.0888889
        k(   13) = (   0.2000000   0.1987616   0.0000000), wk =   0.0888889
        k(   14) = (   0.2000000   0.2981424   0.0000000), wk =   0.0888889
        k(   15) = (   0.2000000   0.3975232   0.0000000), wk =   0.0888889
        k(   16) = (   0.3000000   0.0000000   0.0000000), wk =   0.0444444
        k(   17) = (   0.3000000   0.0993808   0.0000000), wk =   0.0888889
        k(   18) = (   0.3000000   0.1987616   0.0000000), wk =   0.0888889
        k(   19) = (   0.3000000   0.2981424   0.0000000), wk =   0.0888889
        k(   20) = (   0.3000000   0.3975232   0.0000000), wk =   0.0888889
        k(   21) = (   0.4000000   0.0000000   0.0000000), wk =   0.0444444
        k(   22) = (   0.4000000   0.0993808   0.0000000), wk =   0.0888889
        k(   23) = (   0.4000000   0.1987616   0.0000000), wk =   0.0888889
        k(   24) = (   0.4000000   0.2981424   0.0000000), wk =   0.0888889
        k(   25) = (   0.4000000   0.3975232   0.0000000), wk =   0.0888889
        k(   26) = (  -0.5000000   0.0000000   0.0000000), wk =   0.0222222
        k(   27) = (  -0.5000000   0.0993808   0.0000000), wk =   0.0444444
        k(   28) = (  -0.5000000   0.1987616   0.0000000), wk =   0.0444444
        k(   29) = (  -0.5000000   0.2981424   0.0000000), wk =   0.0444444
        k(   30) = (  -0.5000000   0.3975232   0.0000000), wk =   0.0444444

                       cryst. coord.
        k(    1) = (   0.0000000   0.0000000   0.0000000), wk =   0.0222222
        k(    2) = (   0.0000000   0.1111111   0.0000000), wk =   0.0444444
        k(    3) = (   0.0000000   0.2222222   0.0000000), wk =   0.0444444
        k(    4) = (   0.0000000   0.3333333   0.0000000), wk =   0.0444444
        k(    5) = (   0.0000000   0.4444444   0.0000000), wk =   0.0444444
        k(    6) = (   0.1000000   0.0000000   0.0000000), wk =   0.0444444
        k(    7) = (   0.1000000   0.1111111   0.0000000), wk =   0.0888889
        k(    8) = (   0.1000000   0.2222222   0.0000000), wk =   0.0888889
        k(    9) = (   0.1000000   0.3333333   0.0000000), wk =   0.0888889
        k(   10) = (   0.1000000   0.4444444   0.0000000), wk =   0.0888889
        k(   11) = (   0.2000000   0.0000000   0.0000000), wk =   0.0444444
        k(   12) = (   0.2000000   0.1111111   0.0000000), wk =   0.0888889
        k(   13) = (   0.2000000   0.2222222   0.0000000), wk =   0.0888889
        k(   14) = (   0.2000000   0.3333333   0.0000000), wk =   0.0888889
        k(   15) = (   0.2000000   0.4444444   0.0000000), wk =   0.0888889
        k(   16) = (   0.3000000   0.0000000   0.0000000), wk =   0.0444444
        k(   17) = (   0.3000000   0.1111111   0.0000000), wk =   0.0888889
        k(   18) = (   0.3000000   0.2222222   0.0000000), wk =   0.0888889
        k(   19) = (   0.3000000   0.3333333   0.0000000), wk =   0.0888889
        k(   20) = (   0.3000000   0.4444444   0.0000000), wk =   0.0888889
        k(   21) = (   0.4000000   0.0000000   0.0000000), wk =   0.0444444
        k(   22) = (   0.4000000   0.1111111   0.0000000), wk =   0.0888889
        k(   23) = (   0.4000000   0.2222222   0.0000000), wk =   0.0888889
        k(   24) = (   0.4000000   0.3333333   0.0000000), wk =   0.0888889
        k(   25) = (   0.4000000   0.4444444   0.0000000), wk =   0.0888889
        k(   26) = (  -0.5000000   0.0000000   0.0000000), wk =   0.0222222
        k(   27) = (  -0.5000000   0.1111111   0.0000000), wk =   0.0444444
        k(   28) = (  -0.5000000   0.2222222   0.0000000), wk =   0.0444444
        k(   29) = (  -0.5000000   0.3333333   0.0000000), wk =   0.0444444
        k(   30) = (  -0.5000000   0.4444444   0.0000000), wk =   0.0444444

     Dense  grid:  6425037 G-vectors     FFT dimensions: ( 120, 135, 810)

     Smooth grid:  1625491 G-vectors     FFT dimensions: (  75,  90, 512)

     Dynamical RAM for                 wfc:       0.73 MB

     Dynamical RAM for     wfc (w. buffer):      11.62 MB

     Dynamical RAM for           str. fact:       0.51 MB

     Dynamical RAM for           local pot:       0.00 MB

     Dynamical RAM for          nlocal pot:       2.58 MB

     Dynamical RAM for                qrad:       0.65 MB

     Dynamical RAM for          rho,v,vnew:       3.38 MB

     Dynamical RAM for               rhoin:       1.13 MB

     Dynamical RAM for            rho*nmix:       8.16 MB

     Dynamical RAM for           G-vectors:       1.98 MB

     Dynamical RAM for          h,s,v(r/c):       1.48 MB

     Dynamical RAM for          <psi|beta>:       0.11 MB

     Dynamical RAM for                 psi:       2.91 MB

     Dynamical RAM for                hpsi:       2.91 MB

     Dynamical RAM for                spsi:       2.91 MB

     Dynamical RAM for      wfcinit/wfcrot:       1.50 MB

     Dynamical RAM for           addusdens:      16.33 MB

     Dynamical RAM for          addusforce:      26.04 MB

     Estimated static dynamical RAM per process >      25.97 MB

     Estimated max dynamical RAM per process >      98.04 MB

     Estimated total dynamical RAM >      21.03 GB

     Initial potential from superposition of free atoms

     starting charge      59.9078, renormalised to      60.0000

     negative rho (up, down):  2.584E-03 0.000E+00
     Starting wfcs are random
     Checking if some PAW data can be deallocated... 

     total cpu time spent up to now is       21.4 secs

     Self-consistent Calculation

     iteration #  1     ecut=    80.00 Ry     beta= 0.20
     Davidson diagonalization with overlap

---- Real-time Memory Report at c_bands before calling an iterative solver
           367 MiB given to the printing process from OS
             0 MiB allocation reported by mallinfo(arena+hblkhd)
        220158 MiB available memory on the node where the printing process lives
------------------
     c_bands:  1 eigenvalues not converged
     c_bands:  1 eigenvalues not converged
     ethr =  1.00E-12,  avg # of iterations =126.3

     negative rho (up, down):  1.895E-03 0.000E+00

     total cpu time spent up to now is      107.4 secs

     total energy              =    -300.67505191 Ry
     estimated scf accuracy    <       0.10172361 Ry

     total charge of GC-SCF    =       0.07561221 e
     the Fermi energy          =      -4.44191339 eV
                        (error :       0.46208661 eV)
     electrostatic embedding   =       0.00000000 Ry
     cavitation energy         =       0.02498500 Ry
     electrolyte free energy   =       0.00723735 Ry
     correction to one-el term =      -0.00000000 Ry

     iteration #  2     ecut=    80.00 Ry     beta= 0.20
     Davidson diagonalization with overlap

---- Real-time Memory Report at c_bands before calling an iterative solver
           367 MiB given to the printing process from OS
             0 MiB allocation reported by mallinfo(arena+hblkhd)
        220214 MiB available memory on the node where the printing process lives
------------------
     ethr =  1.00E-05,  avg # of iterations =  9.5

     negative rho (up, down):  1.332E-03 0.000E+00

     add environment contribution to local potential

     total cpu time spent up to now is      121.7 secs

     total energy              =    -300.53405989 Ry
     estimated scf accuracy    <       0.03761371 Ry

     total charge of GC-SCF    =       0.21384098 e
     the Fermi energy          =      -4.18321017 eV
                        (error :       0.72078983 eV)
     electrostatic embedding   =       0.00042381 Ry
     cavitation energy         =       0.02498500 Ry
     electrolyte free energy   =       0.00723735 Ry
     correction to one-el term =      -0.00000000 Ry

     iteration #  3     ecut=    80.00 Ry     beta= 0.20
     Davidson diagonalization with overlap

---- Real-time Memory Report at c_bands before calling an iterative solver
           367 MiB given to the printing process from OS
             0 MiB allocation reported by mallinfo(arena+hblkhd)
        220270 MiB available memory on the node where the printing process lives
------------------
     ethr =  1.00E-05,  avg # of iterations = 16.6

     negative rho (up, down):  1.081E-03 0.000E+00

     add environment contribution to local potential

     total cpu time spent up to now is      139.5 secs

     total energy              =    -300.75374339 Ry
     estimated scf accuracy    <       0.00787259 Ry

     total charge of GC-SCF    =       0.28751972 e
     the Fermi energy          =      -2.89671627 eV
                        (error :       2.00728373 eV)
     electrostatic embedding   =      -0.03348360 Ry
     cavitation energy         =       0.02498500 Ry
     electrolyte free energy   =      -0.00361031 Ry
     correction to one-el term =      -5.76914165 Ry

     iteration #  4     ecut=    80.00 Ry     beta= 0.20
     Davidson diagonalization with overlap

---- Real-time Memory Report at c_bands before calling an iterative solver
           367 MiB given to the printing process from OS
             0 MiB allocation reported by mallinfo(arena+hblkhd)
        220370 MiB available memory on the node where the printing process lives
------------------
     ethr =  1.00E-05,  avg # of iterations =  8.1

     negative rho (up, down):  8.609E-04 0.000E+00

     add environment contribution to local potential

     total cpu time spent up to now is      152.6 secs

     total energy              =    -300.65344241 Ry
     estimated scf accuracy    <       0.00544684 Ry

     total charge of GC-SCF    =       0.77050177 e
     the Fermi energy          =      -3.11267427 eV
                        (error :       1.79132573 eV)
     electrostatic embedding   =      -0.03990729 Ry
     cavitation energy         =       0.02498500 Ry
     electrolyte free energy   =      -0.00442317 Ry
     correction to one-el term =      -7.79059711 Ry

     iteration #  5     ecut=    80.00 Ry     beta= 0.20
     Davidson diagonalization with overlap

---- Real-time Memory Report at c_bands before calling an iterative solver
           367 MiB given to the printing process from OS
             0 MiB allocation reported by mallinfo(arena+hblkhd)
        220421 MiB available memory on the node where the printing process lives
------------------
     ethr =  9.20E-06,  avg # of iterations = 10.3

     negative rho (up, down):  7.123E-04 0.000E+00

     add environment contribution to local potential

     total cpu time spent up to now is      167.0 secs

     total energy              =    -300.79280884 Ry
     estimated scf accuracy    <       0.00466885 Ry

     total charge of GC-SCF    =       0.88283232 e
     the Fermi energy          =      -3.23500567 eV
                        (error :       1.66899433 eV)
     electrostatic embedding   =      -0.13789939 Ry
     cavitation energy         =       0.02498500 Ry
     electrolyte free energy   =      -0.00536379 Ry
     correction to one-el term =     -18.47912483 Ry

     iteration #  6     ecut=    80.00 Ry     beta= 0.20
     Davidson diagonalization with overlap

---- Real-time Memory Report at c_bands before calling an iterative solver
           367 MiB given to the printing process from OS
             0 MiB allocation reported by mallinfo(arena+hblkhd)
        220471 MiB available memory on the node where the printing process lives
------------------
     ethr =  7.90E-06,  avg # of iterations =  6.1

     negative rho (up, down):  7.882E-03 0.000E+00

     add environment contribution to local potential

     total cpu time spent up to now is      179.0 secs

     total energy              =    -300.73824721 Ry
     estimated scf accuracy    <       0.00225543 Ry

     total charge of GC-SCF    =       1.38521620 e
     the Fermi energy          =      -3.14067631 eV
                        (error :       1.76332369 eV)
     electrostatic embedding   =      -0.17624109 Ry
     cavitation energy         =       0.02498500 Ry
     electrolyte free energy   =      -0.00527794 Ry
     correction to one-el term =     -20.94136639 Ry

     iteration #  7     ecut=    80.00 Ry     beta= 0.20
     Davidson diagonalization with overlap

---- Real-time Memory Report at c_bands before calling an iterative solver
           367 MiB given to the printing process from OS
             0 MiB allocation reported by mallinfo(arena+hblkhd)
        220475 MiB available memory on the node where the printing process lives
------------------
     ethr =  3.85E-06,  avg # of iterations = 12.0

     negative rho (up, down):  8.007E-03 0.000E+00

     add environment contribution to local potential

     total cpu time spent up to now is      194.6 secs

     total energy              =    -300.92663893 Ry
     estimated scf accuracy    <       0.00187752 Ry

     total charge of GC-SCF    =       1.38864801 e
     the Fermi energy          =      -3.12199573 eV
                        (error :       1.78200427 eV)
     electrostatic embedding   =      -0.40640793 Ry
     cavitation energy         =       0.02498500 Ry
     electrolyte free energy   =      -0.00705087 Ry
     correction to one-el term =     -32.42187867 Ry

     iteration #  8     ecut=    80.00 Ry     beta= 0.20
     Davidson diagonalization with overlap

---- Real-time Memory Report at c_bands before calling an iterative solver
           367 MiB given to the printing process from OS
             0 MiB allocation reported by mallinfo(arena+hblkhd)
        220502 MiB available memory on the node where the printing process lives
------------------
     ethr =  3.20E-06,  avg # of iterations =  2.3

     negative rho (up, down):  1.235E-02 0.000E+00

     add environment contribution to local potential

     total cpu time spent up to now is      204.9 secs

     total energy              =    -300.91137184 Ry
     estimated scf accuracy    <       0.00184202 Ry

     total charge of GC-SCF    =       1.44776380 e
     the Fermi energy          =      -3.12870815 eV
                        (error :       1.77529185 eV)
     electrostatic embedding   =      -0.40830789 Ry
     cavitation energy         =       0.02498500 Ry
     electrolyte free energy   =      -0.00708792 Ry
     correction to one-el term =     -32.52403344 Ry

     iteration #  9     ecut=    80.00 Ry     beta= 0.20
     Davidson diagonalization with overlap

---- Real-time Memory Report at c_bands before calling an iterative solver
           367 MiB given to the printing process from OS
             0 MiB allocation reported by mallinfo(arena+hblkhd)
        220491 MiB available memory on the node where the printing process lives
------------------
     ethr =  3.15E-06,  avg # of iterations =  5.8

     negative rho (up, down):  5.687E-02 0.000E+00

     add environment contribution to local potential

     total cpu time spent up to now is      217.2 secs

     total energy              =    -300.88884431 Ry
     estimated scf accuracy    <       0.00201802 Ry

     total charge of GC-SCF    =       1.70441119 e
     the Fermi energy          =      -3.11844399 eV
                        (error :       1.78555601 eV)
     electrostatic embedding   =      -0.44152464 Ry
     cavitation energy         =       0.02498500 Ry
     electrolyte free energy   =      -0.00732891 Ry
     correction to one-el term =     -33.77223809 Ry

     iteration # 10     ecut=    80.00 Ry     beta= 0.20
     Davidson diagonalization with overlap

---- Real-time Memory Report at c_bands before calling an iterative solver
           367 MiB given to the printing process from OS
             0 MiB allocation reported by mallinfo(arena+hblkhd)
        220476 MiB available memory on the node where the printing process lives
------------------
     ethr =  3.15E-06,  avg # of iterations = 15.1

     negative rho (up, down):  7.623E-03 0.000E+00

     add environment contribution to local potential

     total cpu time spent up to now is      234.6 secs

     total energy              =    -301.11177030 Ry
     estimated scf accuracy    <       0.00484378 Ry

     total charge of GC-SCF    =       1.43673986 e
     the Fermi energy          =      -2.96824144 eV
                        (error :       1.93575856 eV)
     electrostatic embedding   =      -0.60391116 Ry
     cavitation energy         =       0.02498500 Ry
     electrolyte free energy   =      -0.00861810 Ry
     correction to one-el term =     -38.77997311 Ry

     iteration # 11     ecut=    80.00 Ry     beta= 0.20
     Davidson diagonalization with overlap

---- Real-time Memory Report at c_bands before calling an iterative solver
           367 MiB given to the printing process from OS
             0 MiB allocation reported by mallinfo(arena+hblkhd)
        220485 MiB available memory on the node where the printing process lives
------------------
     ethr =  3.15E-06,  avg # of iterations = 10.0

     negative rho (up, down):  4.421E-04 0.000E+00

     add environment contribution to local potential

     total cpu time spent up to now is      249.4 secs

     total energy              =    -300.87796294 Ry
     estimated scf accuracy    <       0.00359013 Ry

     total charge of GC-SCF    =       1.54647120 e
     the Fermi energy          =      -2.93015938 eV
                        (error :       1.97384062 eV)
     electrostatic embedding   =      -0.43658309 Ry
     cavitation energy         =       0.02498500 Ry
     electrolyte free energy   =      -0.00694790 Ry
     correction to one-el term =     -32.84717153 Ry

     iteration # 12     ecut=    80.00 Ry     beta= 0.20
     Davidson diagonalization with overlap

---- Real-time Memory Report at c_bands before calling an iterative solver
           367 MiB given to the printing process from OS
             0 MiB allocation reported by mallinfo(arena+hblkhd)
        220493 MiB available memory on the node where the printing process lives
------------------
     ethr =  3.15E-06,  avg # of iterations = 12.6

     negative rho (up, down):  3.449E-03 0.000E+00

     add environment contribution to local potential

     total cpu time spent up to now is      266.7 secs

     total energy              =    -300.81174355 Ry
     estimated scf accuracy    <       0.00164887 Ry

     total charge of GC-SCF    =       1.94225166 e
     the Fermi energy          =      -3.20443798 eV
                        (error :       1.69956202 eV)
     electrostatic embedding   =      -0.49582377 Ry
     cavitation energy         =       0.02498500 Ry
     electrolyte free energy   =      -0.00825715 Ry
     correction to one-el term =     -36.60643325 Ry

     iteration # 13     ecut=    80.00 Ry     beta= 0.20
     Davidson diagonalization with overlap

---- Real-time Memory Report at c_bands before calling an iterative solver
           367 MiB given to the printing process from OS
             0 MiB allocation reported by mallinfo(arena+hblkhd)
        220495 MiB available memory on the node where the printing process lives
------------------
     ethr =  2.84E-06,  avg # of iterations = 16.4

     negative rho (up, down):  1.518E-03 0.000E+00

     add environment contribution to local potential

     total cpu time spent up to now is      286.0 secs

     total energy              =    -300.92201935 Ry
     estimated scf accuracy    <       0.00090065 Ry

     total charge of GC-SCF    =       1.99146754 e
     the Fermi energy          =      -3.46983155 eV
                        (error :       1.43416845 eV)
     electrostatic embedding   =      -0.77901549 Ry
     cavitation energy         =       0.02498500 Ry
     electrolyte free energy   =      -0.01240242 Ry
     correction to one-el term =     -47.07012277 Ry

     iteration # 14     ecut=    80.00 Ry     beta= 0.20
     Davidson diagonalization with overlap

---- Real-time Memory Report at c_bands before calling an iterative solver
           367 MiB given to the printing process from OS
             0 MiB allocation reported by mallinfo(arena+hblkhd)
        220497 MiB available memory on the node where the printing process lives
------------------
     ethr =  1.55E-06,  avg # of iterations = 10.3

     negative rho (up, down):  2.508E-03 0.000E+00

     add environment contribution to local potential

     total cpu time spent up to now is      302.9 secs

     total energy              =    -300.87095306 Ry
     estimated scf accuracy    <       0.00064076 Ry

     total charge of GC-SCF    =       2.54155628 e
     the Fermi energy          =      -3.65563494 eV
                        (error :       1.24836506 eV)
     electrostatic embedding   =      -0.82396176 Ry
     cavitation energy         =       0.02498500 Ry
     electrolyte free energy   =      -0.01407764 Ry
     correction to one-el term =     -49.17826218 Ry

     iteration # 15     ecut=    80.00 Ry     beta= 0.20
     Davidson diagonalization with overlap

---- Real-time Memory Report at c_bands before calling an iterative solver
           367 MiB given to the printing process from OS
             0 MiB allocation reported by mallinfo(arena+hblkhd)
        220497 MiB available memory on the node where the printing process lives
------------------
     ethr =  1.12E-06,  avg # of iterations = 20.1

     negative rho (up, down):  2.234E-02 0.000E+00

     add environment contribution to local potential

     total cpu time spent up to now is      324.5 secs

     total energy              =    -300.95909424 Ry
     estimated scf accuracy    <       0.00032708 Ry

     total charge of GC-SCF    =       3.34741724 e
     the Fermi energy          =      -4.01452240 eV
                        (error :       0.88947760 eV)
     electrostatic embedding   =      -1.36146410 Ry
     cavitation energy         =       0.02498500 Ry
     electrolyte free energy   =      -0.02186862 Ry
     correction to one-el term =     -63.30665557 Ry

     iteration # 16     ecut=    80.00 Ry     beta= 0.20
     Davidson diagonalization with overlap

---- Real-time Memory Report at c_bands before calling an iterative solver
           367 MiB given to the printing process from OS
             0 MiB allocation reported by mallinfo(arena+hblkhd)
        220504 MiB available memory on the node where the printing process lives
------------------
     ethr =  5.77E-07,  avg # of iterations = 21.7

     negative rho (up, down):  1.823E-02 0.000E+00

     add environment contribution to local potential

     total cpu time spent up to now is      349.7 secs

     total energy              =    -300.97083981 Ry
     estimated scf accuracy    <       0.00026313 Ry

     total charge of GC-SCF    =       3.30303878 e
     the Fermi energy          =      -4.73362469 eV
                        (error :       0.17037531 eV)
     electrostatic embedding   =      -2.40016082 Ry
     cavitation energy         =       0.02498500 Ry
     electrolyte free energy   =      -0.03798921 Ry
     correction to one-el term =     -83.42717971 Ry

     iteration # 17     ecut=    80.00 Ry     beta= 0.20
     Davidson diagonalization with overlap

---- Real-time Memory Report at c_bands before calling an iterative solver
           367 MiB given to the printing process from OS
             0 MiB allocation reported by mallinfo(arena+hblkhd)
        220435 MiB available memory on the node where the printing process lives
------------------
     ethr =  4.64E-07,  avg # of iterations =  7.2

     negative rho (up, down):  3.112E-03 0.000E+00

     add environment contribution to local potential

     total cpu time spent up to now is      364.6 secs

     total energy              =    -300.98803358 Ry
     estimated scf accuracy    <       0.00024241 Ry

     total charge of GC-SCF    =       3.10367111 e
     the Fermi energy          =      -4.69358489 eV
                        (error :       0.21041511 eV)
     electrostatic embedding   =      -2.33623921 Ry
     cavitation energy         =       0.02498500 Ry
     electrolyte free energy   =      -0.03693468 Ry
     correction to one-el term =     -82.36043022 Ry

     iteration # 18     ecut=    80.00 Ry     beta= 0.20
     Davidson diagonalization with overlap

---- Real-time Memory Report at c_bands before calling an iterative solver
           367 MiB given to the printing process from OS
             0 MiB allocation reported by mallinfo(arena+hblkhd)
        220412 MiB available memory on the node where the printing process lives
------------------
     ethr =  4.26E-07,  avg # of iterations = 15.2

     negative rho (up, down):  1.156E-02 0.000E+00

     add environment contribution to local potential

     total cpu time spent up to now is      383.7 secs

     total energy              =    -300.96162332 Ry
     estimated scf accuracy    <       0.00013688 Ry

     total charge of GC-SCF    =       3.35178334 e
     the Fermi energy          =      -4.53816547 eV
                        (error :       0.36583453 eV)
     electrostatic embedding   =      -2.06392185 Ry
     cavitation energy         =       0.02498500 Ry
     electrolyte free energy   =      -0.03254512 Ry
     correction to one-el term =     -77.68524940 Ry

     iteration # 19     ecut=    80.00 Ry     beta= 0.20
     Davidson diagonalization with overlap

---- Real-time Memory Report at c_bands before calling an iterative solver
           367 MiB given to the printing process from OS
             0 MiB allocation reported by mallinfo(arena+hblkhd)
        220435 MiB available memory on the node where the printing process lives
------------------
     ethr =  2.42E-07,  avg # of iterations = 20.3

     negative rho (up, down):  7.729E-03 0.000E+00

     add environment contribution to local potential

     total cpu time spent up to now is      405.9 secs

     total energy              =    -300.96761426 Ry
     estimated scf accuracy    <       0.00009240 Ry

     total charge of GC-SCF    =       3.33798435 e
     the Fermi energy          =      -4.77325515 eV
                        (error :       0.13074485 eV)
     electrostatic embedding   =      -2.40637406 Ry
     cavitation energy         =       0.02498500 Ry
     electrolyte free energy   =      -0.03810701 Ry
     correction to one-el term =     -83.54141521 Ry

     iteration # 20     ecut=    80.00 Ry     beta= 0.20
     Davidson diagonalization with overlap

---- Real-time Memory Report at c_bands before calling an iterative solver
           367 MiB given to the printing process from OS
             0 MiB allocation reported by mallinfo(arena+hblkhd)
        220425 MiB available memory on the node where the printing process lives
------------------
     ethr =  1.63E-07,  avg # of iterations =  9.3

     negative rho (up, down):  1.354E-03 0.000E+00

     add environment contribution to local potential

     total cpu time spent up to now is      422.4 secs

     total energy              =    -300.96579954 Ry
     estimated scf accuracy    <       0.00007498 Ry

     total charge of GC-SCF    =       3.40642341 e
     the Fermi energy          =      -4.78171844 eV
                        (error :       0.12228156 eV)
     electrostatic embedding   =      -2.38686846 Ry
     cavitation energy         =       0.02498500 Ry
     electrolyte free energy   =      -0.03778452 Ry
     correction to one-el term =     -83.22475631 Ry

     iteration # 21     ecut=    80.00 Ry     beta= 0.20
     Davidson diagonalization with overlap

---- Real-time Memory Report at c_bands before calling an iterative solver
           367 MiB given to the printing process from OS
             0 MiB allocation reported by mallinfo(arena+hblkhd)
        220426 MiB available memory on the node where the printing process lives
------------------
     ethr =  1.32E-07,  avg # of iterations = 17.9

     negative rho (up, down):  3.311E-04 0.000E+00

     add environment contribution to local potential

     total cpu time spent up to now is      443.5 secs

     total energy              =    -300.96819885 Ry
     estimated scf accuracy    <       0.00002352 Ry

     total charge of GC-SCF    =       3.29664147 e
     the Fermi energy          =      -4.90524379 eV
                        (error :       0.00124379 eV)
     electrostatic embedding   =      -2.49294034 Ry
     cavitation energy         =       0.02498500 Ry
     electrolyte free energy   =      -0.03947483 Ry
     correction to one-el term =     -84.92638360 Ry

     iteration # 22     ecut=    80.00 Ry     beta= 0.20
     Davidson diagonalization with overlap

---- Real-time Memory Report at c_bands before calling an iterative solver
           367 MiB given to the printing process from OS
             0 MiB allocation reported by mallinfo(arena+hblkhd)
        220398 MiB available memory on the node where the printing process lives
------------------
     ethr =  4.15E-08,  avg # of iterations = 18.8

     negative rho (up, down):  2.693E-04 0.000E+00

     add environment contribution to local potential

     total cpu time spent up to now is      465.4 secs

     total energy              =    -300.96598455 Ry
     estimated scf accuracy    <       0.00002394 Ry

     total charge of GC-SCF    =       3.33259335 e
     the Fermi energy          =      -4.80997861 eV
                        (error :       0.09402139 eV)
     electrostatic embedding   =      -2.33784044 Ry
     cavitation energy         =       0.02498500 Ry
     electrolyte free energy   =      -0.03686887 Ry
     correction to one-el term =     -82.40992079 Ry

     iteration # 23     ecut=    80.00 Ry     beta= 0.20
     Davidson diagonalization with overlap

---- Real-time Memory Report at c_bands before calling an iterative solver
           367 MiB given to the printing process from OS
             0 MiB allocation reported by mallinfo(arena+hblkhd)
        220368 MiB available memory on the node where the printing process lives
------------------
     ethr =  4.15E-08,  avg # of iterations = 10.2

     negative rho (up, down):  2.647E-04 0.000E+00

     add environment contribution to local potential

     total cpu time spent up to now is      482.9 secs

     total energy              =    -300.96646231 Ry
     estimated scf accuracy    <       0.00001622 Ry

     total charge of GC-SCF    =       3.39766569 e
     the Fermi energy          =      -4.84385108 eV
                        (error :       0.06014892 eV)
     electrostatic embedding   =      -2.38901454 Ry
     cavitation energy         =       0.02498500 Ry
     electrolyte free energy   =      -0.03771143 Ry
     correction to one-el term =     -83.25694562 Ry

     iteration # 24     ecut=    80.00 Ry     beta= 0.20
     Davidson diagonalization with overlap

---- Real-time Memory Report at c_bands before calling an iterative solver
           367 MiB given to the printing process from OS
             0 MiB allocation reported by mallinfo(arena+hblkhd)
        220377 MiB available memory on the node where the printing process lives
------------------
     ethr =  2.87E-08,  avg # of iterations = 18.6

     negative rho (up, down):  2.609E-04 0.000E+00

     add environment contribution to local potential

     total cpu time spent up to now is      503.8 secs

     total energy              =    -300.96625111 Ry
     estimated scf accuracy    <       0.00000851 Ry

     total charge of GC-SCF    =       3.43569017 e
     the Fermi energy          =      -4.89013249 eV
                        (error :       0.01386751 eV)
     electrostatic embedding   =      -2.48188404 Ry
     cavitation energy         =       0.02498500 Ry
     electrolyte free energy   =      -0.03927163 Ry
     correction to one-el term =     -84.76723533 Ry

     iteration # 25     ecut=    80.00 Ry     beta= 0.20
     Davidson diagonalization with overlap

---- Real-time Memory Report at c_bands before calling an iterative solver
           367 MiB given to the printing process from OS
             0 MiB allocation reported by mallinfo(arena+hblkhd)
        220353 MiB available memory on the node where the printing process lives
------------------
     ethr =  1.50E-08,  avg # of iterations = 18.4

     negative rho (up, down):  3.051E-04 0.000E+00

     add environment contribution to local potential

     total cpu time spent up to now is      524.7 secs

     total energy              =    -300.96566754 Ry
     estimated scf accuracy    <       0.00000495 Ry

     total charge of GC-SCF    =       3.41712376 e
     the Fermi energy          =      -4.92407779 eV
                        (error :       0.02007779 eV)
     electrostatic embedding   =      -2.53852815 Ry
     cavitation energy         =       0.02498500 Ry
     electrolyte free energy   =      -0.04021950 Ry
     correction to one-el term =     -85.68314375 Ry

     iteration # 26     ecut=    80.00 Ry     beta= 0.20
     Davidson diagonalization with overlap

---- Real-time Memory Report at c_bands before calling an iterative solver
           367 MiB given to the printing process from OS
             0 MiB allocation reported by mallinfo(arena+hblkhd)
        220384 MiB available memory on the node where the printing process lives
------------------
     ethr =  8.75E-09,  avg # of iterations = 12.3

     negative rho (up, down):  3.312E-04 0.000E+00

     add environment contribution to local potential

     total cpu time spent up to now is      543.2 secs

     total energy              =    -300.96600816 Ry
     estimated scf accuracy    <       0.00000285 Ry

     total charge of GC-SCF    =       3.43958033 e
     the Fermi energy          =      -4.91451413 eV
                        (error :       0.01051413 eV)
     electrostatic embedding   =      -2.51092201 Ry
     cavitation energy         =       0.02498500 Ry
     electrolyte free energy   =      -0.03975876 Ry
     correction to one-el term =     -85.25114205 Ry

     iteration # 27     ecut=    80.00 Ry     beta= 0.20
     Davidson diagonalization with overlap

---- Real-time Memory Report at c_bands before calling an iterative solver
           367 MiB given to the printing process from OS
             0 MiB allocation reported by mallinfo(arena+hblkhd)
        220377 MiB available memory on the node where the printing process lives
------------------
     ethr =  5.05E-09,  avg # of iterations = 17.7

     negative rho (up, down):  3.962E-04 0.000E+00

     add environment contribution to local potential

     total cpu time spent up to now is      563.9 secs

     total energy              =    -300.96558097 Ry
     estimated scf accuracy    <       0.00000212 Ry

     total charge of GC-SCF    =       3.43492573 e
     the Fermi energy          =      -4.93555952 eV
                        (error :       0.03155952 eV)
     electrostatic embedding   =      -2.54424316 Ry
     cavitation energy         =       0.02498500 Ry
     electrolyte free energy   =      -0.04032130 Ry
     correction to one-el term =     -85.78800697 Ry

     iteration # 28     ecut=    80.00 Ry     beta= 0.20
     Davidson diagonalization with overlap

---- Real-time Memory Report at c_bands before calling an iterative solver
           367 MiB given to the printing process from OS
             0 MiB allocation reported by mallinfo(arena+hblkhd)
        220389 MiB available memory on the node where the printing process lives
------------------
     ethr =  3.75E-09,  avg # of iterations =  9.2

     negative rho (up, down):  3.916E-04 0.000E+00

     add environment contribution to local potential

     total cpu time spent up to now is      580.3 secs

     total energy              =    -300.96559060 Ry
     estimated scf accuracy    <       0.00000153 Ry

     total charge of GC-SCF    =       3.42754891 e
     the Fermi energy          =      -4.93271181 eV
                        (error :       0.02871181 eV)
     electrostatic embedding   =      -2.53707481 Ry
     cavitation energy         =       0.02498500 Ry
     electrolyte free energy   =      -0.04020452 Ry
     correction to one-el term =     -85.67787443 Ry

     iteration # 29     ecut=    80.00 Ry     beta= 0.20
     Davidson diagonalization with overlap

---- Real-time Memory Report at c_bands before calling an iterative solver
           367 MiB given to the printing process from OS
             0 MiB allocation reported by mallinfo(arena+hblkhd)
        220383 MiB available memory on the node where the printing process lives
------------------
     ethr =  2.71E-09,  avg # of iterations = 11.9

     negative rho (up, down):  3.753E-04 0.000E+00

     add environment contribution to local potential

     total cpu time spent up to now is      598.4 secs

     total energy              =    -300.96572085 Ry
     estimated scf accuracy    <       0.00000054 Ry

     total charge of GC-SCF    =       3.42486361 e
     the Fermi energy          =      -4.92347132 eV
                        (error :       0.01947132 eV)
     electrostatic embedding   =      -2.52452157 Ry
     cavitation energy         =       0.02498500 Ry
     electrolyte free energy   =      -0.04000918 Ry
     correction to one-el term =     -85.46045392 Ry

     iteration # 30     ecut=    80.00 Ry     beta= 0.20
     Davidson diagonalization with overlap

---- Real-time Memory Report at c_bands before calling an iterative solver
           367 MiB given to the printing process from OS
             0 MiB allocation reported by mallinfo(arena+hblkhd)
        220379 MiB available memory on the node where the printing process lives
------------------
     ethr =  9.60E-10,  avg # of iterations =  9.5

     negative rho (up, down):  3.393E-04 0.000E+00

     add environment contribution to local potential

     total cpu time spent up to now is      615.6 secs

     total energy              =    -300.96574947 Ry
     estimated scf accuracy    <       0.00000041 Ry

     total charge of GC-SCF    =       3.41727662 e
     the Fermi energy          =      -4.92005882 eV
                        (error :       0.01605882 eV)
     electrostatic embedding   =      -2.52034887 Ry
     cavitation energy         =       0.02498500 Ry
     electrolyte free energy   =      -0.03994028 Ry
     correction to one-el term =     -85.38981391 Ry

     iteration # 31     ecut=    80.00 Ry     beta= 0.20
     Davidson diagonalization with overlap

---- Real-time Memory Report at c_bands before calling an iterative solver
           367 MiB given to the printing process from OS
             0 MiB allocation reported by mallinfo(arena+hblkhd)
        220384 MiB available memory on the node where the printing process lives
------------------
     ethr =  7.28E-10,  avg # of iterations = 17.8

     negative rho (up, down):  3.311E-04 0.000E+00

     add environment contribution to local potential

     total cpu time spent up to now is      636.3 secs

     total energy              =    -300.96584662 Ry
     estimated scf accuracy    <       0.00000020 Ry

     total charge of GC-SCF    =       3.41393830 e
     the Fermi energy          =      -4.91104425 eV
                        (error :       0.00704425 eV)
     electrostatic embedding   =      -2.50912852 Ry
     cavitation energy         =       0.02498500 Ry
     electrolyte free energy   =      -0.03974997 Ry
     correction to one-el term =     -85.20570075 Ry

     iteration # 32     ecut=    80.00 Ry     beta= 0.20
     Davidson diagonalization with overlap

---- Real-time Memory Report at c_bands before calling an iterative solver
           367 MiB given to the printing process from OS
             0 MiB allocation reported by mallinfo(arena+hblkhd)
        220347 MiB available memory on the node where the printing process lives
------------------
     ethr =  3.55E-10,  avg # of iterations = 11.9

     negative rho (up, down):  3.085E-04 0.000E+00

     add environment contribution to local potential

     total cpu time spent up to now is      654.3 secs

     total energy              =    -300.96588386 Ry
     estimated scf accuracy    <       0.00000013 Ry

     total charge of GC-SCF    =       3.41198928 e
     the Fermi energy          =      -4.90736622 eV
                        (error :       0.00336622 eV)
     electrostatic embedding   =      -2.50415699 Ry
     cavitation energy         =       0.02498500 Ry
     electrolyte free energy   =      -0.03966639 Ry
     correction to one-el term =     -85.12427296 Ry

     iteration # 33     ecut=    80.00 Ry     beta= 0.20
     Davidson diagonalization with overlap

---- Real-time Memory Report at c_bands before calling an iterative solver
           367 MiB given to the printing process from OS
             0 MiB allocation reported by mallinfo(arena+hblkhd)
        220352 MiB available memory on the node where the printing process lives
------------------
     ethr =  2.22E-10,  avg # of iterations = 13.5

     negative rho (up, down):  3.168E-04 0.000E+00

     total cpu time spent up to now is      664.1 secs

     End of self-consistent calculation

          k = 0.0000 0.0000 0.0000 (203379 PWs)   bands (ev):

   -52.9635 -52.9635 -52.9623 -52.9622 -52.4144 -52.4143 -52.4130 -52.4129
   -51.9334 -51.9333 -51.9319 -51.9319 -51.5037 -51.5003 -51.5002 -51.5000
   -51.4053 -51.3991 -51.3991 -51.3956  -7.9773  -6.9021  -6.1081  -5.9827
    -5.6173  -5.5502  -5.5502  -5.0921  -4.5656  -4.5656  -4.4367  -4.0803
    -4.0803  -3.4434  -3.4434  -3.3752  -3.2601  -3.2601  -3.0337  -2.8484
    -2.4408  -1.6784  -1.6784  -1.3112  -1.3112

     occupation numbers 
     1.0000   1.0000   1.0000   1.0000   1.0000   1.0000   1.0000   1.0000
     1.0000   1.0000   1.0000   1.0000   1.0000   1.0000   1.0000   1.0000
     1.0000   1.0000   1.0000   1.0000   1.0000   1.0000   1.0000   1.0000
     1.0000   1.0000   1.0000   1.0830   0.0000   0.0000   0.0000   0.0000
     0.0000   0.0000   0.0000   0.0000   0.0000   0.0000   0.0000   0.0000
     0.0000   0.0000   0.0000   0.0000   0.0000

          k = 0.0000 0.0994 0.0000 (203275 PWs)   bands (ev):

   -52.9635 -52.9635 -52.9623 -52.9622 -52.4144 -52.4143 -52.4130 -52.4129
   -51.9334 -51.9333 -51.9319 -51.9319 -51.5037 -51.5003 -51.5002 -51.5000
   -51.4053 -51.3991 -51.3991 -51.3956  -7.9538  -6.8889  -6.4269  -5.7227
    -5.5637  -5.5299  -5.5299  -5.1656  -4.5876  -4.5876  -4.2743  -4.1555
    -4.1555  -3.5386  -3.4709  -3.4709  -3.1322  -3.1322  -3.1031  -2.6092
    -2.3953  -1.7079  -1.7078  -1.3949  -1.2324

     occupation numbers 
     1.0000   1.0000   1.0000   1.0000   1.0000   1.0000   1.0000   1.0000
     1.0000   1.0000   1.0000   1.0000   1.0000   1.0000   1.0000   1.0000
     1.0000   1.0000   1.0000   1.0000   1.0000   1.0000   1.0000   1.0000
     1.0000   1.0000   1.0000   1.0487   0.0000   0.0000   0.0000   0.0000
     0.0000   0.0000   0.0000   0.0000   0.0000   0.0000   0.0000   0.0000
     0.0000   0.0000   0.0000   0.0000   0.0000

          k = 0.0000 0.1988 0.0000 (203225 PWs)   bands (ev):

   -52.9635 -52.9635 -52.9623 -52.9622 -52.4144 -52.4143 -52.4130 -52.4129
   -51.9334 -51.9333 -51.9319 -51.9319 -51.5037 -51.5003 -51.5002 -51.5000
   -51.4053 -51.3991 -51.3991 -51.3956  -7.8832  -6.9130  -6.6821  -5.8520
    -5.4695  -5.4695  -5.2755  -5.0875  -4.6829  -4.6828  -4.2514  -4.2514
    -3.9791  -3.8150  -3.5321  -3.5321  -3.0670  -2.8800  -2.8800  -2.5962
    -2.0173  -1.7166  -1.7166  -1.5248  -1.1054

     occupation numbers 
     1.0000   1.0000   1.0000   1.0000   1.0000   1.0000   1.0000   1.0000
     1.0000   1.0000   1.0000   1.0000   1.0000   1.0000   1.0000   1.0000
     1.0000   1.0000   1.0000   1.0000   1.0000   1.0000   1.0000   1.0000
     1.0000   1.0000   1.0046   1.0820   0.0022   0.0022   0.0000   0.0000
     0.0000   0.0000   0.0000   0.0000   0.0000   0.0000   0.0000   0.0000
     0.0000   0.0000   0.0000   0.0000   0.0000

          k = 0.0000 0.2981 0.0000 (203169 PWs)   bands (ev):

   -52.9635 -52.9635 -52.9623 -52.9622 -52.4144 -52.4143 -52.4130 -52.4129
   -51.9334 -51.9333 -51.9319 -51.9319 -51.5037 -51.5003 -51.5002 -51.5001
   -51.4053 -51.3991 -51.3991 -51.3956  -7.7659  -7.1427  -6.6459  -6.0733
    -5.3709  -5.3709  -5.2309  -4.8542  -4.8542  -4.6552  -4.2727  -4.2727
    -4.0841  -3.6782  -3.6038  -3.6038  -3.0183  -2.6919  -2.6502  -2.6502
    -1.6647  -1.6409  -1.6409  -1.5048  -1.3335

     occupation numbers 
     1.0000   1.0000   1.0000   1.0000   1.0000   1.0000   1.0000   1.0000
     1.0000   1.0000   1.0000   1.0000   1.0000   1.0000   1.0000   1.0000
     1.0000   1.0000   1.0000   1.0000   1.0000   1.0000   1.0000   1.0000
     1.0002   1.0002   1.0145   0.1880   0.1880   0.0008   0.0000   0.0000
     0.0000   0.0000   0.0000   0.0000   0.0000   0.0000   0.0000   0.0000
     0.0000   0.0000   0.0000   0.0000   0.0000

          k = 0.0000 0.3975 0.0000 (203234 PWs)   bands (ev):

   -52.9635 -52.9635 -52.9623 -52.9622 -52.4144 -52.4143 -52.4130 -52.4129
   -51.9334 -51.9333 -51.9319 -51.9319 -51.5037 -51.5003 -51.5002 -51.5001
   -51.4053 -51.3991 -51.3991 -51.3956  -7.6034  -7.3891  -6.5113  -6.2855
    -5.2447  -5.2447  -5.1923  -5.0322  -5.0322  -4.3141  -4.2631  -4.2631
    -4.2013  -3.6539  -3.6539  -3.5723  -3.0017  -2.7995  -2.5243  -2.5243
    -1.6330  -1.5262  -1.5262  -1.4602  -1.2040

     occupation numbers 
     1.0000   1.0000   1.0000   1.0000   1.0000   1.0000   1.0000   1.0000
     1.0000   1.0000   1.0000   1.0000   1.0000   1.0000   1.0000   1.0000
     1.0000   1.0000   1.0000   1.0000   1.0000   1.0000   1.0000   1.0000
     1.0105   1.0105   1.0318   1.0058   1.0057   0.0000   0.0000   0.0000
     0.0000   0.0000   0.0000   0.0000   0.0000   0.0000   0.0000   0.0000
     0.0000   0.0000   0.0000   0.0000   0.0000

          k = 0.1000 0.0000 0.0000 (203333 PWs)   bands (ev):

   -52.9635 -52.9634 -52.9623 -52.9623 -52.4143 -52.4143 -52.4131 -52.4130
   -51.9334 -51.9333 -51.9320 -51.9319 -51.5036 -51.5006 -51.5000 -51.5000
   -51.4052 -51.3999 -51.3984 -51.3956  -7.9531  -6.8771  -6.0834  -6.0103
    -5.9586  -5.5911  -5.0663  -5.0574  -4.9339  -4.4376  -4.4117  -4.2593
    -3.9596  -3.6204  -3.4320  -3.3540  -3.2192  -3.0800  -3.0064  -2.8305
    -2.4126  -1.6852  -1.6497  -1.3704  -1.2257

     occupation numbers 
     1.0000   1.0000   1.0000   1.0000   1.0000   1.0000   1.0000   1.0000
     1.0000   1.0000   1.0000   1.0000   1.0000   1.0000   1.0000   1.0000
     1.0000   1.0000   1.0000   1.0000   1.0000   1.0000   1.0000   1.0000
     1.0000   1.0000   1.0682   1.0571   0.5555   0.0000   0.0000   0.0000
     0.0000   0.0000   0.0000   0.0000   0.0000   0.0000   0.0000   0.0000
     0.0000   0.0000   0.0000   0.0000   0.0000

          k = 0.1000 0.0994 0.0000 (203258 PWs)   bands (ev):

   -52.9635 -52.9634 -52.9623 -52.9623 -52.4143 -52.4143 -52.4131 -52.4130
   -51.9334 -51.9333 -51.9320 -51.9319 -51.5036 -51.5006 -51.5000 -51.5000
   -51.4052 -51.3999 -51.3984 -51.3956  -7.9296  -6.8638  -6.4025  -5.9886
    -5.6968  -5.5389  -5.1400  -5.0414  -4.9311  -4.6260  -4.2486  -4.1734
    -3.9603  -3.6328  -3.5161  -3.4453  -3.2511  -3.0808  -2.9066  -2.5858
    -2.3690  -1.7195  -1.6066  -1.3943  -1.3770

     occupation numbers 
     1.0000   1.0000   1.0000   1.0000   1.0000   1.0000   1.0000   1.0000
     1.0000   1.0000   1.0000   1.0000   1.0000   1.0000   1.0000   1.0000
     1.0000   1.0000   1.0000   1.0000   1.0000   1.0000   1.0000   1.0000
     1.0000   1.0000   1.0662   1.0280   0.5401   0.0002   0.0000   0.0000
     0.0000   0.0000   0.0000   0.0000   0.0000   0.0000   0.0000   0.0000
     0.0000   0.0000   0.0000   0.0000   0.0000

          k = 0.1000 0.1988 0.0000 (203264 PWs)   bands (ev):

   -52.9635 -52.9634 -52.9623 -52.9623 -52.4143 -52.4143 -52.4131 -52.4130
   -51.9334 -51.9333 -51.9320 -51.9319 -51.5036 -51.5006 -51.5000 -51.5000
   -51.4052 -51.3999 -51.3984 -51.3956  -7.8591  -6.8884  -6.6574  -5.9238
    -5.8262  -5.2505  -5.0617  -5.0307  -4.9670  -4.7917  -4.1970  -4.0411
    -3.9523  -3.7917  -3.6410  -3.4610  -3.0783  -3.0461  -2.6795  -2.5699
    -1.9930  -1.8199  -1.5088  -1.5083  -1.3497

     occupation numbers 
     1.0000   1.0000   1.0000   1.0000   1.0000   1.0000   1.0000   1.0000
     1.0000   1.0000   1.0000   1.0000   1.0000   1.0000   1.0000   1.0000
     1.0000   1.0000   1.0000   1.0000   1.0000   1.0000   1.0000   1.0000
     1.0000   1.0091   1.0629   1.0017   0.7369   0.0523   0.0000   0.0000
     0.0000   0.0000   0.0000   0.0000   0.0000   0.0000   0.0000   0.0000
     0.0000   0.0000   0.0000   0.0000   0.0000

          k = 0.1000 0.2981 0.0000 (203250 PWs)   bands (ev):

   -52.9635 -52.9634 -52.9623 -52.9623 -52.4143 -52.4143 -52.4131 -52.4130
   -51.9334 -51.9333 -51.9320 -51.9319 -51.5036 -51.5006 -51.5000 -51.5000
   -51.4052 -51.3999 -51.3984 -51.3956  -7.7418  -7.1185  -6.6208  -6.0479
    -5.8170  -5.2398  -5.2054  -4.9061  -4.7756  -4.6284  -4.2898  -4.1924
    -4.0610  -3.6498  -3.6364  -3.4479  -2.9980  -2.8203  -2.6663  -2.5092
    -1.8797  -1.6423  -1.4896  -1.3605  -1.3235

     occupation numbers 
     1.0000   1.0000   1.0000   1.0000   1.0000   1.0000   1.0000   1.0000
     1.0000   1.0000   1.0000   1.0000   1.0000   1.0000   1.0000   1.0000
     1.0000   1.0000   1.0000   1.0000   1.0000   1.0000   1.0000   1.0000
     1.0000   1.0118   1.0249   0.4074   0.0353   0.0003   0.0000   0.0000
     0.0000   0.0000   0.0000   0.0000   0.0000   0.0000   0.0000   0.0000
     0.0000   0.0000   0.0000   0.0000   0.0000

          k = 0.1000 0.3975 0.0000 (203200 PWs)   bands (ev):

   -52.9635 -52.9634 -52.9623 -52.9623 -52.4143 -52.4143 -52.4131 -52.4130
   -51.9334 -51.9333 -51.9320 -51.9319 -51.5036 -51.5006 -51.5000 -51.5000
   -51.4052 -51.3999 -51.3984 -51.3956  -7.5793  -7.3648  -6.4861  -6.2603
    -5.6753  -5.4547  -5.1666  -4.8281  -4.7457  -4.3594  -4.3179  -4.2855
    -4.1776  -3.6271  -3.5448  -3.4395  -2.9813  -2.7756  -2.6333  -2.4702
    -1.7304  -1.6146  -1.4508  -1.4231  -1.2601

     occupation numbers 
     1.0000   1.0000   1.0000   1.0000   1.0000   1.0000   1.0000   1.0000
     1.0000   1.0000   1.0000   1.0000   1.0000   1.0000   1.0000   1.0000
     1.0000   1.0000   1.0000   1.0000   1.0000   1.0000   1.0000   1.0000
     1.0000   1.0000   1.0481   0.1156   0.0158   0.0000   0.0000   0.0000
     0.0000   0.0000   0.0000   0.0000   0.0000   0.0000   0.0000   0.0000
     0.0000   0.0000   0.0000   0.0000   0.0000

          k = 0.2000 0.0000 0.0000 (203263 PWs)   bands (ev):

   -52.9634 -52.9633 -52.9624 -52.9623 -52.4142 -52.4142 -52.4131 -52.4131
   -51.9333 -51.9332 -51.9321 -51.9320 -51.5034 -51.5010 -51.5000 -51.4998
   -51.4049 -51.4007 -51.3977 -51.3957  -7.8806  -6.8019  -6.4236  -6.0095
    -5.8864  -5.5127  -5.3365  -4.9891  -4.6663  -4.5671  -4.4928  -4.3372
    -4.0733  -3.5727  -3.5190  -3.2924  -3.0921  -2.9247  -2.8755  -2.7789
    -2.3284  -1.7231  -1.4611  -1.1577  -1.1206

     occupation numbers 
     1.0000   1.0000   1.0000   1.0000   1.0000   1.0000   1.0000   1.0000
     1.0000   1.0000   1.0000   1.0000   1.0000   1.0000   1.0000   1.0000
     1.0000   1.0000   1.0000   1.0000   1.0000   1.0000   1.0000   1.0000
     1.0000   1.0000   1.0007   0.8469   0.0012   0.0000   0.0000   0.0000
     0.0000   0.0000   0.0000   0.0000   0.0000   0.0000   0.0000   0.0000
     0.0000   0.0000   0.0000   0.0000   0.0000

          k = 0.2000 0.0994 0.0000 (203259 PWs)   bands (ev):

   -52.9634 -52.9633 -52.9624 -52.9623 -52.4142 -52.4142 -52.4131 -52.4131
   -51.9333 -51.9332 -51.9321 -51.9320 -51.5034 -51.5010 -51.5000 -51.4998
   -51.4049 -51.4007 -51.3977 -51.3957  -7.8571  -6.7888  -6.4012  -6.3296
    -5.6196  -5.4646  -5.3291  -5.0635  -4.9476  -4.5126  -4.2786  -4.1717
    -4.0867  -3.6836  -3.4503  -3.3912  -3.1358  -3.0153  -2.7830  -2.5172
    -2.2908  -1.7780  -1.4374  -1.3297  -1.2137

     occupation numbers 
     1.0000   1.0000   1.0000   1.0000   1.0000   1.0000   1.0000   1.0000
     1.0000   1.0000   1.0000   1.0000   1.0000   1.0000   1.0000   1.0000
     1.0000   1.0000   1.0000   1.0000   1.0000   1.0000   1.0000   1.0000
     1.0000   1.0000   1.0009   1.0651   0.6316   0.0000   0.0000   0.0000
     0.0000   0.0000   0.0000   0.0000   0.0000   0.0000   0.0000   0.0000
     0.0000   0.0000   0.0000   0.0000   0.0000

          k = 0.2000 0.1988 0.0000 (203186 PWs)   bands (ev):

   -52.9634 -52.9633 -52.9624 -52.9623 -52.4142 -52.4142 -52.4131 -52.4131
   -51.9333 -51.9332 -51.9321 -51.9320 -51.5034 -51.5010 -51.5000 -51.4998
   -51.4049 -51.4008 -51.3977 -51.3957  -7.7866  -6.8147  -6.5833  -6.3340
    -5.7491  -5.3884  -5.1758  -5.1500  -4.9848  -4.5358  -4.2492  -3.9491
    -3.8723  -3.7228  -3.7076  -3.3077  -3.1224  -2.9849  -2.6072  -2.4917
    -1.9228  -1.8954  -1.4808  -1.4649  -1.1387

     occupation numbers 
     1.0000   1.0000   1.0000   1.0000   1.0000   1.0000   1.0000   1.0000
     1.0000   1.0000   1.0000   1.0000   1.0000   1.0000   1.0000   1.0000
     1.0000   1.0000   1.0000   1.0000   1.0000   1.0000   1.0000   1.0000
     1.0000   1.0001   1.0419   1.0595   0.8267   0.0000   0.0000   0.0000
     0.0000   0.0000   0.0000   0.0000   0.0000   0.0000   0.0000   0.0000
     0.0000   0.0000   0.0000   0.0000   0.0000

          k = 0.2000 0.2981 0.0000 (203209 PWs)   bands (ev):

   -52.9634 -52.9633 -52.9624 -52.9623 -52.4142 -52.4142 -52.4131 -52.4131
   -51.9333 -51.9332 -51.9321 -51.9320 -51.5034 -51.5010 -51.5000 -51.4998
   -51.4049 -51.4008 -51.3977 -51.3957  -7.6693  -7.0458  -6.5456  -6.2229
    -5.9718  -5.6219  -5.1292  -5.1050  -4.6489  -4.5484  -4.2631  -3.9925
    -3.9266  -3.6345  -3.5649  -3.2656  -2.9389  -2.9315  -2.5906  -2.4646
    -1.9952  -1.5848  -1.5242  -1.4491  -1.2958

     occupation numbers 
     1.0000   1.0000   1.0000   1.0000   1.0000   1.0000   1.0000   1.0000
     1.0000   1.0000   1.0000   1.0000   1.0000   1.0000   1.0000   1.0000
     1.0000   1.0000   1.0000   1.0000   1.0000   1.0000   1.0000   1.0000
     1.0000   1.0000   1.0729   1.0826   0.0006   0.0000   0.0000   0.0000
     0.0000   0.0000   0.0000   0.0000   0.0000   0.0000   0.0000   0.0000
     0.0000   0.0000   0.0000   0.0000   0.0000

          k = 0.2000 0.3975 0.0000 (203166 PWs)   bands (ev):

   -52.9634 -52.9633 -52.9624 -52.9623 -52.4142 -52.4142 -52.4131 -52.4131
   -51.9333 -51.9332 -51.9321 -51.9320 -51.5034 -51.5010 -51.5000 -51.4998
   -51.4049 -51.4008 -51.3977 -51.3957  -7.5071  -7.2921  -6.4106  -6.1850
    -6.0731  -5.8515  -5.0898  -4.9877  -4.8085  -4.2293  -4.2006  -4.1066
    -3.9704  -3.6094  -3.4630  -3.2355  -2.9215  -2.7056  -2.6592  -2.4657
    -2.0053  -1.5698  -1.5512  -1.4283  -1.1771

     occupation numbers 
     1.0000   1.0000   1.0000   1.0000   1.0000   1.0000   1.0000   1.0000
     1.0000   1.0000   1.0000   1.0000   1.0000   1.0000   1.0000   1.0000
     1.0000   1.0000   1.0000   1.0000   1.0000   1.0000   1.0000   1.0000
     1.0000   1.0000   1.0826   0.8402   0.0767   0.0000   0.0000   0.0000
     0.0000   0.0000   0.0000   0.0000   0.0000   0.0000   0.0000   0.0000
     0.0000   0.0000   0.0000   0.0000   0.0000

          k = 0.3000 0.0000 0.0000 (203139 PWs)   bands (ev):

   -52.9633 -52.9632 -52.9625 -52.9625 -52.4141 -52.4140 -52.4133 -52.4132
   -51.9331 -51.9330 -51.9323 -51.9322 -51.5032 -51.5014 -51.4999 -51.4998
   -51.4045 -51.4016 -51.3972 -51.3958  -7.7596  -6.7886  -6.6769  -5.8871
    -5.7669  -5.6930  -5.3828  -4.9630  -4.8620  -4.8565  -4.3932  -4.2151
    -4.1044  -3.6494  -3.4639  -3.1963  -2.8773  -2.7908  -2.7575  -2.7023
    -2.1894  -1.6054  -1.5849  -1.1582  -1.1395

     occupation numbers 
     1.0000   1.0000   1.0000   1.0000   1.0000   1.0000   1.0000   1.0000
     1.0000   1.0000   1.0000   1.0000   1.0000   1.0000   1.0000   1.0000
     1.0000   1.0000   1.0000   1.0000   1.0000   1.0000   1.0000   1.0000
     1.0000   1.0000   1.0001   0.7154   0.2148   0.1958   0.0000   0.0000
     0.0000   0.0000   0.0000   0.0000   0.0000   0.0000   0.0000   0.0000
     0.0000   0.0000   0.0000   0.0000   0.0000

          k = 0.3000 0.0994 0.0000 (203174 PWs)   bands (ev):

   -52.9633 -52.9632 -52.9625 -52.9625 -52.4141 -52.4140 -52.4133 -52.4132
   -51.9331 -51.9330 -51.9323 -51.9322 -51.5032 -51.5014 -51.4999 -51.4998
   -51.4045 -51.4016 -51.3972 -51.3958  -7.7361  -6.7657  -6.6640  -6.2087
    -5.6831  -5.4918  -5.3418  -5.2730  -4.9373  -4.5442  -4.4343  -4.1158
    -4.0458  -3.6959  -3.3464  -3.2888  -2.9156  -2.9123  -2.7583  -2.4090
    -2.1639  -1.7794  -1.4262  -1.3064  -1.1400

     occupation numbers 
     1.0000   1.0000   1.0000   1.0000   1.0000   1.0000   1.0000   1.0000
     1.0000   1.0000   1.0000   1.0000   1.0000   1.0000   1.0000   1.0000
     1.0000   1.0000   1.0000   1.0000   1.0000   1.0000   1.0000   1.0000
     1.0000   1.0000   1.0006   1.0050   0.5747   0.0000   0.0000   0.0000
     0.0000   0.0000   0.0000   0.0000   0.0000   0.0000   0.0000   0.0000
     0.0000   0.0000   0.0000   0.0000   0.0000

          k = 0.3000 0.1988 0.0000 (203207 PWs)   bands (ev):

   -52.9633 -52.9632 -52.9625 -52.9625 -52.4141 -52.4140 -52.4133 -52.4132
   -51.9331 -51.9330 -51.9323 -51.9322 -51.5031 -51.5014 -51.4999 -51.4998
   -51.4045 -51.4016 -51.3972 -51.3958  -7.6657  -6.6971  -6.6922  -6.4602
    -5.7328  -5.6214  -5.4949  -5.0527  -4.8581  -4.6697  -4.2232  -3.9734
    -3.7417  -3.6906  -3.6111  -3.0846  -2.9841  -2.8902  -2.7013  -2.3646
    -1.9374  -1.8203  -1.4362  -1.3617  -1.1536

     occupation numbers 
     1.0000   1.0000   1.0000   1.0000   1.0000   1.0000   1.0000   1.0000
     1.0000   1.0000   1.0000   1.0000   1.0000   1.0000   1.0000   1.0000
     1.0000   1.0000   1.0000   1.0000   1.0000   1.0000   1.0000   1.0000
     1.0000   1.0000   1.0000   1.0499   0.2012   0.0013   0.0000   0.0000
     0.0000   0.0000   0.0000   0.0000   0.0000   0.0000   0.0000   0.0000
     0.0000   0.0000   0.0000   0.0000   0.0000

          k = 0.3000 0.2981 0.0000 (203169 PWs)   bands (ev):

   -52.9633 -52.9632 -52.9625 -52.9625 -52.4141 -52.4140 -52.4133 -52.4132
   -51.9331 -51.9330 -51.9323 -51.9322 -51.5031 -51.5014 -51.4999 -51.4998
   -51.4045 -51.4016 -51.3972 -51.3958  -7.5486  -6.9250  -6.5834  -6.4207
    -5.9706  -5.8459  -5.4466  -5.0034  -4.8972  -4.4171  -4.1608  -3.8813
    -3.6461  -3.6166  -3.4249  -3.1573  -2.9397  -2.8483  -2.4697  -2.4575
    -2.1049  -1.5569  -1.4232  -1.4023  -1.2432

     occupation numbers 
     1.0000   1.0000   1.0000   1.0000   1.0000   1.0000   1.0000   1.0000
     1.0000   1.0000   1.0000   1.0000   1.0000   1.0000   1.0000   1.0000
     1.0000   1.0000   1.0000   1.0000   1.0000   1.0000   1.0000   1.0000
     1.0000   1.0000   1.0000   0.9090   0.3635   0.0000   0.0000   0.0000
     0.0000   0.0000   0.0000   0.0000   0.0000   0.0000   0.0000   0.0000
     0.0000   0.0000   0.0000   0.0000   0.0000

          k = 0.3000 0.3975 0.0000 (203179 PWs)   bands (ev):

   -52.9633 -52.9632 -52.9625 -52.9625 -52.4141 -52.4140 -52.4133 -52.4132
   -51.9331 -51.9330 -51.9323 -51.9322 -51.5031 -51.5014 -51.4999 -51.4998
   -51.4045 -51.4016 -51.3972 -51.3958  -7.3868  -7.1710  -6.4287  -6.2853
    -6.2078  -6.0600  -5.3161  -5.1055  -4.9633  -4.1335  -4.0635  -3.9879
    -3.5683  -3.4586  -3.3306  -3.1920  -2.8332  -2.8276  -2.5969  -2.3197
    -2.1887  -1.5564  -1.5255  -1.4000  -1.3480

     occupation numbers 
     1.0000   1.0000   1.0000   1.0000   1.0000   1.0000   1.0000   1.0000
     1.0000   1.0000   1.0000   1.0000   1.0000   1.0000   1.0000   1.0000
     1.0000   1.0000   1.0000   1.0000   1.0000   1.0000   1.0000   1.0000
     1.0000   1.0000   1.0013   1.0825   0.7173   0.0000   0.0000   0.0000
     0.0000   0.0000   0.0000   0.0000   0.0000   0.0000   0.0000   0.0000
     0.0000   0.0000   0.0000   0.0000   0.0000

          k = 0.4000 0.0000 0.0000 (203087 PWs)   bands (ev):

   -52.9631 -52.9630 -52.9627 -52.9626 -52.4139 -52.4138 -52.4135 -52.4134
   -51.9329 -51.9328 -51.9325 -51.9324 -51.5028 -51.5019 -51.4998 -51.4997
   -51.4039 -51.4024 -51.3967 -51.3960  -7.5900  -7.1046  -6.5025  -6.0088
    -5.7177  -5.6011  -5.2491  -5.2026  -5.1408  -4.7017  -4.6877  -4.2348
    -4.0495  -3.6339  -3.2096  -3.0794  -2.7388  -2.6489  -2.6206  -2.6174
    -1.9984  -1.9362  -1.6331  -1.5264  -1.1421

     occupation numbers 
     1.0000   1.0000   1.0000   1.0000   1.0000   1.0000   1.0000   1.0000
     1.0000   1.0000   1.0000   1.0000   1.0000   1.0000   1.0000   1.0000
     1.0000   1.0000   1.0000   1.0000   1.0000   1.0000   1.0000   1.0000
     1.0000   1.0000   1.0094   1.0263   1.0657   0.0041   0.0026   0.0000
     0.0000   0.0000   0.0000   0.0000   0.0000   0.0000   0.0000   0.0000
     0.0000   0.0000   0.0000   0.0000   0.0000

          k = 0.4000 0.0994 0.0000 (203147 PWs)   bands (ev):

   -52.9631 -52.9630 -52.9627 -52.9626 -52.4139 -52.4138 -52.4135 -52.4134
   -51.9329 -51.9328 -51.9325 -51.9324 -51.5028 -51.5019 -51.4998 -51.4997
   -51.4039 -51.4024 -51.3967 -51.3960  -7.5666  -7.0815  -6.4899  -6.0405
    -5.9976  -5.5692  -5.3150  -5.1721  -4.8304  -4.7641  -4.7066  -4.3063
    -3.8748  -3.4522  -3.2310  -3.2171  -2.7873  -2.7749  -2.6842  -2.2802
    -2.0120  -1.8860  -1.6264  -1.5011  -1.1750

     occupation numbers 
     1.0000   1.0000   1.0000   1.0000   1.0000   1.0000   1.0000   1.0000
     1.0000   1.0000   1.0000   1.0000   1.0000   1.0000   1.0000   1.0000
     1.0000   1.0000   1.0000   1.0000   1.0000   1.0000   1.0000   1.0000
     1.0000   1.0000   1.0014   1.0444   0.1210   0.0261   0.0048   0.0000
     0.0000   0.0000   0.0000   0.0000   0.0000   0.0000   0.0000   0.0000
     0.0000   0.0000   0.0000   0.0000   0.0000

          k = 0.4000 0.1988 0.0000 (203116 PWs)   bands (ev):

   -52.9631 -52.9630 -52.9627 -52.9626 -52.4139 -52.4138 -52.4135 -52.4134
   -51.9329 -51.9328 -51.9325 -51.9324 -51.5028 -51.5019 -51.4998 -51.4997
   -51.4039 -51.4024 -51.3967 -51.3960  -7.4963  -7.0120  -6.5214  -6.2885
    -6.0396  -5.8036  -5.4446  -4.9575  -4.8838  -4.6842  -4.4374  -4.2204
    -3.5676  -3.4623  -3.3092  -3.1018  -2.8637  -2.7783  -2.7022  -2.1997
    -1.8682  -1.8207  -1.5751  -1.4673  -1.2481

     occupation numbers 
     1.0000   1.0000   1.0000   1.0000   1.0000   1.0000   1.0000   1.0000
     1.0000   1.0000   1.0000   1.0000   1.0000   1.0000   1.0000   1.0000
     1.0000   1.0000   1.0000   1.0000   1.0000   1.0000   1.0000   1.0000
     1.0000   1.0000   1.0000   0.6860   0.3016   0.0023   0.0000   0.0000
     0.0000   0.0000   0.0000   0.0000   0.0000   0.0000   0.0000   0.0000
     0.0000   0.0000   0.0000   0.0000   0.0000

          k = 0.4000 0.2981 0.0000 (203047 PWs)   bands (ev):

   -52.9631 -52.9630 -52.9627 -52.9626 -52.4139 -52.4138 -52.4135 -52.4134
   -51.9329 -51.9328 -51.9325 -51.9324 -51.5028 -51.5019 -51.4998 -51.4997
   -51.4039 -51.4024 -51.3967 -51.3960  -7.3796  -6.8968  -6.7563  -6.2777
    -6.2467  -5.7566  -5.6712  -5.1882  -4.8308  -4.3749  -4.2383  -3.7892
    -3.7335  -3.4304  -3.2328  -2.9282  -2.7975  -2.7446  -2.6484  -2.3261
    -2.0060  -1.7562  -1.4885  -1.3990  -1.3097

     occupation numbers 
     1.0000   1.0000   1.0000   1.0000   1.0000   1.0000   1.0000   1.0000
     1.0000   1.0000   1.0000   1.0000   1.0000   1.0000   1.0000   1.0000
     1.0000   1.0000   1.0000   1.0000   1.0000   1.0000   1.0000   1.0000
     1.0000   1.0000   1.0000   1.0342   0.1219   0.0000   0.0000   0.0000
     0.0000   0.0000   0.0000   0.0000   0.0000   0.0000   0.0000   0.0000
     0.0000   0.0000   0.0000   0.0000   0.0000

          k = 0.4000 0.3975 0.0000 (203101 PWs)   bands (ev):

   -52.9631 -52.9630 -52.9627 -52.9626 -52.4139 -52.4138 -52.4135 -52.4134
   -51.9329 -51.9328 -51.9325 -51.9324 -51.5028 -51.5019 -51.4998 -51.4997
   -51.4039 -51.4024 -51.3967 -51.3960  -7.2185  -7.0017  -6.7389  -6.5194
    -6.1109  -5.8864  -5.6221  -5.4029  -4.7900  -4.3369  -3.8878  -3.8160
    -3.5218  -3.3563  -3.1586  -3.0404  -2.7647  -2.7136  -2.4745  -2.4422
    -2.1747  -1.7109  -1.5602  -1.4098  -1.3230

     occupation numbers 
     1.0000   1.0000   1.0000   1.0000   1.0000   1.0000   1.0000   1.0000
     1.0000   1.0000   1.0000   1.0000   1.0000   1.0000   1.0000   1.0000
     1.0000   1.0000   1.0000   1.0000   1.0000   1.0000   1.0000   1.0000
     1.0000   1.0000   1.0000   1.0000   0.0502   0.0000   0.0000   0.0000
     0.0000   0.0000   0.0000   0.0000   0.0000   0.0000   0.0000   0.0000
     0.0000   0.0000   0.0000   0.0000   0.0000

          k =-0.5000 0.0000 0.0000 (203092 PWs)   bands (ev):

   -52.9629 -52.9629 -52.9629 -52.9628 -52.4137 -52.4137 -52.4136 -52.4136
   -51.9327 -51.9327 -51.9326 -51.9326 -51.5024 -51.5023 -51.4998 -51.4998
   -51.4032 -51.4032 -51.3963 -51.3963  -7.3718  -7.3718  -6.2794  -6.2794
    -5.5036  -5.5036  -5.3912  -5.3912  -4.9742  -4.9742  -4.4726  -4.4726
    -3.8490  -3.8490  -2.9843  -2.9843  -2.5770  -2.5770  -2.5529  -2.5529
    -2.0951  -2.0951  -1.7636  -1.7636  -0.7815

     occupation numbers 
     1.0000   1.0000   1.0000   1.0000   1.0000   1.0000   1.0000   1.0000
     1.0000   1.0000   1.0000   1.0000   1.0000   1.0000   1.0000   1.0000
     1.0000   1.0000   1.0000   1.0000   1.0000   1.0000   1.0000   1.0000
     1.0000   1.0000   1.0001   1.0001   0.7743   0.7743   0.0000   0.0000
     0.0000   0.0000   0.0000   0.0000   0.0000   0.0000   0.0000   0.0000
     0.0000   0.0000   0.0000   0.0000   0.0000

          k =-0.5000 0.0994 0.0000 (203092 PWs)   bands (ev):

   -52.9629 -52.9629 -52.9629 -52.9628 -52.4137 -52.4137 -52.4136 -52.4136
   -51.9327 -51.9327 -51.9326 -51.9326 -51.5024 -51.5023 -51.4998 -51.4998
   -51.4032 -51.4032 -51.3963 -51.3963  -7.3484  -7.3484  -6.2673  -6.2673
    -5.8266  -5.8266  -5.0924  -5.0924  -4.9585  -4.9584  -4.5491  -4.5491
    -3.6683  -3.6683  -3.1005  -3.1005  -2.6841  -2.6841  -2.4073  -2.4073
    -2.0383  -2.0383  -1.7140  -1.7140  -0.9260

     occupation numbers 
     1.0000   1.0000   1.0000   1.0000   1.0000   1.0000   1.0000   1.0000
     1.0000   1.0000   1.0000   1.0000   1.0000   1.0000   1.0000   1.0000
     1.0000   1.0000   1.0000   1.0000   1.0000   1.0000   1.0000   1.0000
     1.0000   1.0000   1.0830   1.0830   0.6910   0.6910   0.0000   0.0000
     0.0000   0.0000   0.0000   0.0000   0.0000   0.0000   0.0000   0.0000
     0.0000   0.0000   0.0000   0.0000   0.0000

          k =-0.5000 0.1988 0.0000 (202990 PWs)   bands (ev):

   -52.9629 -52.9629 -52.9629 -52.9628 -52.4137 -52.4137 -52.4136 -52.4136
   -51.9327 -51.9327 -51.9326 -51.9326 -51.5024 -51.5023 -51.4998 -51.4998
   -51.4032 -51.4032 -51.3963 -51.3963  -7.2785  -7.2785  -6.3034  -6.3034
    -6.0692  -6.0692  -5.2214  -5.2214  -4.6744  -4.6744  -4.4681  -4.4681
    -3.3766  -3.3766  -3.2834  -3.2834  -2.6907  -2.6907  -2.3704  -2.3704
    -1.9838  -1.9837  -1.5279  -1.5279  -1.1068

     occupation numbers 
     1.0000   1.0000   1.0000   1.0000   1.0000   1.0000   1.0000   1.0000
     1.0000   1.0000   1.0000   1.0000   1.0000   1.0000   1.0000   1.0000
     1.0000   1.0000   1.0000   1.0000   1.0000   1.0000   1.0000   1.0000
     1.0000   1.0000   1.0179   1.0179   0.0016   0.0016   0.0000   0.0000
[...]
     1.0000   1.0000   1.0000   1.0000   1.0000   1.0000   1.0000   1.0000
     1.0000   1.0000   1.0000   1.0000   0.0001   0.0001   0.0000   0.0000
     0.0000   0.0000   0.0000   0.0000   0.0000   0.0000   0.0000   0.0000
     0.0000   0.0000   0.0000   0.0000   0.0000

     the Fermi energy is    -4.9040 ev

!    total energy              =    -300.96609951 Ry
     total all-electron energy =      -300.966262 Ry
     estimated scf accuracy    <          3.4E-13 Ry

!    total charge of GC-SCF    =       3.42204415 e
     smearing contrib. (-TS)   =       0.00003379 Ry
     internal energy E=F+TS    =    -300.96613330 Ry

     The total energy is F=E-TS. E is the sum of the following terms:
     one-electron contribution =   -2396.79093127 Ry
     hartree contribution      =    1160.21766681 Ry
     xc contribution           =     -70.07774020 Ry
     ewald contribution        =    1092.44112937 Ry
     one-center paw contrib.   =       1.77351631 Ry
      -> PAW hartree energy AE =       7.32922871 Ry
      -> PAW hartree energy PS =      -7.10611401 Ry
      -> PAW xc energy AE      =      -3.46628595 Ry
      -> PAW xc energy PS      =       3.33155291 Ry
      -> total E_H with PAW    =    1160.44078150 Ry
      -> total E_XC with PAW   =     -70.21247324 Ry
     pot.stat. contrib. (-muN) =      -1.23343253 Ry
     electrostatic embedding   =      -2.50177911 Ry
     cavitation energy         =       0.02503418 Ry
     electrolyte free energy   =      -0.04015342 Ry
     correction to one-el term =     -84.77944344 Ry

     WARNING: you are using the parabolic pbc correction;
              the potential shift above must be added to 
              band and Fermi energies.

     convergence has been achieved in  12 iterations
     The dielectric solvent contribution to forces
     atom    1 type  1   force =     0.00000000    0.00911896    0.06005848
     atom    2 type  1   force =     0.00000000   -0.00654431    0.00696381
     atom    3 type  1   force =     0.00000000   -0.00868142   -0.02059775
     atom    4 type  1   force =     0.00000000    0.03417640   -0.01973023
     atom    5 type  1   force =     0.00000000    0.02329693   -0.07837540
     atom    6 type  1   force =     0.00000004    0.00654393   -0.00696356
     atom    7 type  1   force =    -0.00000029   -0.00911892   -0.06005840
     atom    8 type  1   force =    -0.00000019   -0.02329623    0.07837556
     atom    9 type  1   force =     0.00000006   -0.03417709    0.01972935
     atom   10 type  1   force =    -0.00000009    0.00868185    0.02059760
     atom   11 type  1   force =    -0.00000000    0.00911921    0.06005846
     atom   12 type  1   force =    -0.00000000   -0.00654446    0.00696386
     atom   13 type  1   force =    -0.00000000   -0.00868148   -0.02059784
     atom   14 type  1   force =    -0.00000000    0.03417637   -0.01972926
     atom   15 type  1   force =    -0.00000000    0.02329672   -0.07837775
     atom   16 type  1   force =    -0.00000004    0.00654393   -0.00696356
     atom   17 type  1   force =     0.00000029   -0.00911892   -0.06005840
     atom   18 type  1   force =     0.00000019   -0.02329623    0.07837556
     atom   19 type  1   force =    -0.00000006   -0.03417709    0.01972935
     atom   20 type  1   force =     0.00000009    0.00868184    0.02059760


     Forces acting on atoms (cartesian axes, Ry/au):

     atom    1 type  1   force =     0.00000000    0.00020925   -0.00006874
     atom    2 type  1   force =     0.00000000    0.00033401   -0.00007898
     atom    3 type  1   force =     0.00000000    0.00018836    0.00007954
     atom    4 type  1   force =     0.00000000   -0.00009367   -0.00016751
     atom    5 type  1   force =     0.00000000    0.00020018    0.00009440
     atom    6 type  1   force =     0.00000127   -0.00033386    0.00007808
     atom    7 type  1   force =    -0.00000046   -0.00020961    0.00006926
     atom    8 type  1   force =    -0.00000006   -0.00020078   -0.00009442
     atom    9 type  1   force =     0.00000006    0.00009321    0.00016754
     atom   10 type  1   force =    -0.00000047   -0.00018792   -0.00007921
     atom   11 type  1   force =     0.00000000    0.00020982   -0.00006916
     atom   12 type  1   force =     0.00000000    0.00033280   -0.00007915
     atom   13 type  1   force =     0.00000000    0.00019117    0.00007921
     atom   14 type  1   force =     0.00000000   -0.00009422   -0.00016651
     atom   15 type  1   force =     0.00000000    0.00020021    0.00009439
     atom   16 type  1   force =    -0.00000127   -0.00033386    0.00007808
     atom   17 type  1   force =     0.00000046   -0.00020961    0.00006926
     atom   18 type  1   force =     0.00000006   -0.00020078   -0.00009442
     atom   19 type  1   force =    -0.00000006    0.00009321    0.00016754
     atom   20 type  1   force =     0.00000047   -0.00018792   -0.00007921
     The non-local contrib.  to forces
     atom    1 type  1   force =     0.00000000    0.00076487    0.05224706
     atom    2 type  1   force =     0.00000000    0.00640574   -0.00147828
     atom    3 type  1   force =     0.00000000    0.00198957    0.00009592
     atom    4 type  1   force =     0.00000000    0.02163132   -0.07676654
     atom    5 type  1   force =     0.00000000    0.01503045    0.06625012
     atom    6 type  1   force =     0.00000212   -0.00640503    0.00147736
     atom    7 type  1   force =    -0.00000100   -0.00076543   -0.05224613
     atom    8 type  1   force =    -0.00000011   -0.01502947   -0.06624972
     atom    9 type  1   force =     0.00000026   -0.02163318    0.07676604
     atom   10 type  1   force =    -0.00000089   -0.00198905   -0.00009582
     atom   11 type  1   force =     0.00000000    0.00076574    0.05224604
     atom   12 type  1   force =     0.00000000    0.00640393   -0.00147759
     atom   13 type  1   force =     0.00000000    0.00199220    0.00009481
     atom   14 type  1   force =     0.00000000    0.02163073   -0.07676494
     atom   15 type  1   force =     0.00000000    0.01503014    0.06624962
     atom   16 type  1   force =    -0.00000212   -0.00640503    0.00147736
     atom   17 type  1   force =     0.00000100   -0.00076543   -0.05224613
     atom   18 type  1   force =     0.00000011   -0.01502947   -0.06624972
     atom   19 type  1   force =    -0.00000026   -0.02163318    0.07676604
     atom   20 type  1   force =     0.00000089   -0.00198905   -0.00009582
     The ionic contribution  to forces
     atom    1 type  1   force =    -0.00000002    0.01239157    4.38494406
     atom    2 type  1   force =    -0.00000002    0.04325302    1.37454537
     atom    3 type  1   force =    -0.00000003   -0.12118985   -3.02242821
     atom    4 type  1   force =    -0.00000001    0.29564548   -6.90870140
     atom    5 type  1   force =    -0.00000000    0.19188651    8.07116220
     atom    6 type  1   force =     0.00003334   -0.04326830   -1.37453777
     atom    7 type  1   force =    -0.00001111   -0.01240229   -4.38496569
     atom    8 type  1   force =    -0.00000134   -0.19187179   -8.07116174
     atom    9 type  1   force =     0.00000313   -0.29566961    6.90870496
     atom   10 type  1   force =    -0.00001195    0.12121308    3.02242692
     atom   11 type  1   force =     0.00000001    0.01240929    4.38493172
     atom   12 type  1   force =     0.00000001    0.04321801    1.37454716
     atom   13 type  1   force =     0.00000002   -0.12113570   -3.02241144
     atom   14 type  1   force =     0.00000001    0.29563376   -6.90870151
     atom   15 type  1   force =     0.00000000    0.19188573    8.07117874
     atom   16 type  1   force =    -0.00003333   -0.04326830   -1.37453779
     atom   17 type  1   force =     0.00001112   -0.01240228   -4.38496566
     atom   18 type  1   force =     0.00000134   -0.19187179   -8.07116171
     atom   19 type  1   force =    -0.00000313   -0.29566961    6.90870494
     atom   20 type  1   force =     0.00001196    0.12121308    3.02242687
     The local contribution  to forces
     atom    1 type  1   force =     0.00000350   -0.02206621   -4.49731694
     atom    2 type  1   force =     0.00000348   -0.04278043   -1.38010766
     atom    3 type  1   force =     0.00000291    0.12806859    3.04300594
     atom    4 type  1   force =     0.00000408   -0.35154631    7.00502938
     atom    5 type  1   force =     0.00000408   -0.23000922   -8.05894041
     atom    6 type  1   force =    -0.00002952    0.04279523    1.38009946
     atom    7 type  1   force =     0.00001638    0.02207706    4.49733840
     atom    8 type  1   force =     0.00000629    0.22999206    8.05893997
     atom    9 type  1   force =     0.00000074    0.35157239   -7.00503176
     atom   10 type  1   force =     0.00001690   -0.12809234   -3.04300497
     atom   11 type  1   force =     0.00000442   -0.02208449   -4.49730396
     atom   12 type  1   force =     0.00000440   -0.04274465   -1.38011038
     atom   13 type  1   force =     0.00000558    0.12801463    3.04299005
     atom   14 type  1   force =     0.00000500   -0.35153453    7.00502793
     atom   15 type  1   force =     0.00000384   -0.23000789   -8.05895415
     atom   16 type  1   force =     0.00003891    0.04279581    1.38010006
     atom   17 type  1   force =    -0.00000755    0.02207706    4.49733779
     atom   18 type  1   force =     0.00000313    0.22999265    8.05893879
     atom   19 type  1   force =     0.00000751    0.35157239   -7.00503116
     atom   20 type  1   force =    -0.00000808   -0.12809234   -3.04300376
     The core correction contribution to forces
     atom    1 type  1   force =     0.00000000    0.00000000    0.00000000
     atom    2 type  1   force =     0.00000000    0.00000000    0.00000000
     atom    3 type  1   force =     0.00000000    0.00000000    0.00000000
     atom    4 type  1   force =     0.00000000    0.00000000    0.00000000
     atom    5 type  1   force =     0.00000000    0.00000000    0.00000000
     atom    6 type  1   force =     0.00000000    0.00000000    0.00000000
     atom    7 type  1   force =     0.00000000    0.00000000    0.00000000
     atom    8 type  1   force =     0.00000000    0.00000000    0.00000000
     atom    9 type  1   force =     0.00000000    0.00000000    0.00000000
     atom   10 type  1   force =     0.00000000    0.00000000    0.00000000
     atom   11 type  1   force =     0.00000000    0.00000000    0.00000000
     atom   12 type  1   force =     0.00000000    0.00000000    0.00000000
     atom   13 type  1   force =     0.00000000    0.00000000    0.00000000
     atom   14 type  1   force =     0.00000000    0.00000000    0.00000000
     atom   15 type  1   force =     0.00000000    0.00000000    0.00000000
     atom   16 type  1   force =     0.00000000    0.00000000    0.00000000
     atom   17 type  1   force =     0.00000000    0.00000000    0.00000000
     atom   18 type  1   force =     0.00000000    0.00000000    0.00000000
     atom   19 type  1   force =     0.00000000    0.00000000    0.00000000
     atom   20 type  1   force =     0.00000000    0.00000000    0.00000000
     The Hubbard contrib.    to forces
     atom    1 type  1   force =     0.00000000    0.00000000    0.00000000
     atom    2 type  1   force =     0.00000000    0.00000000    0.00000000
     atom    3 type  1   force =     0.00000000    0.00000000    0.00000000
     atom    4 type  1   force =     0.00000000    0.00000000    0.00000000
     atom    5 type  1   force =     0.00000000    0.00000000    0.00000000
     atom    6 type  1   force =     0.00000000    0.00000000    0.00000000
     atom    7 type  1   force =     0.00000000    0.00000000    0.00000000
     atom    8 type  1   force =     0.00000000    0.00000000    0.00000000
     atom    9 type  1   force =     0.00000000    0.00000000    0.00000000
     atom   10 type  1   force =     0.00000000    0.00000000    0.00000000
     atom   11 type  1   force =     0.00000000    0.00000000    0.00000000
     atom   12 type  1   force =     0.00000000    0.00000000    0.00000000
     atom   13 type  1   force =     0.00000000    0.00000000    0.00000000
     atom   14 type  1   force =     0.00000000    0.00000000    0.00000000
     atom   15 type  1   force =     0.00000000    0.00000000    0.00000000
     atom   16 type  1   force =     0.00000000    0.00000000    0.00000000
     atom   17 type  1   force =     0.00000000    0.00000000    0.00000000
     atom   18 type  1   force =     0.00000000    0.00000000    0.00000000
     atom   19 type  1   force =     0.00000000    0.00000000    0.00000000
     atom   20 type  1   force =     0.00000000    0.00000000    0.00000000
     The SCF correction term to forces
     atom    1 type  1   force =    -0.00000000    0.00000006   -0.00000140
     atom    2 type  1   force =     0.00000000   -0.00000001   -0.00000222
     atom    3 type  1   force =    -0.00000000    0.00000146    0.00000364
     atom    4 type  1   force =    -0.00000000   -0.00000058    0.00000128
     atom    5 type  1   force =    -0.00000000   -0.00000449   -0.00000211
     atom    6 type  1   force =     0.00000000    0.00000001    0.00000231
     atom    7 type  1   force =    -0.00000001   -0.00000004    0.00000138
     atom    8 type  1   force =     0.00000000    0.00000435    0.00000209
     atom    9 type  1   force =    -0.00000001    0.00000070   -0.00000134
     atom   10 type  1   force =    -0.00000002   -0.00000146   -0.00000352
     atom   11 type  1   force =     0.00000000    0.00000006   -0.00000141
     atom   12 type  1   force =    -0.00000000   -0.00000003   -0.00000221
     atom   13 type  1   force =     0.00000000    0.00000150    0.00000362
     atom   14 type  1   force =     0.00000000   -0.00000056    0.00000127
     atom   15 type  1   force =     0.00000000   -0.00000449   -0.00000208
     atom   16 type  1   force =    -0.00000000    0.00000001    0.00000231
     atom   17 type  1   force =     0.00000001   -0.00000004    0.00000138
     atom   18 type  1   force =    -0.00000000    0.00000435    0.00000209
     atom   19 type  1   force =     0.00000001    0.00000070   -0.00000134
     atom   20 type  1   force =     0.00000002   -0.00000146   -0.00000352

     Total force =     0.001084     Total SCF correction =     0.000014
     Energy error            =      4.7E-06 Ry
     Gradient error          =      3.3E-04 Ry/Bohr

     bfgs converged in  71 scf cycles and  47 bfgs steps
     (criteria: energy <  1.0E-05 Ry, force <  3.9E-04 Ry/Bohr)

     End of BFGS Geometry Optimization

     Final energy             =    -300.9660995094 Ry

     File ./Li/Lithium.bfgs deleted, as requested
Begin final coordinates

ATOMIC_POSITIONS (angstrom)
Li              -0.0000000600        3.1856168341       25.3374837402
Li              -0.0000000600        6.0468244248       24.1722390955
Li              -0.0000000500        1.6032177887       22.3337954135
Li              -0.0000000700        4.1958021090       20.5349159975
Li              -0.0000000700        1.0191359085       27.8258881381
Li               1.7175642352        3.9388094020       23.0439245179
Li               1.7175829395        6.7999949114       21.8786554274
Li               1.7175796393        1.2852303627       19.3902517306
Li               1.7175764278        5.7898215803       26.6812318321
Li               1.7175844020        0.7011503823       24.8823573701
Li               3.4351561700        3.1856095199       25.3374853509
Li               3.4351561700        6.0468349296       24.1722403106
Li               3.4351561500        1.6031802756       22.3338060005
Li               3.4351561600        4.1958073683       20.5348999737
Li               3.4351561800        1.0191376488       27.8259077834
Li               5.1527480948        3.9388093920       23.0439245079
Li               5.1527294005        6.7999949114       21.8786554374
Li               5.1527326907        1.2852303527       19.3902517505
Li               5.1527359222        5.7898215803       26.6812318221
Li               5.1527279380        0.7011503823       24.8823573501
End final coordinates



     Writing all to output data dir ./Li/Lithium.save/ :
     XML data file
     init_run     :     14.07s CPU     21.04s WALL (       1 calls)
     electrons    :  12726.04s CPU  16939.84s WALL (      71 calls)
     update_pot   :      7.10s CPU      8.94s WALL (      70 calls)
     forces       :    340.44s CPU    348.66s WALL (      71 calls)

     Called by init_run:
     wfcinit      :      1.05s CPU      1.43s WALL (       1 calls)
     wfcinit:wfcr :      0.97s CPU      1.35s WALL (      15 calls)
     potinit      :      0.51s CPU      0.56s WALL (       1 calls)
     hinit0       :      1.94s CPU      2.17s WALL (       1 calls)

     Called by electrons:
     c_bands      :   6004.19s CPU   8572.89s WALL (     987 calls)
     sum_band     :    500.40s CPU    683.60s WALL (     987 calls)
     v_of_rho     :     75.69s CPU     93.05s WALL (     988 calls)
     v_h          :      6.82s CPU      8.77s WALL (     988 calls)
     v_xc         :     68.85s CPU     84.26s WALL (     988 calls)
     newd         :     33.88s CPU     47.72s WALL (     988 calls)
     PAW_pot      :      8.56s CPU     12.13s WALL (    1058 calls)
     mix_rho      :    174.81s CPU    233.03s WALL (     987 calls)

     Called by c_bands:
     init_us_2    :     58.35s CPU     63.51s WALL (   31740 calls)
     cegterg      :   5223.98s CPU   6579.16s WALL (   15657 calls)

     Called by sum_band:
     sum_band:wei :      1.13s CPU      1.44s WALL (     987 calls)
     sum_band:loo :    450.91s CPU    612.51s WALL (     987 calls)
     sum_band:buf :      7.05s CPU      7.77s WALL (   14805 calls)
     sum_band:ini :     23.91s CPU     25.23s WALL (   14805 calls)
     sum_band:cal :     67.90s CPU     81.44s WALL (   15855 calls)
     sum_band:bec :      0.96s CPU      1.07s WALL (   15855 calls)
     addusdens    :     27.00s CPU     28.43s WALL (     987 calls)
                                        0.00s GPU  (     987 calls)
     addusd:skk   :      4.42s CPU      4.50s WALL (     987 calls)
                                        0.00s GPU  (     987 calls)

     Called by *egterg:
     cdiaghg      :    980.77s CPU   1026.79s WALL (  164303 calls)
     cegterg:over :    364.05s CPU    406.69s WALL (  150978 calls)
     cegterg:upda :    321.31s CPU    332.73s WALL (  150978 calls)
     cegterg:last :     68.79s CPU     69.95s WALL (   18227 calls)
     h_psi        :   3129.62s CPU   4360.82s WALL (  166650 calls)
     s_psi        :    215.11s CPU    223.41s WALL (  166650 calls)
     g_psi        :      5.13s CPU      5.44s WALL (  150978 calls)

     Called by h_psi:
     h_psi:calbec :    352.26s CPU    437.62s WALL (  166650 calls)
     vloc_psi     :   2520.01s CPU   3643.00s WALL (  166650 calls)
                                        0.00s GPU  (  166650 calls)
     add_vuspsi   :    235.31s CPU    256.67s WALL (  166650 calls)

     General routines
     calbec       :    435.09s CPU    535.39s WALL (  186765 calls)
     fft          :     53.23s CPU     78.95s WALL (   12984 calls)
     ffts         :    116.11s CPU    157.42s WALL (  106033 calls)
     fftw         :   2729.99s CPU   3947.95s WALL ( 5507847 calls)
     interpolate  :      6.36s CPU      8.66s WALL (     988 calls)

     Parallel routines

     PAW routines
     PAW_pot      :      8.56s CPU     12.13s WALL (    1058 calls)
     PAW_symme    :      0.34s CPU      0.45s WALL (    2045 calls)

     Environ routines

     PWSCF        :      3h48m CPU      5h 0m WALL


   This run was terminated on:  20:53: 9  18Jan2025            

=------------------------------------------------------------------------------=
   JOB DONE.
=------------------------------------------------------------------------------=
