
     Program PWSCF v.7.4 starts on 24Jan2025 at  1:57:34 

     This program is part of the open-source Quantum ESPRESSO suite
     for quantum simulation of materials; please cite
         "P. Giannozzi et al., J. Phys.:Condens. Matter 21 395502 (2009);
         "P. Giannozzi et al., J. Phys.:Condens. Matter 29 465901 (2017);
         "P. Giannozzi et al., J. Chem. Phys. 152 154105 (2020);
          URL http://www.quantum-espresso.org", 
     in publications or presentations arising from this work. More details at
     http://www.quantum-espresso.org/quote

     Parallel version (MPI & OpenMP), running on     512 processor cores
     Number of MPI processes:               512
     Threads/MPI process:                     1

     MPI processes distributed on     4 nodes
     233270 MiB available memory on the printing compute node when the environment starts

     Reading input from espresso.pwi
Warning: card &CELL ignored
Warning: card    PRESS_CONV_THR   = 0.1 ignored
Warning: card    CELL_DOFREE      = 'ALL' ignored
Warning: card / ignored
Warning: card &FCP ignored
Warning: card / ignored
Warning: card &RISM ignored
Warning: card / ignored

     Current dimensions of program PWSCF are:
     Max number of different atomic species (ntypx) = 10
     Max number of k-points (npk) =  40000
     Max angular momentum in pseudopotentials (lmaxx) =  4

     IMPORTANT: XC functional enforced from input :
     Exchange-correlation= PBE
                           (   1   4   3   4   0   0   0)
     Any further DFT definition will be discarded
     Please, verify this is what you really want


     Reading input from environ.in:
     * using ionic solvent mode
     * setting boundary derivatives method to SSCS default
     * setting electrolyte-boundary derivatives method to SSCS default

Environ Warning (1001): card EOF ignored

     

     K-points division:     npool     =       2
     R & G space division:  proc/nbgrp/npool/nimage =     256
     Subspace diagonalization in iterative solution of the eigenvalue problem:
     one sub-group per band group will be used
     ELPA distributed-memory algorithm (size of sub-group:  2*  2 procs)


     Parallelization info
     --------------------
     sticks:   dense  smooth     PW     G-vecs:    dense   smooth      PW
     Min          86      34      9                52542    13274    1767
     Max          87      35     10                52593    13321    1811
     Sum       22119    8865   2329             13455463  3404289  459339

     Using Slab Decomposition



     bravais-lattice index     =           12
     lattice parameter (alat)  =      18.3607  a.u.
     unit-cell volume          =   35212.2554 (a.u.)^3
     number of atoms/cell      =           68
     number of atomic types    =            1
     number of electrons       =       204.00
     number of Kohn-Sham states=          153
     kinetic-energy cutoff     =      80.0000  Ry
     charge density cutoff     =     800.0000  Ry
     scf convergence threshold =      1.0E-06
     mixing beta               =       0.2000
     number of iterations used =            8  local-TF  mixing
     energy convergence thresh.=      1.0E-05
     force convergence thresh. =      3.9E-04
     Exchange-correlation= PBE
                           (   1   4   3   4   0   0   0)
     nstep                     =          999


     ================================================================================

                                  Environ Setup Summary

     ================================================================================

     Please cite

          O. Andreussi, I. Dabo and N. Marzari, J. Chem. Phys. 136, 064102 (2012)
          F. Nattino, M. Truscott, N. Marzari, and O. Andreussi, J. Chem. Phys. 150, 041722 (2019)

     in publications or presentations arising from this work.

     ================================================================================

     Parameters
     ==========

     compensation onset threshold      =               0.1000E+00
     static permittivity               =                    89.90
     surface tension in input (dyn/cm) =                    37.30
     surface tension in internal units =               0.4792E-04

     Solvent Boundary
     ================

     solvent mode                      =                    ionic
     derivatives method                =                   lowmem
     electrolyte derivatives method    =                   lowmem
     numerical core for derivatives    =                      fft
     switching function adopted        =                     SCCS
     density limit for vacuum region   =               0.5000E-02
     density limit for bulk solvent    =               0.1000E-03
     soft-sphere radius mode           =                    bondi
     soft-sphere softness              =                     0.50
     alpha                             =                     1.32

     Electrostatic Setup
     ===================

     electrostatic problem to solve    =                    modpb
     numerical solver adopted          =                   newton
     type of auxiliary density adopted =                     none
     numerical core for poisson        =                      fft
     adopting a nested solver scheme
     inner solver                      =                       cg
     inner core                        =                      fft
     type of pbc corrections           =                parabolic
     numerical core for corrections    =                      1da

     ================================================================================


     >>>>> Grand-Canonical SCF is activated <<<<<
     Initial Total Charge  =     0.000000 e
     Target Fermi Energy   =    -1.654000 eV
     Thr. of Fermi Energy  =     0.001000 eV
     Wave-shift of Kerker  =     0.400000 bohr^-1
     Wave-shift of Hartree =     1.500000 bohr^-1
     Mixing Rate of Fermi  =     0.050000

     celldm(1)=  18.360747  celldm(2)=   1.060660  celldm(3)=   5.518976
     celldm(4)=  -0.235702  celldm(5)=   0.000000  celldm(6)=   0.000000

     crystal axes: (cart. coord. in units of alat)
               a(1) = (   1.000000   0.000000   0.000000 )  
               a(2) = (  -0.250000   1.030776   0.000000 )  
               a(3) = (   0.000000   0.000000   5.518976 )  

     reciprocal axes: (cart. coord. in units 2 pi/alat)
               b(1) = (  1.000000  0.242536 -0.000000 )  
               b(2) = (  0.000000  0.970143  0.000000 )  
               b(3) = (  0.000000 -0.000000  0.181193 )  


     PseudoPot. # 1 for Li read from file:
     /work/e89/e89/ba3g18/Repos/Pseudopotentials/Pslibrary/Li.pbe-sl-kjpaw_psl.1.0.0.UPF
     MD5 check sum: 3f4d2cafebb47c6c3aa8ed472e6f074d
     Pseudo is Projector augmented-wave, Zval =  3.0
     Generated using 'atomic' code by A. Dal Corso  v.7.4
     Shape of augmentation charge: PSQ
     Using radial grid of 1017 points,  4 beta functions with: 
                l(1) =   0
                l(2) =   0
                l(3) =   1
                l(4) =   1
     Q(r) pseudized with 0 coefficients 


     atomic species   valence    mass     pseudopotential
     Li                3.00     6.94000     Li( 1.00)

     No symmetry found


                                    s                        frac. trans.

      isym =  1     identity                                     

 cryst.   s( 1) = (     1          0          0      )
                  (     0          1          0      )
                  (     0          0          1      )

 cart.    s( 1) = (  1.0000000  0.0000000  0.0000000 )
                  (  0.0000000  1.0000000  0.0000000 )
                  (  0.0000000  0.0000000  1.0000000 )


     point group C_1 (1)    
     there are  1 classes
     the character table:

       E    
A      1.00

     the symmetry operations in each class and the name of the first element:

     E        1
          identity                                               

   Cartesian axes

     site n.     atom                  positions (alat units)
         1        Li     tau(   1) = (  -0.0002581   0.0059961   2.0675002  )
         2        Li     tau(   2) = (   0.0002058   0.6097037   3.4170839  )
         3        Li     tau(   3) = (   0.2502330   0.7823533   3.2714190  )
         4        Li     tau(   4) = (   0.2502676   0.1862781   3.3261698  )
         5        Li     tau(   5) = (   0.0002048   0.3693876   3.1580631  )
         6        Li     tau(   6) = (   0.2501776   0.5448207   3.0040348  )
         7        Li     tau(   7) = (   0.2499428   0.9050937   2.6628354  )
         8        Li     tau(   8) = (   0.0002057   0.9746025   3.0804551  )
         9        Li     tau(   9) = (   0.0001087   0.1210556   2.9117759  )
        10        Li     tau(  10) = (   0.2499870   0.3016864   2.7390514  )
        11        Li     tau(  11) = (  -0.0001754   0.4876284   2.5523307  )
        12        Li     tau(  12) = (   0.2498034   0.6590787   2.3943446  )
        13        Li     tau(  13) = (   0.0000300   0.7316048   2.8201592  )
        14        Li     tau(  14) = (   0.2498228   0.0597270   2.4825196  )
        15        Li     tau(  15) = (  -0.0002611   0.2453912   2.3010560  )
        16        Li     tau(  16) = (   0.2497782   0.4118243   2.1386859  )
        17        Li     tau(  17) = (  -0.0002324   0.8559867   2.2118562  )
        18        Li     tau(  18) = (   0.0002569   0.0577684   3.2179877  )
        19        Li     tau(  19) = (   0.0001965   0.6748744   3.1246442  )
        20        Li     tau(  20) = (   0.2501767   0.8463264   2.9664856  )
        21        Li     tau(  21) = (   0.2501776   0.2434316   3.0363772  )
        22        Li     tau(  22) = (   0.0000571   0.4288614   2.8559317  )
        23        Li     tau(  23) = (   0.2499717   0.6023585   2.6985993  )
        24        Li     tau(  24) = (   0.2497944   0.9645452   2.3609547  )
        25        Li     tau(  25) = (   0.0000126   1.0322582   2.7797129  )
        26        Li     tau(  26) = (  -0.0001125   0.1821097   2.6070163  )
        27        Li     tau(  27) = (   0.2497954   0.3593494   2.4384968  )
        28        Li     tau(  28) = (  -0.0002343   0.5515964   2.2476558  )
        29        Li     tau(  29) = (   0.2497942   0.7242445   2.1021241  )
        30        Li     tau(  30) = (  -0.0001775   0.7891301   2.5148152  )
        31        Li     tau(  31) = (   0.2497321   0.1168858   2.1929541  )
        32        Li     tau(  32) = (   0.0002637   0.2971601   3.4517375  )
        33        Li     tau(  33) = (   0.2502323   0.4779568   3.3072602  )
        34        Li     tau(  34) = (   0.0002212   0.9221173   3.3805067  )
        35        Li     tau(  35) = (   0.4997343   0.0059913   2.0675021  )
        36        Li     tau(  36) = (   0.5002086   0.6097019   3.4170872  )
        37        Li     tau(  37) = (   0.7502386   0.7823541   3.2714188  )
        38        Li     tau(  38) = (   0.7502691   0.1862778   3.3261781  )
        39        Li     tau(  39) = (   0.5002017   0.3693885   3.1580623  )
        40        Li     tau(  40) = (   0.7501741   0.5448215   3.0040304  )
        41        Li     tau(  41) = (   0.7499457   0.9050953   2.6628352  )
        42        Li     tau(  42) = (   0.5002052   0.9746051   3.0804478  )
        43        Li     tau(  43) = (   0.5001123   0.1210552   2.9117767  )
        44        Li     tau(  44) = (   0.7499888   0.3016877   2.7390564  )
        45        Li     tau(  45) = (   0.4998226   0.4876276   2.5523306  )
        46        Li     tau(  46) = (   0.7498014   0.6590781   2.3943402  )
        47        Li     tau(  47) = (   0.5000310   0.7316048   2.8201629  )
        48        Li     tau(  48) = (   0.7498214   0.0597274   2.4825091  )
        49        Li     tau(  49) = (   0.4997441   0.2453888   2.3010581  )
        50        Li     tau(  50) = (   0.7497783   0.4118303   2.1386916  )
        51        Li     tau(  51) = (   0.4997672   0.8559879   2.2118613  )
        52        Li     tau(  52) = (   0.5002603   0.0577691   3.2179876  )
        53        Li     tau(  53) = (   0.5001981   0.6748783   3.1246492  )
        54        Li     tau(  54) = (   0.7501782   0.8463276   2.9664855  )
        55        Li     tau(  55) = (   0.7501776   0.2434340   3.0363836  )
        56        Li     tau(  56) = (   0.5000543   0.4288601   2.8559302  )
        57        Li     tau(  57) = (   0.7499705   0.6023593   2.6985956  )
        58        Li     tau(  58) = (   0.7497981   0.9645469   2.3609527  )
        59        Li     tau(  59) = (   0.5000114   1.0322587   2.7797045  )
        60        Li     tau(  60) = (   0.4998911   0.1821101   2.6070191  )
        61        Li     tau(  61) = (   0.7497957   0.3593500   2.4385011  )
        62        Li     tau(  62) = (   0.4997618   0.5515946   2.2476565  )
        63        Li     tau(  63) = (   0.7497900   0.7242492   2.1021212  )
        64        Li     tau(  64) = (   0.4998253   0.7891306   2.5148197  )
        65        Li     tau(  65) = (   0.7497318   0.1168870   2.1929404  )
        66        Li     tau(  66) = (   0.5002595   0.2971573   3.4517356  )
        67        Li     tau(  67) = (   0.7502317   0.4779553   3.3072559  )
        68        Li     tau(  68) = (   0.5002208   0.9221126   3.3804979  )

   Crystallographic axes

     site n.     atom                  positions (cryst. coord.)
         1        Li     tau(   1) = (  0.0011961  0.0058171  0.3746166  )
         2        Li     tau(   2) = (  0.1480807  0.5914997  0.6191518  )
         3        Li     tau(   3) = (  0.4399816  0.7589945  0.5927583  )
         4        Li     tau(   4) = (  0.2954467  0.1807164  0.6026788  )
         5        Li     tau(   5) = (  0.0897945  0.3583588  0.5722190  )
         6        Li     tau(   6) = (  0.3823161  0.5285539  0.5443102  )
         7        Li     tau(   7) = (  0.4694603  0.8780702  0.4824872  )
         8        Li     tau(   8) = (  0.2365816  0.9455037  0.5581570  )
         9        Li     tau(   9) = (  0.0294690  0.1174412  0.5275935  )
        10        Li     tau(  10) = (  0.3231567  0.2926789  0.4962970  )
        11        Li     tau(  11) = (  0.1180919  0.4730692  0.4624645  )
        12        Li     tau(  12) = (  0.4096536  0.6394005  0.4338386  )
        13        Li     tau(  13) = (  0.1774703  0.7097612  0.5109932  )
        14        Li     tau(  14) = (  0.2643087  0.0579438  0.4498153  )
        15        Li     tau(  15) = (  0.0592550  0.2380645  0.4169353  )
        16        Li     tau(  16) = (  0.3496603  0.3995285  0.3875150  )
        17        Li     tau(  17) = (  0.2073749  0.8304294  0.4007729  )
        18        Li     tau(  18) = (  0.0142678  0.0560436  0.5830769  )
        19        Li     tau(  19) = (  0.1638777  0.6547246  0.5661638  )
        20        Li     tau(  20) = (  0.4554410  0.8210575  0.5375065  )
        21        Li     tau(  21) = (  0.3092185  0.2361634  0.5501704  )
        22        Li     tau(  22) = (  0.1040713  0.4160569  0.5174749  )
        23        Li     tau(  23) = (  0.3960652  0.5843738  0.4889674  )
        24        Li     tau(  24) = (  0.4837310  0.9357466  0.4277885  )
        25        Li     tau(  25) = (  0.2503721  1.0014379  0.5036646  )
        26        Li     tau(  26) = (  0.0440557  0.1766724  0.4723732  )
        27        Li     tau(  27) = (  0.3369505  0.3486202  0.4418386  )
        28        Li     tau(  28) = (  0.1335475  0.5351273  0.4072596  )
        29        Li     tau(  29) = (  0.4254493  0.7026206  0.3808902  )
        30        Li     tau(  30) = (  0.1912147  0.7655690  0.4556670  )
        31        Li     tau(  31) = (  0.2780810  0.1133959  0.3973480  )
        32        Li     tau(  32) = (  0.0723356  0.2882877  0.6254308  )
        33        Li     tau(  33) = (  0.3661539  0.4636864  0.5992525  )
        34        Li     tau(  34) = (  0.2238676  0.8945855  0.6125243  )
        35        Li     tau(  35) = (  0.5011874  0.0058124  0.3746170  )
        36        Li     tau(  36) = (  0.6480831  0.5914979  0.6191524  )
        37        Li     tau(  37) = (  0.9399874  0.7589952  0.5927583  )
        38        Li     tau(  38) = (  0.7954481  0.1807161  0.6026803  )
        39        Li     tau(  39) = (  0.5897916  0.3583597  0.5722189  )
        40        Li     tau(  40) = (  0.8823128  0.5285547  0.5443094  )
        41        Li     tau(  41) = (  0.9694637  0.8780717  0.4824872  )
        42        Li     tau(  42) = (  0.7365818  0.9455062  0.5581557  )
        43        Li     tau(  43) = (  0.5294725  0.1174408  0.5275936  )
        44        Li     tau(  44) = (  0.8231588  0.2926802  0.4962979  )
        45        Li     tau(  45) = (  0.6180897  0.4730685  0.4624645  )
        46        Li     tau(  46) = (  0.9096514  0.6393999  0.4338378  )
        47        Li     tau(  47) = (  0.6774713  0.7097612  0.5109939  )
        48        Li     tau(  48) = (  0.7643074  0.0579442  0.4498134  )
        49        Li     tau(  49) = (  0.5592596  0.2380622  0.4169357  )
        50        Li     tau(  50) = (  0.8496619  0.3995342  0.3875160  )
        51        Li     tau(  51) = (  0.7073748  0.8304306  0.4007739  )
        52        Li     tau(  52) = (  0.5142714  0.0560442  0.5830769  )
        53        Li     tau(  53) = (  0.6638801  0.6547284  0.5661647  )
        54        Li     tau(  54) = (  0.9554429  0.8210587  0.5375065  )
        55        Li     tau(  55) = (  0.8092190  0.2361658  0.5501716  )
        56        Li     tau(  56) = (  0.6040682  0.4160556  0.5174746  )
        57        Li     tau(  57) = (  0.8960641  0.5843746  0.4889667  )
        58        Li     tau(  58) = (  0.9837352  0.9357483  0.4277882  )
        59        Li     tau(  59) = (  0.7503710  1.0014384  0.5036631  )
        60        Li     tau(  60) = (  0.5440593  0.1766728  0.4723737  )
        61        Li     tau(  61) = (  0.8369509  0.3486209  0.4418394  )
        62        Li     tau(  62) = (  0.6335432  0.5351256  0.4072597  )
        63        Li     tau(  63) = (  0.9254463  0.7026252  0.3808897  )
        64        Li     tau(  64) = (  0.6912177  0.7655694  0.4556678  )
        65        Li     tau(  65) = (  0.7780811  0.1133971  0.3973455  )
        66        Li     tau(  66) = (  0.5723307  0.2882851  0.6254304  )
        67        Li     tau(  67) = (  0.8661529  0.4636850  0.5992517  )
        68        Li     tau(  68) = (  0.7238660  0.8945810  0.6125227  )

     number of k points=    25  Marzari-Vanderbilt smearing, width (Ry)=  0.0100
                       cart. coord. in units 2pi/alat
        k(    1) = (   0.0000000   0.0000000   0.0000000), wk =   0.0408163
        k(    2) = (   0.0000000   0.1385918   0.0000000), wk =   0.0816327
        k(    3) = (   0.0000000   0.2771837   0.0000000), wk =   0.0816327
        k(    4) = (   0.0000000   0.4157755   0.0000000), wk =   0.0816327
        k(    5) = (   0.1428571   0.0346480   0.0000000), wk =   0.0816327
        k(    6) = (   0.1428571   0.1732398   0.0000000), wk =   0.0816327
        k(    7) = (   0.1428571   0.3118316   0.0000000), wk =   0.0816327
        k(    8) = (   0.1428571   0.4504235   0.0000000), wk =   0.0816327
        k(    9) = (   0.1428571  -0.3811276   0.0000000), wk =   0.0816327
        k(   10) = (   0.1428571  -0.2425357   0.0000000), wk =   0.0816327
        k(   11) = (   0.1428571  -0.1039439   0.0000000), wk =   0.0816327
        k(   12) = (   0.2857143   0.0692959   0.0000000), wk =   0.0816327
        k(   13) = (   0.2857143   0.2078878   0.0000000), wk =   0.0816327
        k(   14) = (   0.2857143   0.3464796   0.0000000), wk =   0.0816327
        k(   15) = (   0.2857143   0.4850714   0.0000000), wk =   0.0816327
        k(   16) = (   0.2857143  -0.3464796   0.0000000), wk =   0.0816327
        k(   17) = (   0.2857143  -0.2078878   0.0000000), wk =   0.0816327
        k(   18) = (   0.2857143  -0.0692959   0.0000000), wk =   0.0816327
        k(   19) = (   0.4285714   0.1039439   0.0000000), wk =   0.0816327
        k(   20) = (   0.4285714   0.2425357   0.0000000), wk =   0.0816327
        k(   21) = (   0.4285714   0.3811276   0.0000000), wk =   0.0816327
        k(   22) = (   0.4285714   0.5197194   0.0000000), wk =   0.0816327
        k(   23) = (   0.4285714  -0.3118316   0.0000000), wk =   0.0816327
        k(   24) = (   0.4285714  -0.1732398   0.0000000), wk =   0.0816327
        k(   25) = (   0.4285714  -0.0346480   0.0000000), wk =   0.0816327

                       cryst. coord.
        k(    1) = (   0.0000000   0.0000000   0.0000000), wk =   0.0408163
        k(    2) = (   0.0000000   0.1428571   0.0000000), wk =   0.0816327
        k(    3) = (   0.0000000   0.2857143   0.0000000), wk =   0.0816327
        k(    4) = (   0.0000000   0.4285714   0.0000000), wk =   0.0816327
        k(    5) = (   0.1428571   0.0000000   0.0000000), wk =   0.0816327
        k(    6) = (   0.1428571   0.1428571   0.0000000), wk =   0.0816327
        k(    7) = (   0.1428571   0.2857143   0.0000000), wk =   0.0816327
        k(    8) = (   0.1428571   0.4285714   0.0000000), wk =   0.0816327
        k(    9) = (   0.1428571  -0.4285714   0.0000000), wk =   0.0816327
        k(   10) = (   0.1428571  -0.2857143   0.0000000), wk =   0.0816327
        k(   11) = (   0.1428571  -0.1428571   0.0000000), wk =   0.0816327
        k(   12) = (   0.2857143   0.0000000   0.0000000), wk =   0.0816327
        k(   13) = (   0.2857143   0.1428571   0.0000000), wk =   0.0816327
        k(   14) = (   0.2857143   0.2857143   0.0000000), wk =   0.0816327
        k(   15) = (   0.2857143   0.4285714   0.0000000), wk =   0.0816327
        k(   16) = (   0.2857143  -0.4285714   0.0000000), wk =   0.0816327
        k(   17) = (   0.2857143  -0.2857143   0.0000000), wk =   0.0816327
        k(   18) = (   0.2857143  -0.1428571   0.0000000), wk =   0.0816327
        k(   19) = (   0.4285714   0.0000000   0.0000000), wk =   0.0816327
        k(   20) = (   0.4285714   0.1428571   0.0000000), wk =   0.0816327
        k(   21) = (   0.4285714   0.2857143   0.0000000), wk =   0.0816327
        k(   22) = (   0.4285714   0.4285714   0.0000000), wk =   0.0816327
        k(   23) = (   0.4285714  -0.4285714   0.0000000), wk =   0.0816327
        k(   24) = (   0.4285714  -0.2857143   0.0000000), wk =   0.0816327
        k(   25) = (   0.4285714  -0.1428571   0.0000000), wk =   0.0816327

     Dense  grid: 13455463 G-vectors     FFT dimensions: ( 180, 180, 960)

     Smooth grid:  3404289 G-vectors     FFT dimensions: ( 108, 120, 600)

     Dynamical RAM for                 wfc:       3.88 MB

     Dynamical RAM for     wfc (w. buffer):      54.32 MB

     Dynamical RAM for           str. fact:       0.80 MB

     Dynamical RAM for           local pot:       0.00 MB

     Dynamical RAM for          nlocal pot:      13.80 MB

     Dynamical RAM for                qrad:       0.65 MB

     Dynamical RAM for          rho,v,vnew:       5.37 MB

     Dynamical RAM for               rhoin:       1.79 MB

     Dynamical RAM for            rho*nmix:      12.84 MB

     Dynamical RAM for           G-vectors:       3.11 MB

     Dynamical RAM for          h,s,v(r/c):       4.29 MB

     Dynamical RAM for          <psi|beta>:       1.27 MB

     Dynamical RAM for                 psi:      15.52 MB

     Dynamical RAM for                hpsi:      15.52 MB

     Dynamical RAM for                spsi:      15.52 MB

     Dynamical RAM for      wfcinit/wfcrot:       8.30 MB

     Dynamical RAM for           addusdens:      44.93 MB

     Dynamical RAM for          addusforce:      98.75 MB

     Estimated static dynamical RAM per process >      86.39 MB

     Estimated max dynamical RAM per process >     205.31 MB

     Estimated total dynamical RAM >      95.78 GB

     Initial potential from superposition of free atoms

     starting charge     203.6866, renormalised to     204.0000

     negative rho (up, down):  5.999E-03 0.000E+00
     Starting wfcs are random
     Checking if some PAW data can be deallocated... 

     total cpu time spent up to now is       48.6 secs

     Self-consistent Calculation

     iteration #  1     ecut=    80.00 Ry     beta= 0.20
     Davidson diagonalization with overlap

---- Real-time Memory Report at c_bands before calling an iterative solver
          1219 MiB given to the printing process from OS
             0 MiB allocation reported by mallinfo(arena+hblkhd)
        211948 MiB available memory on the node where the printing process lives
------------------
     c_bands:  2 eigenvalues not converged
     c_bands:  1 eigenvalues not converged
     ethr =  1.00E-12,  avg # of iterations =130.1

     negative rho (up, down):  4.441E-03 0.000E+00

     total cpu time spent up to now is      721.3 secs

     total energy              =   -1022.37731718 Ry
     estimated scf accuracy    <       0.22167970 Ry

     total charge of GC-SCF    =      -0.05765956 e
     the Fermi energy          =      -4.26085713 eV
                        (error :       2.60685713 eV)
     electrostatic embedding   =       0.00000000 Ry
     cavitation energy         =       0.04157217 Ry
     electrolyte free energy   =       0.01515579 Ry
     correction to one-el term =      -0.00000000 Ry

     iteration #  2     ecut=    80.00 Ry     beta= 0.20
     Davidson diagonalization with overlap

---- Real-time Memory Report at c_bands before calling an iterative solver
          1219 MiB given to the printing process from OS
             0 MiB allocation reported by mallinfo(arena+hblkhd)
        205673 MiB available memory on the node where the printing process lives
------------------
     ethr =  1.00E-05,  avg # of iterations = 14.2

     negative rho (up, down):  3.562E-03 0.000E+00

     total cpu time spent up to now is      802.5 secs

     total energy              =   -1022.68727869 Ry
     estimated scf accuracy    <       0.13509852 Ry

     total charge of GC-SCF    =      -0.08632418 e
     the Fermi energy          =      -2.76806268 eV
                        (error :       1.11406268 eV)
     electrostatic embedding   =      -0.00052472 Ry
     cavitation energy         =       0.04157217 Ry
     electrolyte free energy   =       0.01515579 Ry
     correction to one-el term =      -0.00000000 Ry

     iteration #  3     ecut=    80.00 Ry     beta= 0.20
     Davidson diagonalization with overlap

---- Real-time Memory Report at c_bands before calling an iterative solver
          1219 MiB given to the printing process from OS
             0 MiB allocation reported by mallinfo(arena+hblkhd)
        205409 MiB available memory on the node where the printing process lives
------------------
     ethr =  1.00E-05,  avg # of iterations = 10.8

     negative rho (up, down):  2.690E-03 0.000E+00

     add environment contribution to local potential

     total cpu time spent up to now is      872.3 secs

     total energy              =   -1022.37573232 Ry
     estimated scf accuracy    <       0.06445939 Ry

     total charge of GC-SCF    =      -0.16607526 e
     the Fermi energy          =      -2.62262198 eV
                        (error :       0.96862198 eV)
     electrostatic embedding   =      -0.00078558 Ry
     cavitation energy         =       0.04157217 Ry
     electrolyte free energy   =       0.01515579 Ry
     correction to one-el term =      -0.00000000 Ry

     iteration #  4     ecut=    80.00 Ry     beta= 0.20
     Davidson diagonalization with overlap

---- Real-time Memory Report at c_bands before calling an iterative solver
          1219 MiB given to the printing process from OS
             0 MiB allocation reported by mallinfo(arena+hblkhd)
        205242 MiB available memory on the node where the printing process lives
------------------
     ethr =  1.00E-05,  avg # of iterations = 31.5

     negative rho (up, down):  2.292E-03 0.000E+00

     add environment contribution to local potential

     total cpu time spent up to now is     1017.4 secs

     total energy              =   -1022.59633804 Ry
     estimated scf accuracy    <       0.02872173 Ry

     total charge of GC-SCF    =      -0.27481171 e
     the Fermi energy          =      -2.50367679 eV
                        (error :       0.84967679 eV)
     electrostatic embedding   =      -0.04721805 Ry
     cavitation energy         =       0.04157217 Ry
     electrolyte free energy   =      -0.00095345 Ry
     correction to one-el term =      12.84381310 Ry

     iteration #  5     ecut=    80.00 Ry     beta= 0.20
     Davidson diagonalization with overlap

---- Real-time Memory Report at c_bands before calling an iterative solver
          1219 MiB given to the printing process from OS
             0 MiB allocation reported by mallinfo(arena+hblkhd)
        205032 MiB available memory on the node where the printing process lives
------------------
     ethr =  1.00E-05,  avg # of iterations =  9.3

     negative rho (up, down):  2.099E-03 0.000E+00

     add environment contribution to local potential

     total cpu time spent up to now is     1075.6 secs

     total energy              =   -1022.42002567 Ry
     estimated scf accuracy    <       0.02161610 Ry

     total charge of GC-SCF    =      -0.79754969 e
     the Fermi energy          =      -2.58419201 eV
                        (error :       0.93019201 eV)
     electrostatic embedding   =      -0.05972913 Ry
     cavitation energy         =       0.04157217 Ry
     electrolyte free energy   =      -0.00110687 Ry
     correction to one-el term =      15.92507499 Ry

     iteration #  6     ecut=    80.00 Ry     beta= 0.20
     Davidson diagonalization with overlap

---- Real-time Memory Report at c_bands before calling an iterative solver
          1219 MiB given to the printing process from OS
             0 MiB allocation reported by mallinfo(arena+hblkhd)
        205102 MiB available memory on the node where the printing process lives
------------------
     ethr =  1.00E-05,  avg # of iterations = 11.9

     negative rho (up, down):  1.884E-03 0.000E+00

     add environment contribution to local potential

     total cpu time spent up to now is     1153.5 secs

     total energy              =   -1022.50449361 Ry
     estimated scf accuracy    <       0.00453731 Ry

     total charge of GC-SCF    =      -1.29105294 e
     the Fermi energy          =      -2.63553675 eV
                        (error :       0.98153675 eV)
     electrostatic embedding   =      -0.15801754 Ry
     cavitation energy         =       0.04157217 Ry
     electrolyte free energy   =      -0.00126968 Ry
     correction to one-el term =      36.83886894 Ry

     iteration #  7     ecut=    80.00 Ry     beta= 0.20
     Davidson diagonalization with overlap

---- Real-time Memory Report at c_bands before calling an iterative solver
          1219 MiB given to the printing process from OS
             0 MiB allocation reported by mallinfo(arena+hblkhd)
        204981 MiB available memory on the node where the printing process lives
------------------
     ethr =  2.21E-06,  avg # of iterations = 16.0

     negative rho (up, down):  1.661E-03 0.000E+00

     add environment contribution to local potential

     total cpu time spent up to now is     1266.4 secs

     total energy              =   -1022.57008407 Ry
     estimated scf accuracy    <       0.00437043 Ry

     total charge of GC-SCF    =      -1.75585829 e
     the Fermi energy          =      -2.41984117 eV
                        (error :       0.76584117 eV)
     electrostatic embedding   =      -0.30286083 Ry
     cavitation energy         =       0.04157217 Ry
     electrolyte free energy   =      -0.00090891 Ry
     correction to one-el term =      59.77032182 Ry

     iteration #  8     ecut=    80.00 Ry     beta= 0.20
     Davidson diagonalization with overlap

---- Real-time Memory Report at c_bands before calling an iterative solver
          1219 MiB given to the printing process from OS
             0 MiB allocation reported by mallinfo(arena+hblkhd)
        204918 MiB available memory on the node where the printing process lives
------------------
     ethr =  2.12E-06,  avg # of iterations = 34.9

     negative rho (up, down):  1.507E-03 0.000E+00

     add environment contribution to local potential

     total cpu time spent up to now is     1428.3 secs

     total energy              =   -1022.64607136 Ry
     estimated scf accuracy    <       0.02766822 Ry

     total charge of GC-SCF    =      -1.88692026 e
     the Fermi energy          =      -2.05388317 eV
                        (error :       0.39988317 eV)
     electrostatic embedding   =      -0.47212650 Ry
     cavitation energy         =       0.04157217 Ry
     electrolyte free energy   =      -0.00393129 Ry
     correction to one-el term =      79.17384745 Ry

     iteration #  9     ecut=    80.00 Ry     beta= 0.20
     Davidson diagonalization with overlap

---- Real-time Memory Report at c_bands before calling an iterative solver
          1219 MiB given to the printing process from OS
             0 MiB allocation reported by mallinfo(arena+hblkhd)
        204642 MiB available memory on the node where the printing process lives
------------------
     ethr =  2.12E-06,  avg # of iterations = 13.3

     negative rho (up, down):  1.436E-03 0.000E+00

     add environment contribution to local potential

     total cpu time spent up to now is     1510.5 secs

     total energy              =   -1022.59605353 Ry
     estimated scf accuracy    <       0.01037813 Ry

     total charge of GC-SCF    =      -2.50600426 e
     the Fermi energy          =      -2.20877055 eV
                        (error :       0.55477055 eV)
     electrostatic embedding   =      -0.53383750 Ry
     cavitation energy         =       0.04157217 Ry
     electrolyte free energy   =      -0.00310117 Ry
     correction to one-el term =      83.59506160 Ry

     iteration # 10     ecut=    80.00 Ry     beta= 0.20
     Davidson diagonalization with overlap

---- Real-time Memory Report at c_bands before calling an iterative solver
          1219 MiB given to the printing process from OS
             0 MiB allocation reported by mallinfo(arena+hblkhd)
        204661 MiB available memory on the node where the printing process lives
------------------
     ethr =  2.12E-06,  avg # of iterations = 10.2

     negative rho (up, down):  1.260E-03 0.000E+00

     add environment contribution to local potential

     total cpu time spent up to now is     1581.0 secs

     total energy              =   -1022.74393644 Ry
     estimated scf accuracy    <       0.00623683 Ry

     total charge of GC-SCF    =      -2.60562390 e
     the Fermi energy          =      -2.19814036 eV
                        (error :       0.54414036 eV)
     electrostatic embedding   =      -0.85967578 Ry
     cavitation energy         =       0.04157217 Ry
     electrolyte free energy   =      -0.00549726 Ry
     correction to one-el term =     106.48852111 Ry

     iteration # 11     ecut=    80.00 Ry     beta= 0.20
     Davidson diagonalization with overlap

---- Real-time Memory Report at c_bands before calling an iterative solver
          1219 MiB given to the printing process from OS
             0 MiB allocation reported by mallinfo(arena+hblkhd)
        204438 MiB available memory on the node where the printing process lives
------------------
     ethr =  2.12E-06,  avg # of iterations =  8.7

     negative rho (up, down):  1.053E-03 0.000E+00

     add environment contribution to local potential

     total cpu time spent up to now is     1646.8 secs

     total energy              =   -1022.63346758 Ry
     estimated scf accuracy    <       0.01167207 Ry

     total charge of GC-SCF    =      -3.63355915 e
     the Fermi energy          =      -2.16933477 eV
                        (error :       0.51533477 eV)
     electrostatic embedding   =      -0.90555337 Ry
     cavitation energy         =       0.04157217 Ry
     electrolyte free energy   =      -0.00602195 Ry
     correction to one-el term =     108.96615210 Ry

     iteration # 12     ecut=    80.00 Ry     beta= 0.20
     Davidson diagonalization with overlap

---- Real-time Memory Report at c_bands before calling an iterative solver
          1219 MiB given to the printing process from OS
             0 MiB allocation reported by mallinfo(arena+hblkhd)
        204452 MiB available memory on the node where the printing process lives
------------------
     ethr =  2.12E-06,  avg # of iterations = 14.3

     negative rho (up, down):  9.887E-04 0.000E+00

     add environment contribution to local potential

     total cpu time spent up to now is     1751.4 secs

     total energy              =   -1022.65762588 Ry
     estimated scf accuracy    <       0.02219336 Ry

     total charge of GC-SCF    =      -4.21074318 e
     the Fermi energy          =      -1.97990210 eV
                        (error :       0.32590210 eV)
     electrostatic embedding   =      -1.58447318 Ry
     cavitation energy         =       0.04157217 Ry
     electrolyte free energy   =      -0.01367326 Ry
     correction to one-el term =     143.78609002 Ry

     iteration # 13     ecut=    80.00 Ry     beta= 0.20
     Davidson diagonalization with overlap

---- Real-time Memory Report at c_bands before calling an iterative solver
          1219 MiB given to the printing process from OS
             0 MiB allocation reported by mallinfo(arena+hblkhd)
        204662 MiB available memory on the node where the printing process lives
------------------
     ethr =  2.12E-06,  avg # of iterations = 12.6

     negative rho (up, down):  9.273E-04 0.000E+00

     add environment contribution to local potential

     total cpu time spent up to now is     1839.3 secs

     total energy              =   -1022.74349897 Ry
     estimated scf accuracy    <       0.00231975 Ry

     total charge of GC-SCF    =      -4.83202592 e
     the Fermi energy          =      -2.17129408 eV
                        (error :       0.51729408 eV)
     electrostatic embedding   =      -2.08076359 Ry
     cavitation energy         =       0.04157217 Ry
     electrolyte free energy   =      -0.01765951 Ry
     correction to one-el term =     163.45958415 Ry

     iteration # 14     ecut=    80.00 Ry     beta= 0.20
     Davidson diagonalization with overlap

---- Real-time Memory Report at c_bands before calling an iterative solver
          1219 MiB given to the printing process from OS
             0 MiB allocation reported by mallinfo(arena+hblkhd)
        204553 MiB available memory on the node where the printing process lives
------------------
     ethr =  1.11E-06,  avg # of iterations =  7.6

     negative rho (up, down):  8.378E-04 0.000E+00

     add environment contribution to local potential

     total cpu time spent up to now is     1912.3 secs

     total energy              =   -1022.82046474 Ry
     estimated scf accuracy    <       0.00069262 Ry

     total charge of GC-SCF    =      -5.11808377 e
     the Fermi energy          =      -2.14618858 eV
                        (error :       0.49218858 eV)
     electrostatic embedding   =      -2.68359237 Ry
     cavitation energy         =       0.04157217 Ry
     electrolyte free energy   =      -0.02588206 Ry
     correction to one-el term =     185.98287645 Ry

     iteration # 15     ecut=    80.00 Ry     beta= 0.20
     Davidson diagonalization with overlap

---- Real-time Memory Report at c_bands before calling an iterative solver
          1219 MiB given to the printing process from OS
             0 MiB allocation reported by mallinfo(arena+hblkhd)
        204427 MiB available memory on the node where the printing process lives
------------------
     ethr =  3.31E-07,  avg # of iterations = 16.3

     negative rho (up, down):  7.909E-04 0.000E+00

     add environment contribution to local potential

     total cpu time spent up to now is     2026.4 secs

     total energy              =   -1022.84674381 Ry
     estimated scf accuracy    <       0.00197773 Ry

     total charge of GC-SCF    =      -5.25031037 e
     the Fermi energy          =      -2.02765279 eV
                        (error :       0.37365279 eV)
     electrostatic embedding   =      -2.95247148 Ry
     cavitation energy         =       0.04157217 Ry
     electrolyte free energy   =      -0.03087735 Ry
     correction to one-el term =     195.14944485 Ry

     iteration # 16     ecut=    80.00 Ry     beta= 0.20
     Davidson diagonalization with overlap

---- Real-time Memory Report at c_bands before calling an iterative solver
          1219 MiB given to the printing process from OS
             0 MiB allocation reported by mallinfo(arena+hblkhd)
        204588 MiB available memory on the node where the printing process lives
------------------
     ethr =  3.31E-07,  avg # of iterations = 11.9

     negative rho (up, down):  7.615E-04 0.000E+00

     add environment contribution to local potential

     total cpu time spent up to now is     2102.9 secs

     total energy              =   -1022.83797582 Ry
     estimated scf accuracy    <       0.00277964 Ry

     total charge of GC-SCF    =      -5.40987589 e
     the Fermi energy          =      -1.99181479 eV
                        (error :       0.33781479 eV)
     electrostatic embedding   =      -3.08219989 Ry
     cavitation energy         =       0.04157217 Ry
     electrolyte free energy   =      -0.03327399 Ry
     correction to one-el term =     199.21867829 Ry

     iteration # 17     ecut=    80.00 Ry     beta= 0.20
     Davidson diagonalization with overlap

---- Real-time Memory Report at c_bands before calling an iterative solver
          1219 MiB given to the printing process from OS
             0 MiB allocation reported by mallinfo(arena+hblkhd)
        204487 MiB available memory on the node where the printing process lives
------------------
     ethr =  3.31E-07,  avg # of iterations = 13.3

     negative rho (up, down):  7.026E-04 0.000E+00

     add environment contribution to local potential

     total cpu time spent up to now is     2197.3 secs

     total energy              =   -1022.91968620 Ry
     estimated scf accuracy    <       0.00062355 Ry

     total charge of GC-SCF    =      -7.24472882 e
     the Fermi energy          =      -2.05876434 eV
                        (error :       0.40476434 eV)
     electrostatic embedding   =      -3.24449965 Ry
     cavitation energy         =       0.04157217 Ry
     electrolyte free energy   =      -0.03541441 Ry
     correction to one-el term =     203.36095992 Ry

     iteration # 18     ecut=    80.00 Ry     beta= 0.20
     Davidson diagonalization with overlap

---- Real-time Memory Report at c_bands before calling an iterative solver
          1219 MiB given to the printing process from OS
             0 MiB allocation reported by mallinfo(arena+hblkhd)
        204486 MiB available memory on the node where the printing process lives
------------------
     ethr =  2.95E-07,  avg # of iterations = 28.0

     negative rho (up, down):  6.770E-04 0.000E+00

     add environment contribution to local potential

     total cpu time spent up to now is     2345.7 secs

     total energy              =   -1022.89781420 Ry
     estimated scf accuracy    <       0.00036998 Ry

     total charge of GC-SCF    =      -7.75757048 e
     the Fermi energy          =      -1.81978105 eV
                        (error :       0.16578105 eV)
     electrostatic embedding   =      -5.45466136 Ry
     cavitation energy         =       0.04157217 Ry
     electrolyte free energy   =      -0.08300078 Ry
     correction to one-el term =     260.85117089 Ry

     iteration # 19     ecut=    80.00 Ry     beta= 0.20
     Davidson diagonalization with overlap

---- Real-time Memory Report at c_bands before calling an iterative solver
          1219 MiB given to the printing process from OS
             0 MiB allocation reported by mallinfo(arena+hblkhd)
        204367 MiB available memory on the node where the printing process lives
------------------
     ethr =  1.75E-07,  avg # of iterations = 14.7

     negative rho (up, down):  6.449E-04 0.000E+00

     add environment contribution to local potential

     total cpu time spent up to now is     2458.0 secs

     total energy              =   -1022.90949898 Ry
     estimated scf accuracy    <       0.00012181 Ry

     total charge of GC-SCF    =      -8.08056297 e
     the Fermi energy          =      -1.76930551 eV
                        (error :       0.11530551 eV)
     electrostatic embedding   =      -6.14222625 Ry
     cavitation energy         =       0.04157217 Ry
     electrolyte free energy   =      -0.10131813 Ry
     correction to one-el term =     275.05640224 Ry

     iteration # 20     ecut=    80.00 Ry     beta= 0.20
     Davidson diagonalization with overlap

---- Real-time Memory Report at c_bands before calling an iterative solver
          1219 MiB given to the printing process from OS
             0 MiB allocation reported by mallinfo(arena+hblkhd)
        204274 MiB available memory on the node where the printing process lives
------------------
     ethr =  5.74E-08,  avg # of iterations = 13.0

     negative rho (up, down):  6.195E-04 0.000E+00

     add environment contribution to local potential

     total cpu time spent up to now is     2563.7 secs

     total energy              =   -1022.91677438 Ry
     estimated scf accuracy    <       0.00005679 Ry

     total charge of GC-SCF    =      -8.05824208 e
     the Fermi energy          =      -1.74256582 eV
                        (error :       0.08856582 eV)
     electrostatic embedding   =      -6.59515686 Ry
     cavitation energy         =       0.04157217 Ry
     electrolyte free energy   =      -0.11421336 Ry
     correction to one-el term =     283.96083197 Ry

     iteration # 21     ecut=    80.00 Ry     beta= 0.20
     Davidson diagonalization with overlap

---- Real-time Memory Report at c_bands before calling an iterative solver
          1219 MiB given to the printing process from OS
             0 MiB allocation reported by mallinfo(arena+hblkhd)
        204524 MiB available memory on the node where the printing process lives
------------------
     ethr =  2.68E-08,  avg # of iterations = 14.4

     negative rho (up, down):  5.926E-04 0.000E+00

     add environment contribution to local potential

     total cpu time spent up to now is     2666.1 secs

     total energy              =   -1022.92969483 Ry
     estimated scf accuracy    <       0.00003820 Ry

     total charge of GC-SCF    =      -8.66364172 e
     the Fermi energy          =      -1.74821792 eV
                        (error :       0.09421792 eV)
     electrostatic embedding   =      -6.53927087 Ry
     cavitation energy         =       0.04157217 Ry
     electrolyte free energy   =      -0.11311647 Ry
     correction to one-el term =     282.27807289 Ry

     iteration # 22     ecut=    80.00 Ry     beta= 0.20
     Davidson diagonalization with overlap

---- Real-time Memory Report at c_bands before calling an iterative solver
          1219 MiB given to the printing process from OS
             0 MiB allocation reported by mallinfo(arena+hblkhd)
        204489 MiB available memory on the node where the printing process lives
------------------
     ethr =  1.80E-08,  avg # of iterations = 35.1

     negative rho (up, down):  5.768E-04 0.000E+00

     add environment contribution to local potential

     total cpu time spent up to now is     2846.8 secs

     total energy              =   -1022.91771169 Ry
     estimated scf accuracy    <       0.00004171 Ry

     total charge of GC-SCF    =      -8.61579892 e
     the Fermi energy          =      -1.65392533 eV
                        (error :       0.00007467 eV)
     electrostatic embedding   =      -7.43633712 Ry
     cavitation energy         =       0.04157217 Ry
     electrolyte free energy   =      -0.14084620 Ry
     correction to one-el term =     299.80049170 Ry

     iteration # 23     ecut=    80.00 Ry     beta= 0.20
     Davidson diagonalization with overlap

---- Real-time Memory Report at c_bands before calling an iterative solver
          1219 MiB given to the printing process from OS
             0 MiB allocation reported by mallinfo(arena+hblkhd)
        204180 MiB available memory on the node where the printing process lives
------------------
     ethr =  1.80E-08,  avg # of iterations = 14.0

     negative rho (up, down):  5.640E-04 0.000E+00

     add environment contribution to local potential

     total cpu time spent up to now is     2946.9 secs

     total energy              =   -1022.91763190 Ry
     estimated scf accuracy    <       0.00002546 Ry

     total charge of GC-SCF    =      -8.69942323 e
     the Fermi energy          =      -1.66680821 eV
                        (error :       0.01280821 eV)
     electrostatic embedding   =      -7.33687008 Ry
     cavitation energy         =       0.04157217 Ry
     electrolyte free energy   =      -0.13831502 Ry
     correction to one-el term =     297.30616058 Ry

     iteration # 24     ecut=    80.00 Ry     beta= 0.20
     Davidson diagonalization with overlap

---- Real-time Memory Report at c_bands before calling an iterative solver
          1219 MiB given to the printing process from OS
             0 MiB allocation reported by mallinfo(arena+hblkhd)
        204539 MiB available memory on the node where the printing process lives
------------------
     ethr =  1.20E-08,  avg # of iterations = 15.5

     negative rho (up, down):  5.511E-04 0.000E+00

     add environment contribution to local potential

     total cpu time spent up to now is     3060.6 secs

     total energy              =   -1022.91785334 Ry
     estimated scf accuracy    <       0.00001235 Ry

     total charge of GC-SCF    =      -8.70818867 e
     the Fermi energy          =      -1.66044018 eV
                        (error :       0.00644018 eV)
     electrostatic embedding   =      -7.44750568 Ry
     cavitation energy         =       0.04157217 Ry
     electrolyte free energy   =      -0.14228928 Ry
     correction to one-el term =     298.97856695 Ry

     iteration # 25     ecut=    80.00 Ry     beta= 0.20
     Davidson diagonalization with overlap

---- Real-time Memory Report at c_bands before calling an iterative solver
          1219 MiB given to the printing process from OS
             0 MiB allocation reported by mallinfo(arena+hblkhd)
        204485 MiB available memory on the node where the printing process lives
------------------
     ethr =  5.80E-09,  avg # of iterations = 16.6

     negative rho (up, down):  5.428E-04 0.000E+00

     add environment contribution to local potential

     total cpu time spent up to now is     3173.0 secs

     total energy              =   -1022.91794388 Ry
     estimated scf accuracy    <       0.00000785 Ry

     total charge of GC-SCF    =      -8.74463507 e
     the Fermi energy          =      -1.66267770 eV
                        (error :       0.00867770 eV)
     electrostatic embedding   =      -7.43891240 Ry
     cavitation energy         =       0.04157217 Ry
     electrolyte free energy   =      -0.14258470 Ry
     correction to one-el term =     298.33701156 Ry

     iteration # 26     ecut=    80.00 Ry     beta= 0.20
     Davidson diagonalization with overlap

---- Real-time Memory Report at c_bands before calling an iterative solver
          1219 MiB given to the printing process from OS
             0 MiB allocation reported by mallinfo(arena+hblkhd)
        204370 MiB available memory on the node where the printing process lives
------------------
     ethr =  3.69E-09,  avg # of iterations = 15.8

     negative rho (up, down):  5.366E-04 0.000E+00

     add environment contribution to local potential

     total cpu time spent up to now is     3290.9 secs

     total energy              =   -1022.91831307 Ry
     estimated scf accuracy    <       0.00000332 Ry

     total charge of GC-SCF    =      -8.81827473 e
     the Fermi energy          =      -1.66285824 eV
                        (error :       0.00885824 eV)
     electrostatic embedding   =      -7.47947461 Ry
     cavitation energy         =       0.04157217 Ry
     electrolyte free energy   =      -0.14427705 Ry
     correction to one-el term =     298.71266624 Ry

     iteration # 27     ecut=    80.00 Ry     beta= 0.20
     Davidson diagonalization with overlap

---- Real-time Memory Report at c_bands before calling an iterative solver
          1219 MiB given to the printing process from OS
             0 MiB allocation reported by mallinfo(arena+hblkhd)
        204370 MiB available memory on the node where the printing process lives
------------------
     ethr =  1.56E-09,  avg # of iterations = 20.9

     negative rho (up, down):  5.342E-04 0.000E+00

     add environment contribution to local potential

     total cpu time spent up to now is     3413.3 secs

     total energy              =   -1022.91812805 Ry
     estimated scf accuracy    <       0.00000199 Ry

     total charge of GC-SCF    =      -8.81436243 e
     the Fermi energy          =      -1.65275844 eV
                        (error :       0.00124156 eV)
     electrostatic embedding   =      -7.58268919 Ry
     cavitation energy         =       0.04157217 Ry
     electrolyte free energy   =      -0.14795493 Ry
     correction to one-el term =     300.39674502 Ry

     iteration # 28     ecut=    80.00 Ry     beta= 0.20
     Davidson diagonalization with overlap

---- Real-time Memory Report at c_bands before calling an iterative solver
          1219 MiB given to the printing process from OS
             0 MiB allocation reported by mallinfo(arena+hblkhd)
        204158 MiB available memory on the node where the printing process lives
------------------
     ethr =  9.34E-10,  avg # of iterations = 13.2

     negative rho (up, down):  5.321E-04 0.000E+00

     add environment contribution to local potential

     total cpu time spent up to now is     3513.9 secs

     total energy              =   -1022.91821604 Ry
     estimated scf accuracy    <       0.00000132 Ry

     total charge of GC-SCF    =      -8.84903155 e
     the Fermi energy          =      -1.65479594 eV
                        (error :       0.00079594 eV)
     electrostatic embedding   =      -7.57183585 Ry
     cavitation energy         =       0.04157217 Ry
     electrolyte free energy   =      -0.14771199 Ry
     correction to one-el term =     300.05711703 Ry

     iteration # 29     ecut=    80.00 Ry     beta= 0.20
     Davidson diagonalization with overlap

---- Real-time Memory Report at c_bands before calling an iterative solver
          1219 MiB given to the printing process from OS
             0 MiB allocation reported by mallinfo(arena+hblkhd)
        204417 MiB available memory on the node where the printing process lives
------------------
     ethr =  6.19E-10,  avg # of iterations = 14.2

     negative rho (up, down):  5.313E-04 0.000E+00

     add environment contribution to local potential

     total cpu time spent up to now is     3614.5 secs

     total energy              =   -1022.91812483 Ry
     estimated scf accuracy    <       0.00000067 Ry

     total charge of GC-SCF    =      -8.83548978 e
     the Fermi energy          =      -1.64975355 eV
                        (error :       0.00424645 eV)
     electrostatic embedding   =      -7.62424072 Ry
     cavitation energy         =       0.04157217 Ry
     electrolyte free energy   =      -0.14949181 Ry
     correction to one-el term =     301.01081829 Ry

     iteration # 30     ecut=    80.00 Ry     beta= 0.20
     Davidson diagonalization with overlap

---- Real-time Memory Report at c_bands before calling an iterative solver
          1219 MiB given to the printing process from OS
             0 MiB allocation reported by mallinfo(arena+hblkhd)
        204330 MiB available memory on the node where the printing process lives
------------------
     ethr =  3.16E-10,  avg # of iterations = 12.0

     negative rho (up, down):  5.301E-04 0.000E+00

     add environment contribution to local potential

     total cpu time spent up to now is     3713.0 secs

     total energy              =   -1022.91813648 Ry
     estimated scf accuracy    <       0.00000018 Ry

     total charge of GC-SCF    =      -8.83882077 e
     the Fermi energy          =      -1.65118118 eV
                        (error :       0.00281882 eV)
     electrostatic embedding   =      -7.60560721 Ry
     cavitation energy         =       0.04157217 Ry
     electrolyte free energy   =      -0.14881493 Ry
     correction to one-el term =     300.74070241 Ry

     iteration # 31     ecut=    80.00 Ry     beta= 0.20
     Davidson diagonalization with overlap

---- Real-time Memory Report at c_bands before calling an iterative solver
          1219 MiB given to the printing process from OS
             0 MiB allocation reported by mallinfo(arena+hblkhd)
        204355 MiB available memory on the node where the printing process lives
------------------
     ethr =  8.62E-11,  avg # of iterations = 18.4

     negative rho (up, down):  5.302E-04 0.000E+00

     add environment contribution to local potential

     total cpu time spent up to now is     3821.7 secs

     total energy              =   -1022.91814557 Ry
     estimated scf accuracy    <       0.00000017 Ry

     total charge of GC-SCF    =      -8.81780828 e
     the Fermi energy          =      -1.65136899 eV
                        (error :       0.00263101 eV)
     electrostatic embedding   =      -7.60995341 Ry
     cavitation energy         =       0.04157217 Ry
     electrolyte free energy   =      -0.14897579 Ry
     correction to one-el term =     300.79766345 Ry

     iteration # 32     ecut=    80.00 Ry     beta= 0.20
     Davidson diagonalization with overlap

---- Real-time Memory Report at c_bands before calling an iterative solver
          1219 MiB given to the printing process from OS
             0 MiB allocation reported by mallinfo(arena+hblkhd)
        204230 MiB available memory on the node where the printing process lives
------------------
     ethr =  7.87E-11,  avg # of iterations = 22.6

     negative rho (up, down):  5.269E-04 0.000E+00

     total cpu time spent up to now is     3928.2 secs

     End of self-consistent calculation

          k = 0.0000 0.0000 0.0000 (425513 PWs)   bands (ev):

   -48.6815 -48.6814 -48.6809 -48.6808 -48.6278 -48.6277 -48.6271 -48.6270
   -48.5995 -48.5994 -48.5987 -48.5987 -48.3213 -48.3211 -48.3207 -48.3205
   -48.2811 -48.2810 -48.2801 -48.2800 -48.2485 -48.2484 -48.2474 -48.2474
   -48.1988 -48.1987 -48.1977 -48.1975 -48.1857 -48.1828 -48.1808 -48.1798
   -48.1792 -48.1747 -48.1746 -48.1741 -48.1721 -48.1717 -48.1715 -48.1703
   -48.1693 -48.1687 -48.1677 -48.1668 -48.1643 -48.1642 -48.1632 -48.1632
   -48.1628 -48.1628 -48.1625 -48.1617 -48.1587 -48.1569 -48.1558 -48.1548
   -48.1537 -48.1534 -48.1531 -48.1521 -48.1285 -48.1279 -48.1273 -48.1266
   -48.0942 -48.0939 -48.0928 -48.0925  -5.1320  -4.8675  -4.4334  -4.0108
    -4.0095  -3.8783  -3.8692  -3.8676  -3.7294  -3.7291  -3.5912  -3.5903
    -3.3035  -3.2986  -3.2810  -3.2645  -3.2601  -3.1415  -3.1313  -3.0135
    -3.0009  -2.6622  -2.6567  -2.6035  -2.5943  -2.5651  -2.5078  -2.4783
    -2.2334  -2.2328  -2.0573  -2.0204  -2.0008  -1.9421  -1.9344  -1.9191
    -1.9038  -1.7970  -1.7197  -1.5268  -1.4491  -1.4004  -1.3239  -1.3238
    -1.2966  -1.2754  -1.1767  -1.1667  -0.9993  -0.9818  -0.9215  -0.8794
    -0.8284  -0.7782  -0.7248  -0.7201  -0.6902  -0.6512  -0.5621  -0.5464
    -0.5310  -0.5103  -0.4382  -0.3893  -0.3444  -0.3301  -0.1974  -0.0918
    -0.0289  -0.0285   0.0311   0.0372   0.0865   0.1170   0.1385   0.1548
     0.1574   0.2041   0.2515   0.3219   0.4553   0.4958   0.5408   0.6736
     0.6995

     occupation numbers 
     1.0000   1.0000   1.0000   1.0000   1.0000   1.0000   1.0000   1.0000
     1.0000   1.0000   1.0000   1.0000   1.0000   1.0000   1.0000   1.0000
     1.0000   1.0000   1.0000   1.0000   1.0000   1.0000   1.0000   1.0000
     1.0000   1.0000   1.0000   1.0000   1.0000   1.0000   1.0000   1.0000
     1.0000   1.0000   1.0000   1.0000   1.0000   1.0000   1.0000   1.0000
     1.0000   1.0000   1.0000   1.0000   1.0000   1.0000   1.0000   1.0000
     1.0000   1.0000   1.0000   1.0000   1.0000   1.0000   1.0000   1.0000
     1.0000   1.0000   1.0000   1.0000   1.0000   1.0000   1.0000   1.0000
     1.0000   1.0000   1.0000   1.0000   1.0000   1.0000   1.0000   1.0000
     1.0000   1.0000   1.0000   1.0000   1.0000   1.0000   1.0000   1.0000
     1.0000   1.0000   1.0000   1.0000   1.0000   1.0000   1.0000   1.0000
     1.0000   1.0000   1.0000   1.0000   1.0000   1.0000   1.0000   1.0000
     1.0000   1.0000   1.0017   1.0052   1.0088   1.0314   1.0359   1.0457
     1.0562   1.0416   0.7563   0.0373   0.0039   0.0007   0.0000   0.0000
     0.0000   0.0000   0.0000   0.0000   0.0000   0.0000   0.0000   0.0000
     0.0000   0.0000   0.0000   0.0000   0.0000   0.0000   0.0000   0.0000
     0.0000   0.0000   0.0000   0.0000   0.0000   0.0000   0.0000   0.0000
     0.0000   0.0000   0.0000   0.0000   0.0000   0.0000   0.0000   0.0000
     0.0000   0.0000   0.0000   0.0000   0.0000   0.0000   0.0000   0.0000
     0.0000

          k = 0.0000 0.1386 0.0000 (425461 PWs)   bands (ev):

   -48.6815 -48.6814 -48.6809 -48.6808 -48.6278 -48.6277 -48.6271 -48.6270
   -48.5995 -48.5994 -48.5987 -48.5987 -48.3213 -48.3211 -48.3207 -48.3205
   -48.2811 -48.2810 -48.2801 -48.2800 -48.2485 -48.2484 -48.2474 -48.2474
   -48.1988 -48.1987 -48.1977 -48.1975 -48.1856 -48.1828 -48.1808 -48.1799
   -48.1792 -48.1747 -48.1746 -48.1741 -48.1720 -48.1717 -48.1715 -48.1703
   -48.1692 -48.1687 -48.1677 -48.1668 -48.1643 -48.1642 -48.1632 -48.1632
   -48.1628 -48.1628 -48.1625 -48.1617 -48.1587 -48.1568 -48.1558 -48.1548
   -48.1537 -48.1534 -48.1531 -48.1521 -48.1285 -48.1279 -48.1273 -48.1266
   -48.0942 -48.0939 -48.0928 -48.0925  -5.1090  -4.8442  -4.4099  -4.3065
    -4.0286  -3.9269  -3.8598  -3.7636  -3.6629  -3.6497  -3.5658  -3.5218
    -3.4817  -3.3866  -3.2551  -3.2404  -3.1911  -3.0415  -3.0152  -2.9707
    -2.9142  -2.7706  -2.7498  -2.6169  -2.5756  -2.5668  -2.4261  -2.3355
    -2.2942  -2.2906  -2.2595  -2.1769  -1.9698  -1.8794  -1.8280  -1.7933
    -1.7578  -1.6745  -1.6512  -1.5741  -1.5432  -1.5323  -1.4158  -1.3643
    -1.2953  -1.1875  -1.1557  -1.1115  -1.1110  -1.0811  -1.0194  -0.9957
    -0.9867  -0.9363  -0.8542  -0.7482  -0.7207  -0.6544  -0.6152  -0.5223
    -0.4773  -0.4344  -0.3605  -0.3046  -0.2810  -0.1029  -0.0757  -0.0749
    -0.0576  -0.0569  -0.0283   0.0168   0.0420   0.1696   0.2130   0.2186
     0.2310   0.2854   0.3427   0.4044   0.4592   0.5079   0.5846   0.7014
     0.7277

     occupation numbers 
     1.0000   1.0000   1.0000   1.0000   1.0000   1.0000   1.0000   1.0000
     1.0000   1.0000   1.0000   1.0000   1.0000   1.0000   1.0000   1.0000
     1.0000   1.0000   1.0000   1.0000   1.0000   1.0000   1.0000   1.0000
     1.0000   1.0000   1.0000   1.0000   1.0000   1.0000   1.0000   1.0000
     1.0000   1.0000   1.0000   1.0000   1.0000   1.0000   1.0000   1.0000
     1.0000   1.0000   1.0000   1.0000   1.0000   1.0000   1.0000   1.0000
     1.0000   1.0000   1.0000   1.0000   1.0000   1.0000   1.0000   1.0000
     1.0000   1.0000   1.0000   1.0000   1.0000   1.0000   1.0000   1.0000
     1.0000   1.0000   1.0000   1.0000   1.0000   1.0000   1.0000   1.0000
     1.0000   1.0000   1.0000   1.0000   1.0000   1.0000   1.0000   1.0000
     1.0000   1.0000   1.0000   1.0000   1.0000   1.0000   1.0000   1.0000
     1.0000   1.0000   1.0000   1.0000   1.0000   1.0000   1.0000   1.0000
     1.0000   1.0000   1.0000   1.0000   1.0182   1.0721   1.0785   1.0342
     0.9299   0.5099   0.3878   0.1088   0.0554   0.0427   0.0012   0.0002
     0.0000   0.0000   0.0000   0.0000   0.0000   0.0000   0.0000   0.0000
     0.0000   0.0000   0.0000   0.0000   0.0000   0.0000   0.0000   0.0000
     0.0000   0.0000   0.0000   0.0000   0.0000   0.0000   0.0000   0.0000
     0.0000   0.0000   0.0000   0.0000   0.0000   0.0000   0.0000   0.0000
     0.0000   0.0000   0.0000   0.0000   0.0000   0.0000   0.0000   0.0000
     0.0000

          k = 0.0000 0.2772 0.0000 (425344 PWs)   bands (ev):

   -48.6815 -48.6814 -48.6809 -48.6808 -48.6278 -48.6277 -48.6271 -48.6270
   -48.5995 -48.5994 -48.5987 -48.5987 -48.3213 -48.3211 -48.3207 -48.3205
   -48.2811 -48.2810 -48.2801 -48.2800 -48.2485 -48.2484 -48.2474 -48.2474
   -48.1988 -48.1987 -48.1976 -48.1975 -48.1854 -48.1828 -48.1811 -48.1800
   -48.1792 -48.1748 -48.1747 -48.1741 -48.1718 -48.1717 -48.1714 -48.1702
   -48.1691 -48.1687 -48.1677 -48.1667 -48.1643 -48.1643 -48.1635 -48.1632
   -48.1628 -48.1628 -48.1625 -48.1617 -48.1587 -48.1566 -48.1558 -48.1548
   -48.1538 -48.1534 -48.1532 -48.1521 -48.1285 -48.1279 -48.1273 -48.1266
   -48.0942 -48.0939 -48.0928 -48.0925  -5.0403  -4.7747  -4.5582  -4.3464
    -4.2746  -3.9386  -3.8483  -3.7612  -3.6948  -3.6615  -3.6111  -3.4143
    -3.3313  -3.2762  -3.2670  -3.2030  -3.1549  -2.9921  -2.9454  -2.8977
    -2.8625  -2.7449  -2.6437  -2.6156  -2.6011  -2.5288  -2.4537  -2.4499
    -2.3559  -2.2716  -2.1102  -1.9861  -1.9530  -1.9525  -1.9397  -1.8436
    -1.7628  -1.7082  -1.6806  -1.5908  -1.5541  -1.5296  -1.4414  -1.3994
    -1.3979  -1.3817  -1.2932  -1.2452  -1.2005  -1.1485  -1.1003  -1.0407
    -0.9763  -0.8740  -0.8350  -0.8282  -0.7934  -0.7199  -0.6269  -0.5170
    -0.4091  -0.3599  -0.3411  -0.2338  -0.2027  -0.1923  -0.1033  -0.0416
     0.0139   0.0204   0.0311   0.0898   0.1565   0.2347   0.2659   0.3363
     0.3741   0.3874   0.4694   0.5213   0.5489   0.5933   0.6675   0.6862
     0.7237

     occupation numbers 
     1.0000   1.0000   1.0000   1.0000   1.0000   1.0000   1.0000   1.0000
     1.0000   1.0000   1.0000   1.0000   1.0000   1.0000   1.0000   1.0000
     1.0000   1.0000   1.0000   1.0000   1.0000   1.0000   1.0000   1.0000
     1.0000   1.0000   1.0000   1.0000   1.0000   1.0000   1.0000   1.0000
     1.0000   1.0000   1.0000   1.0000   1.0000   1.0000   1.0000   1.0000
     1.0000   1.0000   1.0000   1.0000   1.0000   1.0000   1.0000   1.0000
     1.0000   1.0000   1.0000   1.0000   1.0000   1.0000   1.0000   1.0000
     1.0000   1.0000   1.0000   1.0000   1.0000   1.0000   1.0000   1.0000
     1.0000   1.0000   1.0000   1.0000   1.0000   1.0000   1.0000   1.0000
     1.0000   1.0000   1.0000   1.0000   1.0000   1.0000   1.0000   1.0000
     1.0000   1.0000   1.0000   1.0000   1.0000   1.0000   1.0000   1.0000
     1.0000   1.0000   1.0000   1.0000   1.0000   1.0000   1.0000   1.0000
     1.0000   1.0000   1.0003   1.0126   1.0256   1.0258   1.0328   1.0832
     0.9484   0.6953   0.5431   0.1505   0.0711   0.0399   0.0030   0.0007
     0.0006   0.0003   0.0000   0.0000   0.0000   0.0000   0.0000   0.0000
     0.0000   0.0000   0.0000   0.0000   0.0000   0.0000   0.0000   0.0000
     0.0000   0.0000   0.0000   0.0000   0.0000   0.0000   0.0000   0.0000
     0.0000   0.0000   0.0000   0.0000   0.0000   0.0000   0.0000   0.0000
     0.0000   0.0000   0.0000   0.0000   0.0000   0.0000   0.0000   0.0000
     0.0000

          k = 0.0000 0.4158 0.0000 (425441 PWs)   bands (ev):

   -48.6815 -48.6814 -48.6809 -48.6808 -48.6278 -48.6277 -48.6271 -48.6270
   -48.5995 -48.5994 -48.5987 -48.5987 -48.3213 -48.3211 -48.3207 -48.3205
   -48.2811 -48.2810 -48.2801 -48.2800 -48.2485 -48.2484 -48.2474 -48.2474
   -48.1988 -48.1987 -48.1976 -48.1975 -48.1852 -48.1828 -48.1814 -48.1800
   -48.1792 -48.1749 -48.1747 -48.1741 -48.1717 -48.1716 -48.1715 -48.1702
   -48.1691 -48.1687 -48.1677 -48.1666 -48.1643 -48.1643 -48.1636 -48.1632
   -48.1628 -48.1628 -48.1625 -48.1617 -48.1587 -48.1564 -48.1558 -48.1548
   -48.1538 -48.1534 -48.1533 -48.1521 -48.1285 -48.1279 -48.1273 -48.1266
   -48.0942 -48.0939 -48.0928 -48.0925  -4.9260  -4.7652  -4.6580  -4.4959
    -4.2140  -4.0481  -3.9035  -3.8217  -3.6499  -3.6261  -3.5440  -3.4761
    -3.4149  -3.1764  -3.1691  -3.1451  -3.0650  -3.0390  -2.8853  -2.8601
    -2.8420  -2.6709  -2.5859  -2.5618  -2.4825  -2.4082  -2.3922  -2.3681
    -2.3422  -2.1730  -2.1246  -2.1176  -2.0871  -2.0770  -2.0555  -1.9389
    -1.8861  -1.7668  -1.7331  -1.6699  -1.6136  -1.5784  -1.5210  -1.4200
    -1.3520  -1.3150  -1.2604  -1.2490  -1.2488  -1.1929  -1.1102  -1.0937
    -1.0268  -0.9249  -0.8941  -0.8344  -0.7210  -0.6114  -0.5382  -0.5128
    -0.5040  -0.4587  -0.2529  -0.2417  -0.1230  -0.0634  -0.0021   0.0031
     0.0548   0.0620   0.1496   0.1833   0.2166   0.2439   0.3257   0.3572
     0.3914   0.4002   0.4211   0.4519   0.4571   0.4694   0.5268   0.6522
     0.6673

     occupation numbers 
     1.0000   1.0000   1.0000   1.0000   1.0000   1.0000   1.0000   1.0000
     1.0000   1.0000   1.0000   1.0000   1.0000   1.0000   1.0000   1.0000
     1.0000   1.0000   1.0000   1.0000   1.0000   1.0000   1.0000   1.0000
     1.0000   1.0000   1.0000   1.0000   1.0000   1.0000   1.0000   1.0000
     1.0000   1.0000   1.0000   1.0000   1.0000   1.0000   1.0000   1.0000
     1.0000   1.0000   1.0000   1.0000   1.0000   1.0000   1.0000   1.0000
     1.0000   1.0000   1.0000   1.0000   1.0000   1.0000   1.0000   1.0000
     1.0000   1.0000   1.0000   1.0000   1.0000   1.0000   1.0000   1.0000
     1.0000   1.0000   1.0000   1.0000   1.0000   1.0000   1.0000   1.0000
     1.0000   1.0000   1.0000   1.0000   1.0000   1.0000   1.0000   1.0000
     1.0000   1.0000   1.0000   1.0000   1.0000   1.0000   1.0000   1.0000
     1.0000   1.0000   1.0000   1.0000   1.0000   1.0000   1.0000   1.0000
     1.0000   1.0000   1.0002   1.0002   1.0006   1.0009   1.0018   1.0332
     1.0680   0.9624   0.8231   0.4846   0.2242   0.1186   0.0322   0.0014
     0.0001   0.0000   0.0000   0.0000   0.0000   0.0000   0.0000   0.0000
     0.0000   0.0000   0.0000   0.0000   0.0000   0.0000   0.0000   0.0000
     0.0000   0.0000   0.0000   0.0000   0.0000   0.0000   0.0000   0.0000
     0.0000   0.0000   0.0000   0.0000   0.0000   0.0000   0.0000   0.0000
     0.0000   0.0000   0.0000   0.0000   0.0000   0.0000   0.0000   0.0000
     0.0000

          k = 0.1429 0.0346 0.0000 (425499 PWs)   bands (ev):

   -48.6815 -48.6814 -48.6809 -48.6808 -48.6278 -48.6277 -48.6271 -48.6270
   -48.5995 -48.5994 -48.5987 -48.5987 -48.3213 -48.3211 -48.3207 -48.3205
   -48.2811 -48.2810 -48.2801 -48.2800 -48.2485 -48.2484 -48.2474 -48.2474
   -48.1988 -48.1987 -48.1976 -48.1976 -48.1856 -48.1829 -48.1807 -48.1797
   -48.1793 -48.1756 -48.1745 -48.1735 -48.1720 -48.1716 -48.1713 -48.1703
   -48.1692 -48.1688 -48.1678 -48.1669 -48.1643 -48.1642 -48.1632 -48.1631
   -48.1628 -48.1628 -48.1625 -48.1618 -48.1586 -48.1570 -48.1557 -48.1548
   -48.1538 -48.1533 -48.1532 -48.1522 -48.1285 -48.1279 -48.1272 -48.1267
   -48.0942 -48.0939 -48.0928 -48.0925  -5.1062  -4.8414  -4.4067  -4.2032
    -4.0638  -3.9287  -3.9076  -3.8483  -3.7836  -3.6230  -3.5583  -3.4846
    -3.4754  -3.3174  -3.2697  -3.2527  -3.2029  -3.1542  -2.9937  -2.9094
    -2.7831  -2.7537  -2.7149  -2.6814  -2.6247  -2.5687  -2.5484  -2.3562
    -2.3086  -2.2363  -2.1740  -2.0760  -2.0656  -1.8993  -1.8440  -1.8077
    -1.7594  -1.6998  -1.6100  -1.5305  -1.4960  -1.4223  -1.3523  -1.2759
    -1.2174  -1.2090  -1.1262  -1.0723  -1.0362  -1.0217  -0.9825  -0.9630
    -0.9506  -0.8447  -0.8343  -0.7795  -0.6807  -0.6676  -0.5805  -0.5482
    -0.5349  -0.4988  -0.4241  -0.3847  -0.3609  -0.2633  -0.2579  -0.1830
    -0.0976  -0.0880  -0.0578  -0.0055   0.0447   0.0504   0.1184   0.1467
     0.2400   0.2578   0.2693   0.4444   0.4618   0.4890   0.5322   0.6105
     0.6530

     occupation numbers 
     1.0000   1.0000   1.0000   1.0000   1.0000   1.0000   1.0000   1.0000
     1.0000   1.0000   1.0000   1.0000   1.0000   1.0000   1.0000   1.0000
     1.0000   1.0000   1.0000   1.0000   1.0000   1.0000   1.0000   1.0000
     1.0000   1.0000   1.0000   1.0000   1.0000   1.0000   1.0000   1.0000
     1.0000   1.0000   1.0000   1.0000   1.0000   1.0000   1.0000   1.0000
     1.0000   1.0000   1.0000   1.0000   1.0000   1.0000   1.0000   1.0000
     1.0000   1.0000   1.0000   1.0000   1.0000   1.0000   1.0000   1.0000
     1.0000   1.0000   1.0000   1.0000   1.0000   1.0000   1.0000   1.0000
     1.0000   1.0000   1.0000   1.0000   1.0000   1.0000   1.0000   1.0000
     1.0000   1.0000   1.0000   1.0000   1.0000   1.0000   1.0000   1.0000
     1.0000   1.0000   1.0000   1.0000   1.0000   1.0000   1.0000   1.0000
     1.0000   1.0000   1.0000   1.0000   1.0000   1.0000   1.0000   1.0000
     1.0000   1.0000   1.0000   1.0009   1.0013   1.0593   1.0833   1.0589
     0.9362   0.6493   0.2114   0.0409   0.0164   0.0015   0.0001   0.0000
     0.0000   0.0000   0.0000   0.0000   0.0000   0.0000   0.0000   0.0000
     0.0000   0.0000   0.0000   0.0000   0.0000   0.0000   0.0000   0.0000
     0.0000   0.0000   0.0000   0.0000   0.0000   0.0000   0.0000   0.0000
     0.0000   0.0000   0.0000   0.0000   0.0000   0.0000   0.0000   0.0000
     0.0000   0.0000   0.0000   0.0000   0.0000   0.0000   0.0000   0.0000
     0.0000

          k = 0.1429 0.1732 0.0000 (425402 PWs)   bands (ev):

   -48.6815 -48.6814 -48.6809 -48.6808 -48.6278 -48.6277 -48.6271 -48.6270
   -48.5995 -48.5994 -48.5987 -48.5987 -48.3213 -48.3211 -48.3207 -48.3205
   -48.2811 -48.2810 -48.2801 -48.2800 -48.2485 -48.2484 -48.2474 -48.2474
   -48.1988 -48.1987 -48.1976 -48.1976 -48.1855 -48.1830 -48.1808 -48.1798
   -48.1793 -48.1756 -48.1746 -48.1735 -48.1719 -48.1715 -48.1713 -48.1703
   -48.1691 -48.1689 -48.1678 -48.1669 -48.1643 -48.1642 -48.1633 -48.1632
   -48.1628 -48.1627 -48.1625 -48.1618 -48.1587 -48.1569 -48.1556 -48.1548
   -48.1538 -48.1533 -48.1533 -48.1522 -48.1285 -48.1279 -48.1272 -48.1267
   -48.0942 -48.0939 -48.0928 -48.0925  -5.0718  -4.8065  -4.3715  -4.3493
    -4.2497  -4.0714  -3.9756  -3.8207  -3.6082  -3.5465  -3.5223  -3.3666
    -3.2874  -3.2740  -3.2118  -3.2025  -3.0837  -3.0129  -3.0000  -2.9842
    -2.9342  -2.9186  -2.7966  -2.6853  -2.6069  -2.5441  -2.5120  -2.4428
    -2.3623  -2.3529  -2.1952  -2.1878  -1.9878  -1.8841  -1.8268  -1.7697
    -1.7615  -1.5702  -1.5700  -1.5300  -1.4937  -1.4178  -1.3573  -1.2885
    -1.2816  -1.2352  -1.1890  -1.1737  -1.1661  -1.0241  -1.0013  -0.9544
    -0.9398  -0.9127  -0.8697  -0.7860  -0.7662  -0.7269  -0.6670  -0.5095
    -0.4999  -0.4537  -0.4078  -0.3595  -0.2956  -0.2428  -0.1122  -0.0197
    -0.0122   0.0020   0.0075   0.0489   0.0496   0.1419   0.1904   0.2382
     0.2437   0.2827   0.3196   0.3524   0.4676   0.5311   0.5790   0.6215
     0.7447

     occupation numbers 
     1.0000   1.0000   1.0000   1.0000   1.0000   1.0000   1.0000   1.0000
     1.0000   1.0000   1.0000   1.0000   1.0000   1.0000   1.0000   1.0000
     1.0000   1.0000   1.0000   1.0000   1.0000   1.0000   1.0000   1.0000
     1.0000   1.0000   1.0000   1.0000   1.0000   1.0000   1.0000   1.0000
     1.0000   1.0000   1.0000   1.0000   1.0000   1.0000   1.0000   1.0000
     1.0000   1.0000   1.0000   1.0000   1.0000   1.0000   1.0000   1.0000
     1.0000   1.0000   1.0000   1.0000   1.0000   1.0000   1.0000   1.0000
     1.0000   1.0000   1.0000   1.0000   1.0000   1.0000   1.0000   1.0000
     1.0000   1.0000   1.0000   1.0000   1.0000   1.0000   1.0000   1.0000
     1.0000   1.0000   1.0000   1.0000   1.0000   1.0000   1.0000   1.0000
     1.0000   1.0000   1.0000   1.0000   1.0000   1.0000   1.0000   1.0000
     1.0000   1.0000   1.0000   1.0000   1.0000   1.0000   1.0000   1.0000
     1.0000   1.0000   1.0000   1.0000   1.0121   1.0693   1.0777   0.9720
     0.9440   0.1005   0.1001   0.0403   0.0154   0.0013   0.0001   0.0000
     0.0000   0.0000   0.0000   0.0000   0.0000   0.0000   0.0000   0.0000
     0.0000   0.0000   0.0000   0.0000   0.0000   0.0000   0.0000   0.0000
     0.0000   0.0000   0.0000   0.0000   0.0000   0.0000   0.0000   0.0000
     0.0000   0.0000   0.0000   0.0000   0.0000   0.0000   0.0000   0.0000
     0.0000   0.0000   0.0000   0.0000   0.0000   0.0000   0.0000   0.0000
     0.0000

          k = 0.1429 0.3118 0.0000 (425381 PWs)   bands (ev):

   -48.6815 -48.6814 -48.6809 -48.6808 -48.6278 -48.6277 -48.6271 -48.6270
   -48.5995 -48.5994 -48.5987 -48.5987 -48.3213 -48.3211 -48.3207 -48.3205
   -48.2811 -48.2810 -48.2801 -48.2800 -48.2485 -48.2484 -48.2474 -48.2474
   -48.1988 -48.1987 -48.1976 -48.1976 -48.1852 -48.1830 -48.1811 -48.1799
   -48.1793 -48.1756 -48.1747 -48.1735 -48.1717 -48.1715 -48.1713 -48.1702
   -48.1690 -48.1689 -48.1678 -48.1668 -48.1643 -48.1642 -48.1635 -48.1632
   -48.1629 -48.1627 -48.1625 -48.1618 -48.1587 -48.1566 -48.1556 -48.1548
   -48.1539 -48.1534 -48.1533 -48.1522 -48.1285 -48.1279 -48.1272 -48.1267
   -48.0942 -48.0939 -48.0928 -48.0925  -4.9916  -4.7256  -4.5895  -4.3310
    -4.2710  -4.2497  -3.9756  -3.8718  -3.7172  -3.5223  -3.3666  -3.2930
    -3.2875  -3.2025  -3.1481  -3.1088  -3.0837  -2.9999  -2.9842  -2.9342
    -2.9186  -2.8655  -2.6853  -2.6707  -2.6069  -2.5120  -2.4428  -2.4207
    -2.3915  -2.3529  -2.1952  -1.9877  -1.9824  -1.9656  -1.8839  -1.8265
    -1.8221  -1.7619  -1.6839  -1.5701  -1.4934  -1.4890  -1.3879  -1.3818
    -1.3578  -1.2890  -1.2353  -1.1891  -1.1663  -1.1142  -1.0702  -1.0240
    -1.0176  -0.9545  -0.8694  -0.7911  -0.7271  -0.6671  -0.5089  -0.4951
    -0.4888  -0.4506  -0.4078  -0.3603  -0.2426  -0.2175  -0.1356  -0.0159
     0.0020   0.0487   0.0917   0.1233   0.1905   0.2114   0.2384   0.2709
     0.3474   0.3526   0.4067   0.4390   0.4786   0.5259   0.5850   0.6219
     0.6304

     occupation numbers 
     1.0000   1.0000   1.0000   1.0000   1.0000   1.0000   1.0000   1.0000
     1.0000   1.0000   1.0000   1.0000   1.0000   1.0000   1.0000   1.0000
     1.0000   1.0000   1.0000   1.0000   1.0000   1.0000   1.0000   1.0000
     1.0000   1.0000   1.0000   1.0000   1.0000   1.0000   1.0000   1.0000
     1.0000   1.0000   1.0000   1.0000   1.0000   1.0000   1.0000   1.0000
     1.0000   1.0000   1.0000   1.0000   1.0000   1.0000   1.0000   1.0000
     1.0000   1.0000   1.0000   1.0000   1.0000   1.0000   1.0000   1.0000
     1.0000   1.0000   1.0000   1.0000   1.0000   1.0000   1.0000   1.0000
     1.0000   1.0000   1.0000   1.0000   1.0000   1.0000   1.0000   1.0000
     1.0000   1.0000   1.0000   1.0000   1.0000   1.0000   1.0000   1.0000
     1.0000   1.0000   1.0000   1.0000   1.0000   1.0000   1.0000   1.0000
     1.0000   1.0000   1.0000   1.0000   1.0000   1.0000   1.0000   1.0000
     1.0000   1.0000   1.0000   1.0121   1.0137   1.0198   1.0694   1.0775
     1.0745   0.9454   0.5615   0.1003   0.0152   0.0134   0.0004   0.0003
     0.0001   0.0000   0.0000   0.0000   0.0000   0.0000   0.0000   0.0000
     0.0000   0.0000   0.0000   0.0000   0.0000   0.0000   0.0000   0.0000
     0.0000   0.0000   0.0000   0.0000   0.0000   0.0000   0.0000   0.0000
     0.0000   0.0000   0.0000   0.0000   0.0000   0.0000   0.0000   0.0000
     0.0000   0.0000   0.0000   0.0000   0.0000   0.0000   0.0000   0.0000
     0.0000

          k = 0.1429 0.4504 0.0000 (425406 PWs)   bands (ev):

   -48.6815 -48.6814 -48.6809 -48.6808 -48.6278 -48.6277 -48.6271 -48.6270
   -48.5995 -48.5994 -48.5987 -48.5987 -48.3213 -48.3211 -48.3207 -48.3205
   -48.2811 -48.2810 -48.2801 -48.2800 -48.2485 -48.2484 -48.2474 -48.2474
   -48.1988 -48.1987 -48.1976 -48.1976 -48.1850 -48.1829 -48.1813 -48.1799
   -48.1793 -48.1756 -48.1748 -48.1735 -48.1716 -48.1715 -48.1713 -48.1702
   -48.1690 -48.1688 -48.1678 -48.1668 -48.1643 -48.1642 -48.1636 -48.1632
[...]
     atom   61 type  1   force =     0.00000000    0.00000000    0.00000000
     atom   62 type  1   force =     0.00000000    0.00000000    0.00000000
     atom   63 type  1   force =     0.00000000    0.00000000    0.00000000
     atom   64 type  1   force =     0.00000000    0.00000000    0.00000000
     atom   65 type  1   force =     0.00000000    0.00000000    0.00000000
     atom   66 type  1   force =     0.00000000    0.00000000    0.00000000
     atom   67 type  1   force =     0.00000000    0.00000000    0.00000000
     atom   68 type  1   force =     0.00000000    0.00000000    0.00000000
     The SCF correction term to forces
     atom    1 type  1   force =    -0.00000001    0.00000038    0.00000018
     atom    2 type  1   force =     0.00000001    0.00000004   -0.00000030
     atom    3 type  1   force =     0.00000001   -0.00000021    0.00000072
     atom    4 type  1   force =     0.00000001    0.00000025   -0.00000131
     atom    5 type  1   force =     0.00000000    0.00000018   -0.00000049
     atom    6 type  1   force =     0.00000000   -0.00000010   -0.00000020
     atom    7 type  1   force =    -0.00000000   -0.00000001    0.00000033
     atom    8 type  1   force =     0.00000000   -0.00000004   -0.00000033
     atom    9 type  1   force =    -0.00000001   -0.00000000   -0.00000023
     atom   10 type  1   force =     0.00000001   -0.00000008    0.00000009
     atom   11 type  1   force =     0.00000000    0.00000021    0.00000042
     atom   12 type  1   force =     0.00000001    0.00000004    0.00000058
     atom   13 type  1   force =    -0.00000000    0.00000001   -0.00000002
     atom   14 type  1   force =    -0.00000000   -0.00000001    0.00000079
     atom   15 type  1   force =     0.00000001    0.00000010    0.00000017
     atom   16 type  1   force =    -0.00000000   -0.00000016    0.00000030
     atom   17 type  1   force =     0.00000001   -0.00000006    0.00000023
     atom   18 type  1   force =     0.00000001   -0.00000004   -0.00000007
     atom   19 type  1   force =     0.00000001   -0.00000007   -0.00000046
     atom   20 type  1   force =    -0.00000000   -0.00000019   -0.00000024
     atom   21 type  1   force =     0.00000000    0.00000003   -0.00000058
     atom   22 type  1   force =     0.00000000    0.00000002   -0.00000001
     atom   23 type  1   force =    -0.00000000   -0.00000003    0.00000034
     atom   24 type  1   force =     0.00000000   -0.00000020    0.00000062
     atom   25 type  1   force =     0.00000000    0.00000010    0.00000023
     atom   26 type  1   force =     0.00000001    0.00000002    0.00000051
     atom   27 type  1   force =     0.00000000    0.00000007    0.00000047
     atom   28 type  1   force =    -0.00000000    0.00000019   -0.00000061
     atom   29 type  1   force =     0.00000001   -0.00000010    0.00000026
     atom   30 type  1   force =     0.00000001    0.00000006    0.00000040
     atom   31 type  1   force =    -0.00000000   -0.00000019    0.00000138
     atom   32 type  1   force =    -0.00000001   -0.00000036   -0.00000048
     atom   33 type  1   force =     0.00000000    0.00000002   -0.00000019
     atom   34 type  1   force =    -0.00000000    0.00000016   -0.00000019
     atom   35 type  1   force =    -0.00000001    0.00000036    0.00000020
     atom   36 type  1   force =     0.00000000    0.00000002   -0.00000032
     atom   37 type  1   force =     0.00000001   -0.00000020    0.00000073
     atom   38 type  1   force =     0.00000001    0.00000024   -0.00000132
     atom   39 type  1   force =     0.00000000    0.00000018   -0.00000050
     atom   40 type  1   force =     0.00000001   -0.00000011   -0.00000020
     atom   41 type  1   force =     0.00000000   -0.00000001    0.00000034
     atom   42 type  1   force =    -0.00000001   -0.00000005   -0.00000035
     atom   43 type  1   force =    -0.00000001   -0.00000000   -0.00000023
     atom   44 type  1   force =     0.00000001   -0.00000009    0.00000010
     atom   45 type  1   force =    -0.00000001    0.00000020    0.00000042
     atom   46 type  1   force =     0.00000002    0.00000004    0.00000058
     atom   47 type  1   force =    -0.00000001    0.00000001   -0.00000003
     atom   48 type  1   force =    -0.00000001   -0.00000001    0.00000079
     atom   49 type  1   force =    -0.00000000    0.00000010    0.00000017
     atom   50 type  1   force =     0.00000001   -0.00000016    0.00000028
     atom   51 type  1   force =     0.00000000   -0.00000007    0.00000026
     atom   52 type  1   force =     0.00000001   -0.00000005   -0.00000006
     atom   53 type  1   force =    -0.00000001   -0.00000007   -0.00000047
     atom   54 type  1   force =    -0.00000000   -0.00000018   -0.00000024
     atom   55 type  1   force =    -0.00000001    0.00000003   -0.00000059
     atom   56 type  1   force =    -0.00000000    0.00000001   -0.00000001
     atom   57 type  1   force =     0.00000001   -0.00000003    0.00000034
     atom   58 type  1   force =     0.00000000   -0.00000021    0.00000061
     atom   59 type  1   force =    -0.00000001    0.00000010    0.00000024
     atom   60 type  1   force =     0.00000000    0.00000002    0.00000052
     atom   61 type  1   force =     0.00000001    0.00000007    0.00000048
     atom   62 type  1   force =    -0.00000001    0.00000018   -0.00000062
     atom   63 type  1   force =     0.00000002   -0.00000010    0.00000025
     atom   64 type  1   force =     0.00000000    0.00000006    0.00000041
     atom   65 type  1   force =    -0.00000000   -0.00000019    0.00000139
     atom   66 type  1   force =    -0.00000001   -0.00000036   -0.00000050
     atom   67 type  1   force =     0.00000001    0.00000003   -0.00000019
     atom   68 type  1   force =     0.00000001    0.00000017   -0.00000021

     Total force =     0.002579     Total SCF correction =     0.000004
     Energy error            =      1.2E-05 Ry
     Gradient error          =      5.2E-04 Ry/Bohr

     number of scf cycles    =  13
     number of bfgs steps    =  12

     energy             old  =   -1022.9184164374 Ry
     energy             new  =   -1022.9184283316 Ry

     CASE: energy            _new < energy            _old

     new trust radius        =       0.0055208418 bohr
     new conv_thr            =            1.2E-12 Ry


ATOMIC_POSITIONS (angstrom)
Li              -0.0025312579        0.0441186152       20.0851387796
Li               0.0018674893        5.9189110724       33.1968959972
Li               2.4310831631        7.6042305530       31.7592639092
Li               2.4316017220        1.8032328074       32.3381799335
Li               0.0018653148        3.5859832944       30.6788962942
Li               2.4305705138        5.3036311905       29.1818009708
Li               2.4284980289        8.7904549182       25.8741383113
Li               0.0022060871        9.4669830147       29.9094766505
Li               0.0011984108        1.1783329828       28.2878281052
Li               2.4289695385        2.9353355250       26.6306589467
Li              -0.0015135475        4.7276029449       24.8107183311
Li               2.4271568530        6.4129081245       23.2582691304
Li               0.0004494452        7.0959051317       27.4054246145
Li               2.4271131115        0.5679171821       24.1157190355
Li              -0.0024010753        2.3785704526       22.3707047727
Li               2.4270975752        4.0090330951       20.8093996614
Li              -0.0022110900        8.3078951338       21.4916722837
Li               0.0023800286        0.5674401759       31.2510775693
Li               0.0018621111        6.5475770810       30.3648905806
Li               2.4305446187        8.2331077701       28.8130400995
Li               2.4309303553        2.3777211997       29.5077599772
Li               0.0005266568        4.1700898787       27.7504004157
Li               2.4285827797        5.8646545661       26.2190884447
Li               2.4271503070        9.3746470926       22.9442517347
Li               0.0000483998       10.0252269059       26.9939326346
Li              -0.0012256808        1.7673817117       25.3358230287
Li               2.4268154448        3.4936846834       23.7138870340
Li              -0.0020737447        5.3566011212       21.8622880212
Li               2.4271472263        7.0417529271       20.4246414076
Li              -0.0015431890        7.6568893556       24.4417827960
Li               2.4264330102        1.1426951555       21.2833708440
Li               0.0025714982        2.9015079910       33.5363103321
Li               2.4312273745        4.6530102658       32.1299001099
Li               0.0019189359        8.9518788799       32.8120899548
Li               4.8554663870        0.0440863137       20.0851500860
Li               4.8599394349        5.9188916072       33.1969241693
Li               7.2891698643        7.6042291450       31.7592653557
Li               7.2896579164        1.8032229895       32.3382451034
Li               4.8598846024        3.5859920081       30.6788868377
Li               7.2885925310        5.3036358922       29.1817688437
Li               7.2865704059        8.7904682401       25.8741423967
Li               4.8602465074        9.4669958896       29.9094168475
Li               4.8592738562        1.1783282337       28.2878431982
Li               7.2870343576        2.9353477949       26.6307018299
Li               4.8565153479        4.7275984960       24.8107073832
Li               7.2851903674        6.4129071942       23.2582335722
Li               4.8585076707        7.0959095496       27.4054578897
Li               7.2851525778        0.5679178540       24.1156254652
Li               4.8556742520        2.3785636917       22.3707178544
Li               7.2851451757        4.0090762702       20.8094392176
Li               4.8558356785        8.3079294537       21.4917152941
Li               4.8604499034        0.5674427138       31.2510849448
Li               4.8599131563        6.5475982847       30.3649276433
Li               7.2886113172        8.2331218888       28.8130400709
Li               7.2889763071        2.3777382484       29.5078128463
Li               4.8585507441        4.1700721133       27.7503890123
Li               7.2866129077        5.8646519291       26.2190587939
Li               7.2852237831        9.3746597144       22.9442566728
Li               4.8580879975       10.0252235674       26.9938617839
Li               4.8568493330        1.7673800468       25.3358319020
Li               7.2848648622        3.4936982620       23.7139253058
Li               4.8559362102        5.3565892561       21.8622924518
Li               7.2851629169        7.0417858282       20.4246176056
Li               4.8565154084        7.6568984247       24.4418154870
Li               7.2844720920        1.1426995202       21.2832507817
Li               4.8605875085        2.9014898270       33.5363031151
Li               7.2892628143        4.6529959875       32.1298591356
Li               4.8599580602        8.9518490033       32.8120188051



     Writing config-only to output data dir ./Li/Lithium.save/ :
     XML data file     NEW-OLD atomic charge density approx. for the potential

     negative rho (up, down):  5.514E-04 0.000E+00

     add environment contribution to local potential

     total cpu time spent up to now is    24987.4 secs

     Self-consistent Calculation

     iteration #  1     ecut=    80.00 Ry     beta= 0.20
     Davidson diagonalization with overlap

---- Real-time Memory Report at c_bands before calling an iterative solver
          1413 MiB given to the printing process from OS
             0 MiB allocation reported by mallinfo(arena+hblkhd)
        200663 MiB available memory on the node where the printing process lives
------------------
     ethr =  1.00E-06,  avg # of iterations =  3.0

     Threshold (ethr) on eigenvalues was too large:
     Diagonalizing with lowered threshold

     Davidson diagonalization with overlap

---- Real-time Memory Report at c_bands before calling an iterative solver
          1413 MiB given to the printing process from OS
             0 MiB allocation reported by mallinfo(arena+hblkhd)
        200256 MiB available memory on the node where the printing process lives
------------------
     ethr =  2.54E-10,  avg # of iterations = 18.6

     negative rho (up, down):  5.438E-04 0.000E+00

     add environment contribution to local potential

     total cpu time spent up to now is    25160.6 secs

     total energy              =   -1022.91844246 Ry
     estimated scf accuracy    <       0.00000067 Ry

     total charge of GC-SCF    =      -8.83299490 e
     the Fermi energy          =      -1.65578762 eV
                        (error :       0.00178762 eV)
     electrostatic embedding   =      -7.60673987 Ry
     cavitation energy         =       0.04154661 Ry
     electrolyte free energy   =      -0.14858420 Ry
     correction to one-el term =     301.06705142 Ry

     iteration #  2     ecut=    80.00 Ry     beta= 0.20
     Davidson diagonalization with overlap

---- Real-time Memory Report at c_bands before calling an iterative solver
          1413 MiB given to the printing process from OS
             0 MiB allocation reported by mallinfo(arena+hblkhd)
        200492 MiB available memory on the node where the printing process lives
------------------
     ethr =  3.15E-10,  avg # of iterations = 11.7

     negative rho (up, down):  5.387E-04 0.000E+00

     add environment contribution to local potential

     total cpu time spent up to now is    25255.4 secs

     total energy              =   -1022.91844446 Ry
     estimated scf accuracy    <       0.00000073 Ry

     total charge of GC-SCF    =      -8.83307995 e
     the Fermi energy          =      -1.65311756 eV
                        (error :       0.00088244 eV)
     electrostatic embedding   =      -7.60640136 Ry
     cavitation energy         =       0.04154661 Ry
     electrolyte free energy   =      -0.14861072 Ry
     correction to one-el term =     301.06980789 Ry

     iteration #  3     ecut=    80.00 Ry     beta= 0.20
     Davidson diagonalization with overlap

---- Real-time Memory Report at c_bands before calling an iterative solver
          1413 MiB given to the printing process from OS
             0 MiB allocation reported by mallinfo(arena+hblkhd)
        200595 MiB available memory on the node where the printing process lives
------------------
     ethr =  3.15E-10,  avg # of iterations = 12.4

     negative rho (up, down):  5.353E-04 0.000E+00

     add environment contribution to local potential

     total cpu time spent up to now is    25338.8 secs

     total energy              =   -1022.91844843 Ry
     estimated scf accuracy    <       0.00000009 Ry

     total charge of GC-SCF    =      -8.83308149 e
     the Fermi energy          =      -1.65423526 eV
                        (error :       0.00023526 eV)
     electrostatic embedding   =      -7.60673793 Ry
     cavitation energy         =       0.04154661 Ry
     electrolyte free energy   =      -0.14860595 Ry
     correction to one-el term =     301.07500241 Ry

     iteration #  4     ecut=    80.00 Ry     beta= 0.20
     Davidson diagonalization with overlap

---- Real-time Memory Report at c_bands before calling an iterative solver
          1413 MiB given to the printing process from OS
             0 MiB allocation reported by mallinfo(arena+hblkhd)
        200882 MiB available memory on the node where the printing process lives
------------------
     ethr =  4.23E-11,  avg # of iterations = 12.2

     negative rho (up, down):  5.331E-04 0.000E+00

     add environment contribution to local potential

     total cpu time spent up to now is    25426.9 secs

     total energy              =   -1022.91844955 Ry
     estimated scf accuracy    <       0.00000004 Ry

     total charge of GC-SCF    =      -8.83310539 e
     the Fermi energy          =      -1.65426120 eV
                        (error :       0.00026120 eV)
     electrostatic embedding   =      -7.60676666 Ry
     cavitation energy         =       0.04154661 Ry
     electrolyte free energy   =      -0.14860628 Ry
     correction to one-el term =     301.07775923 Ry

     iteration #  5     ecut=    80.00 Ry     beta= 0.20
     Davidson diagonalization with overlap

---- Real-time Memory Report at c_bands before calling an iterative solver
          1413 MiB given to the printing process from OS
             0 MiB allocation reported by mallinfo(arena+hblkhd)
        201172 MiB available memory on the node where the printing process lives
------------------
     ethr =  1.95E-11,  avg # of iterations = 12.2

     negative rho (up, down):  5.316E-04 0.000E+00

     add environment contribution to local potential

     total cpu time spent up to now is    25524.9 secs

     total energy              =   -1022.91844958 Ry
     estimated scf accuracy    <       0.00000007 Ry

     total charge of GC-SCF    =      -8.83317075 e
     the Fermi energy          =      -1.65422602 eV
                        (error :       0.00022602 eV)
     electrostatic embedding   =      -7.60682986 Ry
     cavitation energy         =       0.04154661 Ry
     electrolyte free energy   =      -0.14860824 Ry
     correction to one-el term =     301.08130707 Ry

     iteration #  6     ecut=    80.00 Ry     beta= 0.20
     Davidson diagonalization with overlap

---- Real-time Memory Report at c_bands before calling an iterative solver
          1413 MiB given to the printing process from OS
             0 MiB allocation reported by mallinfo(arena+hblkhd)
        201352 MiB available memory on the node where the printing process lives
------------------
     ethr =  1.95E-11,  avg # of iterations = 10.1

     negative rho (up, down):  5.305E-04 0.000E+00

     add environment contribution to local potential

     total cpu time spent up to now is    25608.4 secs

     total energy              =   -1022.91844990 Ry
     estimated scf accuracy    <       0.00000001 Ry

     total charge of GC-SCF    =      -8.83325066 e
     the Fermi energy          =      -1.65404725 eV
                        (error :       0.00004725 eV)
     electrostatic embedding   =      -7.60692843 Ry
     cavitation energy         =       0.04154661 Ry
     electrolyte free energy   =      -0.14861336 Ry
     correction to one-el term =     301.08518585 Ry

     iteration #  7     ecut=    80.00 Ry     beta= 0.20
     Davidson diagonalization with overlap

---- Real-time Memory Report at c_bands before calling an iterative solver
          1413 MiB given to the printing process from OS
             0 MiB allocation reported by mallinfo(arena+hblkhd)
        201392 MiB available memory on the node where the printing process lives
------------------
     ethr =  6.24E-12,  avg # of iterations = 12.2

     negative rho (up, down):  5.298E-04 0.000E+00

     add environment contribution to local potential

     total cpu time spent up to now is    25696.5 secs

     total energy              =   -1022.91844987 Ry
     estimated scf accuracy    <          5.5E-09 Ry

     total charge of GC-SCF    =      -8.83338156 e
     the Fermi energy          =      -1.65407924 eV
                        (error :       0.00007924 eV)
     electrostatic embedding   =      -7.60707731 Ry
     cavitation energy         =       0.04154661 Ry
     electrolyte free energy   =      -0.14861729 Ry
     correction to one-el term =     301.08887634 Ry

     iteration #  8     ecut=    80.00 Ry     beta= 0.20
     Davidson diagonalization with overlap

---- Real-time Memory Report at c_bands before calling an iterative solver
          1413 MiB given to the printing process from OS
             0 MiB allocation reported by mallinfo(arena+hblkhd)
        201323 MiB available memory on the node where the printing process lives
------------------
