
     Program PWSCF v.7.4 starts on 27Dec2024 at 19:57:48 

     This program is part of the open-source Quantum ESPRESSO suite
     for quantum simulation of materials; please cite
         "P. Giannozzi et al., J. Phys.:Condens. Matter 21 395502 (2009);
         "P. Giannozzi et al., J. Phys.:Condens. Matter 29 465901 (2017);
         "P. Giannozzi et al., J. Chem. Phys. 152 154105 (2020);
          URL http://www.quantum-espresso.org", 
     in publications or presentations arising from this work. More details at
     http://www.quantum-espresso.org/quote

     Parallel version (MPI & OpenMP), running on     192 processor cores
     Number of MPI processes:               192
     Threads/MPI process:                     1

     MPI processes distributed on     1 nodes
     649694 MiB available memory on the printing compute node when the environment starts
 
     Reading input from espresso.pwi
Warning: card &CELL ignored
Warning: card    PRESS_CONV_THR   = 0.1 ignored
Warning: card    CELL_DOFREE      = 'ALL' ignored
Warning: card / ignored
Warning: card &FCP ignored
Warning: card / ignored
Warning: card &RISM ignored
Warning: card / ignored

     Current dimensions of program PWSCF are:
     Max number of different atomic species (ntypx) = 10
     Max number of k-points (npk) =  40000
     Max angular momentum in pseudopotentials (lmaxx) =  4

     IMPORTANT: XC functional enforced from input :
     Exchange-correlation= PBE
                           (   1   4   3   4   0   0   0)
     Any further DFT definition will be discarded
     Please, verify this is what you really want

 
     Reading input from environ.in:
     * using ionic solvent mode
     * setting boundary derivatives method to SSCS default
     * setting electrolyte-boundary derivatives method to SSCS default

Environ Warning (1001): card EOF ignored

     
     Found identity + ( -0.5000  0.0000 -0.0000) symmetry
     This is a supercell, fractional translations are disabled
 
     R & G space division:  proc/nbgrp/npool/nimage =     192
     Subspace diagonalization in iterative solution of the eigenvalue problem:
     a serial algorithm will be used

 
     Parallelization info
     --------------------
     sticks:   dense  smooth     PW     G-vecs:    dense   smooth      PW
     Min          83      33      8                47331    11965    1600
     Max          84      34      9                47398    12006    1675
     Sum       16113    6449   1713              9095371  2301193  316649
 
     Using Slab Decomposition
 


     bravais-lattice index     =           12
     lattice parameter (alat)  =      18.3607  a.u.
     unit-cell volume          =   23801.8568 (a.u.)^3
     number of atoms/cell      =           36
     number of atomic types    =            1
     number of electrons       =       108.00
     number of Kohn-Sham states=           81
     kinetic-energy cutoff     =      80.0000  Ry
     charge density cutoff     =     800.0000  Ry
     scf convergence threshold =      1.0E-14
     mixing beta               =       0.2000
     number of iterations used =            8  local-TF  mixing
     Exchange-correlation= PBE
                           (   1   4   3   4   0   0   0)

     ================================================================================
 
                                  Environ Setup Summary

     ================================================================================
 
     Please cite

          O. Andreussi, I. Dabo and N. Marzari, J. Chem. Phys. 136, 064102 (2012)
          F. Nattino, M. Truscott, N. Marzari, and O. Andreussi, J. Chem. Phys. 150, 041722 (2019)

     in publications or presentations arising from this work.

     ================================================================================
 
     Parameters
     ==========

     compensation onset threshold      =               0.1000E+00
     static permittivity               =                    89.90
     surface tension in input (dyn/cm) =                    37.30
     surface tension in internal units =               0.4792E-04

     Solvent Boundary
     ================

     solvent mode                      =                    ionic
     derivatives method                =                   lowmem
     electrolyte derivatives method    =                   lowmem
     numerical core for derivatives    =                      fft
     switching function adopted        =                     SCCS
     density limit for vacuum region   =               0.5000E-02
     density limit for bulk solvent    =               0.1000E-03
     soft-sphere radius mode           =                    bondi
     soft-sphere softness              =                     0.50
     alpha                             =                     1.32

     Electrostatic Setup
     ===================

     electrostatic problem to solve    =                    modpb
     numerical solver adopted          =                   newton
     type of auxiliary density adopted =                     none
     numerical core for poisson        =                      fft
     adopting a nested solver scheme
     inner solver                      =                       cg
     inner core                        =                      fft
     type of pbc corrections           =                parabolic
     numerical core for corrections    =                      1da

     ================================================================================
 

     celldm(1)=  18.360747  celldm(2)=   0.790569  celldm(3)=   5.127180
     celldm(4)=   0.316228  celldm(5)=   0.000000  celldm(6)=   0.000000

     crystal axes: (cart. coord. in units of alat)
               a(1) = (   1.000000   0.000000   0.000000 )  
               a(2) = (   0.250000   0.750000   0.000000 )  
               a(3) = (   0.000000   0.000000   5.127180 )  

     reciprocal axes: (cart. coord. in units 2 pi/alat)
               b(1) = (  1.000000 -0.333333  0.000000 )  
               b(2) = (  0.000000  1.333333  0.000000 )  
               b(3) = (  0.000000  0.000000  0.195039 )  


     PseudoPot. # 1 for Li read from file:
     /home/ba3g18/Repos/Pseudopotentials/pslibrary.1.0.0/pbe/PSEUDOPOTENTIALS/Li.pbe-sl-kjpaw_psl.1.0.0.UPF
     MD5 check sum: 3f4d2cafebb47c6c3aa8ed472e6f074d
     Pseudo is Projector augmented-wave, Zval =  3.0
     Generated using 'atomic' code by A. Dal Corso  v.7.4
     Shape of augmentation charge: PSQ
     Using radial grid of 1017 points,  4 beta functions with: 
                l(1) =   0
                l(2) =   0
                l(3) =   1
                l(4) =   1
     Q(r) pseudized with 0 coefficients 


     atomic species   valence    mass     pseudopotential
     Li                3.00     6.94000     Li( 1.00)

     No symmetry found


                                    s                        frac. trans.

      isym =  1     identity                                     

 cryst.   s( 1) = (     1          0          0      )
                  (     0          1          0      )
                  (     0          0          1      )

 cart.    s( 1) = (  1.0000000  0.0000000  0.0000000 )
                  (  0.0000000  1.0000000  0.0000000 )
                  (  0.0000000  0.0000000  1.0000000 )


     point group C_1 (1)    
     there are  1 classes
     the character table:

       E    
A      1.00

     the symmetry operations in each class and the name of the first element:

     E        1
          identity                                               

   Cartesian axes

     site n.     atom                  positions (alat units)
         1        Li     tau(   1) = (   0.0003700  -0.0485620   3.0687382  )
         2        Li     tau(   2) = (   0.2496028   0.4115958   2.1243670  )
         3        Li     tau(   3) = (   0.2496279   0.0885391   2.2794226  )
         4        Li     tau(   4) = (   0.4997418   0.5007889   2.3360550  )
         5        Li     tau(   5) = (   0.4998662   0.1613481   2.4844680  )
         6        Li     tau(   6) = (   0.2500083   0.5955028   2.5746886  )
         7        Li     tau(   7) = (   0.2501914   0.2410294   2.7063960  )
         8        Li     tau(   8) = (   0.5003605   0.6634448   2.8467500  )
         9        Li     tau(   9) = (   0.5003893   0.3519869   2.9467182  )
        10        Li     tau(  10) = (   0.2496395   0.6698885   2.2804297  )
        11        Li     tau(  11) = (   0.2498086   0.3423040   2.4207836  )
        12        Li     tau(  12) = (   0.4999918   0.7378306   2.5524910  )
        13        Li     tau(  13) = (   0.5001338   0.4219852   2.6427115  )
        14        Li     tau(  14) = (   0.5002583   0.0825444   2.7911246  )
        15        Li     tau(  15) = (   0.2503721   0.4947943   2.8477571  )
        16        Li     tau(  16) = (   0.2503971   0.1717375   3.0028127  )
        17        Li     tau(  17) = (   0.4996299   0.6318954   2.0584414  )
        18        Li     tau(  18) = (   0.4996107   0.2313464   2.1804614  )
        19        Li     tau(  19) = (   0.5003702  -0.0485619   3.0687382  )
        20        Li     tau(  20) = (   0.7496028   0.4115958   2.1243669  )
        21        Li     tau(  21) = (   0.7496279   0.0885391   2.2794225  )
        22        Li     tau(  22) = (   0.9997418   0.5007889   2.3360550  )
        23        Li     tau(  23) = (   0.9998662   0.1613482   2.4844680  )
        24        Li     tau(  24) = (   0.7500083   0.5955027   2.5746886  )
        25        Li     tau(  25) = (   0.7501914   0.2410294   2.7063959  )
        26        Li     tau(  26) = (   1.0003605   0.6634449   2.8467499  )
        27        Li     tau(  27) = (   1.0003894   0.3519870   2.9467183  )
        28        Li     tau(  28) = (   0.7496396   0.6698885   2.2804297  )
        29        Li     tau(  29) = (   0.7498086   0.3423040   2.4207836  )
        30        Li     tau(  30) = (   0.9999917   0.7378306   2.5524909  )
        31        Li     tau(  31) = (   1.0001338   0.4219852   2.6427116  )
        32        Li     tau(  32) = (   1.0002583   0.0825445   2.7911246  )
        33        Li     tau(  33) = (   0.7503721   0.4947942   2.8477571  )
        34        Li     tau(  34) = (   0.7503972   0.1717376   3.0028126  )
        35        Li     tau(  35) = (   0.9996300   0.6318953   2.0584414  )
        36        Li     tau(  36) = (   0.9996107   0.2313464   2.1804613  )

   Crystallographic axes

     site n.     atom                  positions (cryst. coord.)
         1        Li     tau(   1) = (  0.0165573 -0.0647494  0.5985236  )
         2        Li     tau(   2) = (  0.1124042  0.5487944  0.4143344  )
         3        Li     tau(   3) = (  0.2201149  0.1180522  0.4445763  )
         4        Li     tau(   4) = (  0.3328121  0.6677186  0.4556218  )
         5        Li     tau(   5) = (  0.4460835  0.2151309  0.4845682  )
         6        Li     tau(   6) = (  0.0515073  0.7940037  0.5021647  )
         7        Li     tau(   7) = (  0.1698483  0.3213725  0.5278528  )
         8        Li     tau(   8) = (  0.2792122  0.8845931  0.5552273  )
         9        Li     tau(   9) = (  0.3830603  0.4693158  0.5747250  )
        10        Li     tau(  10) = (  0.0263434  0.8931847  0.4447727  )
        11        Li     tau(  11) = (  0.1357073  0.4564053  0.4721472  )
        12        Li     tau(  12) = (  0.2540482  0.9837741  0.4978353  )
        13        Li     tau(  13) = (  0.3594721  0.5626469  0.5154318  )
        14        Li     tau(  14) = (  0.4727434  0.1100592  0.5443782  )
        15        Li     tau(  15) = (  0.0854407  0.6597257  0.5554237  )
        16        Li     tau(  16) = (  0.1931513  0.2289833  0.5856656  )
        17        Li     tau(  17) = (  0.2889981  0.8425272  0.4014764  )
        18        Li     tau(  18) = (  0.4224952  0.3084618  0.4252750  )
        19        Li     tau(  19) = (  0.5165575 -0.0647493  0.5985236  )
        20        Li     tau(  20) = (  0.6124042  0.5487944  0.4143344  )
        21        Li     tau(  21) = (  0.7201149  0.1180521  0.4445763  )
        22        Li     tau(  22) = (  0.8328121  0.6677186  0.4556218  )
        23        Li     tau(  23) = (  0.9460835  0.2151309  0.4845682  )
        24        Li     tau(  24) = (  0.5515074  0.7940037  0.5021647  )
        25        Li     tau(  25) = (  0.6698483  0.3213725  0.5278528  )
        26        Li     tau(  26) = (  0.7792122  0.8845932  0.5552273  )
        27        Li     tau(  27) = (  0.8830604  0.4693161  0.5747250  )
        28        Li     tau(  28) = (  0.5263434  0.8931846  0.4447727  )
        29        Li     tau(  29) = (  0.6357073  0.4564053  0.4721472  )
        30        Li     tau(  30) = (  0.7540482  0.9837741  0.4978353  )
        31        Li     tau(  31) = (  0.8594721  0.5626469  0.5154318  )
        32        Li     tau(  32) = (  0.9727435  0.1100593  0.5443782  )
        33        Li     tau(  33) = (  0.5854407  0.6597256  0.5554237  )
        34        Li     tau(  34) = (  0.6931514  0.2289835  0.5856656  )
        35        Li     tau(  35) = (  0.7889982  0.8425271  0.4014764  )
        36        Li     tau(  36) = (  0.9224952  0.3084619  0.4252750  )

     number of k points=    32  Marzari-Vanderbilt smearing, width (Ry)=  0.0100
                       cart. coord. in units 2pi/alat
        k(    1) = (   0.0000000   0.0000000   0.0000000), wk =   0.0317460
        k(    2) = (   0.0000000   0.1481481   0.0000000), wk =   0.0634921
        k(    3) = (   0.0000000   0.2962963   0.0000000), wk =   0.0634921
        k(    4) = (   0.0000000   0.4444444   0.0000000), wk =   0.0634921
        k(    5) = (   0.0000000   0.5925926   0.0000000), wk =   0.0634921
        k(    6) = (   0.1428571  -0.0476190   0.0000000), wk =   0.0634921
        k(    7) = (   0.1428571   0.1005291   0.0000000), wk =   0.0634921
        k(    8) = (   0.1428571   0.2486772   0.0000000), wk =   0.0634921
        k(    9) = (   0.1428571   0.3968254   0.0000000), wk =   0.0634921
        k(   10) = (   0.1428571   0.5449735   0.0000000), wk =   0.0634921
        k(   11) = (   0.1428571  -0.6402116   0.0000000), wk =   0.0634921
        k(   12) = (   0.1428571  -0.4920635   0.0000000), wk =   0.0634921
        k(   13) = (   0.1428571  -0.3439153   0.0000000), wk =   0.0634921
        k(   14) = (   0.1428571  -0.1957672   0.0000000), wk =   0.0634921
        k(   15) = (   0.2857143  -0.0952381   0.0000000), wk =   0.0634921
        k(   16) = (   0.2857143   0.0529101   0.0000000), wk =   0.0634921
        k(   17) = (   0.2857143   0.2010582   0.0000000), wk =   0.0634921
        k(   18) = (   0.2857143   0.3492063   0.0000000), wk =   0.0634921
        k(   19) = (   0.2857143   0.4973545   0.0000000), wk =   0.0634921
        k(   20) = (   0.2857143  -0.6878307   0.0000000), wk =   0.0634921
        k(   21) = (   0.2857143  -0.5396825   0.0000000), wk =   0.0634921
        k(   22) = (   0.2857143  -0.3915344   0.0000000), wk =   0.0634921
        k(   23) = (   0.2857143  -0.2433862   0.0000000), wk =   0.0634921
        k(   24) = (   0.4285714  -0.1428571   0.0000000), wk =   0.0634921
        k(   25) = (   0.4285714   0.0052910   0.0000000), wk =   0.0634921
        k(   26) = (   0.4285714   0.1534392   0.0000000), wk =   0.0634921
        k(   27) = (   0.4285714   0.3015873   0.0000000), wk =   0.0634921
        k(   28) = (   0.4285714   0.4497354   0.0000000), wk =   0.0634921
        k(   29) = (   0.4285714  -0.7354497   0.0000000), wk =   0.0634921
        k(   30) = (   0.4285714  -0.5873016   0.0000000), wk =   0.0634921
        k(   31) = (   0.4285714  -0.4391534   0.0000000), wk =   0.0634921
        k(   32) = (   0.4285714  -0.2910053   0.0000000), wk =   0.0634921

                       cryst. coord.
        k(    1) = (   0.0000000   0.0000000   0.0000000), wk =   0.0317460
        k(    2) = (   0.0000000   0.1111111   0.0000000), wk =   0.0634921
        k(    3) = (   0.0000000   0.2222222   0.0000000), wk =   0.0634921
        k(    4) = (   0.0000000   0.3333333   0.0000000), wk =   0.0634921
        k(    5) = (   0.0000000   0.4444444   0.0000000), wk =   0.0634921
        k(    6) = (   0.1428571  -0.0000000   0.0000000), wk =   0.0634921
        k(    7) = (   0.1428571   0.1111111   0.0000000), wk =   0.0634921
        k(    8) = (   0.1428571   0.2222222   0.0000000), wk =   0.0634921
        k(    9) = (   0.1428571   0.3333333   0.0000000), wk =   0.0634921
        k(   10) = (   0.1428571   0.4444444   0.0000000), wk =   0.0634921
        k(   11) = (   0.1428571  -0.4444444   0.0000000), wk =   0.0634921
        k(   12) = (   0.1428571  -0.3333333   0.0000000), wk =   0.0634921
        k(   13) = (   0.1428571  -0.2222222   0.0000000), wk =   0.0634921
        k(   14) = (   0.1428571  -0.1111111   0.0000000), wk =   0.0634921
        k(   15) = (   0.2857143  -0.0000000   0.0000000), wk =   0.0634921
        k(   16) = (   0.2857143   0.1111111   0.0000000), wk =   0.0634921
        k(   17) = (   0.2857143   0.2222222   0.0000000), wk =   0.0634921
        k(   18) = (   0.2857143   0.3333333   0.0000000), wk =   0.0634921
        k(   19) = (   0.2857143   0.4444444   0.0000000), wk =   0.0634921
        k(   20) = (   0.2857143  -0.4444444   0.0000000), wk =   0.0634921
        k(   21) = (   0.2857143  -0.3333333   0.0000000), wk =   0.0634921
        k(   22) = (   0.2857143  -0.2222222   0.0000000), wk =   0.0634921
        k(   23) = (   0.2857143  -0.1111111   0.0000000), wk =   0.0634921
        k(   24) = (   0.4285714  -0.0000000   0.0000000), wk =   0.0634921
        k(   25) = (   0.4285714   0.1111111   0.0000000), wk =   0.0634921
        k(   26) = (   0.4285714   0.2222222   0.0000000), wk =   0.0634921
        k(   27) = (   0.4285714   0.3333333   0.0000000), wk =   0.0634921
        k(   28) = (   0.4285714   0.4444444   0.0000000), wk =   0.0634921
        k(   29) = (   0.4285714  -0.4444444   0.0000000), wk =   0.0634921
        k(   30) = (   0.4285714  -0.3333333   0.0000000), wk =   0.0634921
        k(   31) = (   0.4285714  -0.2222222   0.0000000), wk =   0.0634921
        k(   32) = (   0.4285714  -0.1111111   0.0000000), wk =   0.0634921

     Dense  grid:  9095371 G-vectors     FFT dimensions: ( 180, 135, 864)

     Smooth grid:  2301193 G-vectors     FFT dimensions: ( 108,  90, 540)

     Dynamical RAM for                 wfc:       1.85 MB

     Dynamical RAM for     wfc (w. buffer):      61.06 MB

     Dynamical RAM for           str. fact:       0.72 MB

     Dynamical RAM for           local pot:       0.00 MB

     Dynamical RAM for          nlocal pot:       6.58 MB

     Dynamical RAM for                qrad:       0.65 MB

     Dynamical RAM for          rho,v,vnew:       4.95 MB

     Dynamical RAM for               rhoin:       1.65 MB

     Dynamical RAM for            rho*nmix:      11.57 MB

     Dynamical RAM for           G-vectors:       2.80 MB

     Dynamical RAM for          h,s,v(r/c):       1.20 MB

     Dynamical RAM for          <psi|beta>:       0.36 MB

     Dynamical RAM for                 psi:       3.70 MB

     Dynamical RAM for                hpsi:       3.70 MB

     Dynamical RAM for                spsi:       3.70 MB

     Dynamical RAM for      wfcinit/wfcrot:       3.85 MB

     Dynamical RAM for           addusdens:      57.11 MB

     Dynamical RAM for          addusforce:     108.11 MB

     Estimated static dynamical RAM per process >      84.49 MB

     Estimated max dynamical RAM per process >     204.17 MB

     Estimated total dynamical RAM >      38.28 GB

     Initial potential from superposition of free atoms

     starting charge     107.8341, renormalised to     108.0000

     negative rho (up, down):  3.988E-03 0.000E+00
     Starting wfcs are random
     Checking if some PAW data can be deallocated... 

     total cpu time spent up to now is       14.5 secs

     Self-consistent Calculation

     iteration #  1     ecut=    80.00 Ry     beta= 0.20
     Davidson diagonalization with overlap

---- Real-time Memory Report at c_bands before calling an iterative solver
           782 MiB given to the printing process from OS
             0 MiB allocation reported by mallinfo(arena+hblkhd)
        613593 MiB available memory on the node where the printing process lives
------------------
     ethr =  1.00E-02,  avg # of iterations = 12.5

     negative rho (up, down):  1.540E-04 0.000E+00

     total cpu time spent up to now is       66.3 secs

     total energy              =    -539.29352185 Ry
     estimated scf accuracy    <       5.02929884 Ry
     electrostatic embedding   =       0.00000000 Ry
     cavitation energy         =       0.03122246 Ry
     electrolyte free energy   =       0.01024461 Ry
     correction to one-el term =       0.00000000 Ry

     iteration #  2     ecut=    80.00 Ry     beta= 0.20
     Davidson diagonalization with overlap

---- Real-time Memory Report at c_bands before calling an iterative solver
           782 MiB given to the printing process from OS
             0 MiB allocation reported by mallinfo(arena+hblkhd)
        602777 MiB available memory on the node where the printing process lives
------------------
     ethr =  4.66E-03,  avg # of iterations =  4.8

     negative rho (up, down):  9.079E-06 0.000E+00

     total cpu time spent up to now is       86.1 secs

     total energy              =    -540.23889672 Ry
     estimated scf accuracy    <       1.58528494 Ry
     electrostatic embedding   =       0.00000000 Ry
     cavitation energy         =       0.03122246 Ry
     electrolyte free energy   =       0.01024461 Ry
     correction to one-el term =       0.00000000 Ry

     iteration #  3     ecut=    80.00 Ry     beta= 0.20
     Davidson diagonalization with overlap

---- Real-time Memory Report at c_bands before calling an iterative solver
           782 MiB given to the printing process from OS
             0 MiB allocation reported by mallinfo(arena+hblkhd)
        600185 MiB available memory on the node where the printing process lives
------------------
     ethr =  1.47E-03,  avg # of iterations =  5.8

     negative rho (up, down):  2.857E-06 0.000E+00

     total cpu time spent up to now is      111.8 secs

     total energy              =    -541.13378266 Ry
     estimated scf accuracy    <       0.31514672 Ry
     electrostatic embedding   =       0.00000000 Ry
     cavitation energy         =       0.03122246 Ry
     electrolyte free energy   =       0.01024461 Ry
     correction to one-el term =       0.00000000 Ry

     iteration #  4     ecut=    80.00 Ry     beta= 0.20
     Davidson diagonalization with overlap

---- Real-time Memory Report at c_bands before calling an iterative solver
           787 MiB given to the printing process from OS
             0 MiB allocation reported by mallinfo(arena+hblkhd)
        599506 MiB available memory on the node where the printing process lives
------------------
     ethr =  2.92E-04,  avg # of iterations =  9.3

     negative rho (up, down):  9.001E-07 0.000E+00

     total cpu time spent up to now is      138.4 secs

     total energy              =    -541.26921780 Ry
     estimated scf accuracy    <       0.30125539 Ry
     electrostatic embedding   =       0.00000000 Ry
     cavitation energy         =       0.03122246 Ry
     electrolyte free energy   =       0.01024461 Ry
     correction to one-el term =       0.00000000 Ry

     iteration #  5     ecut=    80.00 Ry     beta= 0.20
     Davidson diagonalization with overlap

---- Real-time Memory Report at c_bands before calling an iterative solver
           835 MiB given to the printing process from OS
             0 MiB allocation reported by mallinfo(arena+hblkhd)
        599039 MiB available memory on the node where the printing process lives
------------------
     ethr =  2.79E-04,  avg # of iterations =  1.3

     negative rho (up, down):  2.100E-04 0.000E+00

     total cpu time spent up to now is      152.0 secs

     total energy              =    -541.21936348 Ry
     estimated scf accuracy    <       0.26936280 Ry
     electrostatic embedding   =       0.00000000 Ry
     cavitation energy         =       0.03122246 Ry
     electrolyte free energy   =       0.01024461 Ry
     correction to one-el term =       0.00000000 Ry

     iteration #  6     ecut=    80.00 Ry     beta= 0.20
     Davidson diagonalization with overlap

---- Real-time Memory Report at c_bands before calling an iterative solver
           863 MiB given to the printing process from OS
             0 MiB allocation reported by mallinfo(arena+hblkhd)
        599078 MiB available memory on the node where the printing process lives
------------------
     ethr =  2.49E-04,  avg # of iterations =  3.1

     negative rho (up, down):  1.076E-04 0.000E+00

     add environment contribution to local potential

     total cpu time spent up to now is      171.7 secs

     total energy              =    -541.22687958 Ry
     estimated scf accuracy    <       0.07723830 Ry
     electrostatic embedding   =       0.00000000 Ry
     cavitation energy         =       0.03122246 Ry
     electrolyte free energy   =       0.01024461 Ry
     correction to one-el term =       0.00000000 Ry

     iteration #  7     ecut=    80.00 Ry     beta= 0.20
     Davidson diagonalization with overlap

---- Real-time Memory Report at c_bands before calling an iterative solver
           888 MiB given to the printing process from OS
             0 MiB allocation reported by mallinfo(arena+hblkhd)
        600326 MiB available memory on the node where the printing process lives
------------------
     c_bands:  4 eigenvalues not converged
     c_bands:  4 eigenvalues not converged
     c_bands:  3 eigenvalues not converged
     c_bands:  2 eigenvalues not converged
     c_bands:  4 eigenvalues not converged
     c_bands:  3 eigenvalues not converged
     c_bands:  4 eigenvalues not converged
     c_bands:  3 eigenvalues not converged
     c_bands:  4 eigenvalues not converged
     c_bands:  3 eigenvalues not converged
     c_bands:  2 eigenvalues not converged
     c_bands:  4 eigenvalues not converged
     c_bands:  3 eigenvalues not converged
     c_bands:  2 eigenvalues not converged
     c_bands:  1 eigenvalues not converged
     c_bands:  1 eigenvalues not converged
     c_bands:  1 eigenvalues not converged
     ethr =  7.15E-05,  avg # of iterations = 17.8

     negative rho (up, down):  6.566E-06 0.000E+00

     add environment contribution to local potential

     total cpu time spent up to now is      212.4 secs

     total energy              =    -541.23699792 Ry
     estimated scf accuracy    <       0.04668559 Ry
     electrostatic embedding   =      -0.06797368 Ry
     cavitation energy         =       0.03122246 Ry
     electrolyte free energy   =      -0.00152293 Ry
     correction to one-el term =      -8.72899458 Ry

     iteration #  8     ecut=    80.00 Ry     beta= 0.20
     Davidson diagonalization with overlap

---- Real-time Memory Report at c_bands before calling an iterative solver
           942 MiB given to the printing process from OS
             0 MiB allocation reported by mallinfo(arena+hblkhd)
        597655 MiB available memory on the node where the printing process lives
------------------
     ethr =  4.32E-05,  avg # of iterations =  5.4

     negative rho (up, down):  2.799E-04 0.000E+00

     add environment contribution to local potential

     total cpu time spent up to now is      234.1 secs

     total energy              =    -541.23852503 Ry
     estimated scf accuracy    <       0.05667074 Ry
     electrostatic embedding   =      -0.06023091 Ry
     cavitation energy         =       0.03122246 Ry
     electrolyte free energy   =      -0.00186697 Ry
     correction to one-el term =      -7.96452016 Ry

     iteration #  9     ecut=    80.00 Ry     beta= 0.20
     Davidson diagonalization with overlap

---- Real-time Memory Report at c_bands before calling an iterative solver
           968 MiB given to the printing process from OS
             0 MiB allocation reported by mallinfo(arena+hblkhd)
        597412 MiB available memory on the node where the printing process lives
------------------
     ethr =  4.32E-05,  avg # of iterations =  8.2

     negative rho (up, down):  1.345E-06 0.000E+00

     total cpu time spent up to now is      254.7 secs

     total energy              =    -541.30634150 Ry
     estimated scf accuracy    <       0.16348106 Ry
     electrostatic embedding   =      -0.05358910 Ry
     cavitation energy         =       0.03122246 Ry
     electrolyte free energy   =      -0.00230232 Ry
     correction to one-el term =      -5.76573488 Ry

     iteration # 10     ecut=    80.00 Ry     beta= 0.20
     Davidson diagonalization with overlap

---- Real-time Memory Report at c_bands before calling an iterative solver
           992 MiB given to the printing process from OS
             0 MiB allocation reported by mallinfo(arena+hblkhd)
        597400 MiB available memory on the node where the printing process lives
------------------
     ethr =  4.32E-05,  avg # of iterations = 11.7

     negative rho (up, down):  6.364E-04 0.000E+00

     total cpu time spent up to now is      280.6 secs

     total energy              =    -541.24482055 Ry
     estimated scf accuracy    <       0.88624869 Ry
     electrostatic embedding   =      -0.04695877 Ry
     cavitation energy         =       0.03122246 Ry
     electrolyte free energy   =      -0.00230232 Ry
     correction to one-el term =      -5.77899554 Ry

     iteration # 11     ecut=    80.00 Ry     beta= 0.20
     Davidson diagonalization with overlap

---- Real-time Memory Report at c_bands before calling an iterative solver
          1018 MiB given to the printing process from OS
             0 MiB allocation reported by mallinfo(arena+hblkhd)
        597481 MiB available memory on the node where the printing process lives
------------------
     c_bands:  1 eigenvalues not converged
     ethr =  4.32E-05,  avg # of iterations = 10.2

     negative rho (up, down):  2.576E-02 0.000E+00

     total cpu time spent up to now is      302.5 secs

     total energy              =    -541.29497722 Ry
     estimated scf accuracy    <       0.20068692 Ry
     electrostatic embedding   =      -0.05035567 Ry
     cavitation energy         =       0.03122246 Ry
     electrolyte free energy   =      -0.00230232 Ry
     correction to one-el term =      -5.77220174 Ry

     iteration # 12     ecut=    80.00 Ry     beta= 0.20
     Davidson diagonalization with overlap

---- Real-time Memory Report at c_bands before calling an iterative solver
          1043 MiB given to the printing process from OS
             0 MiB allocation reported by mallinfo(arena+hblkhd)
        597341 MiB available memory on the node where the printing process lives
------------------
     ethr =  4.32E-05,  avg # of iterations =  5.5

     negative rho (up, down):  2.200E-02 0.000E+00

     total cpu time spent up to now is      319.6 secs

     total energy              =    -541.30315172 Ry
     estimated scf accuracy    <       0.68445776 Ry
     electrostatic embedding   =      -0.04456310 Ry
     cavitation energy         =       0.03122246 Ry
     electrolyte free energy   =      -0.00230232 Ry
     correction to one-el term =      -5.78378688 Ry

     iteration # 13     ecut=    80.00 Ry     beta= 0.20
     Davidson diagonalization with overlap

---- Real-time Memory Report at c_bands before calling an iterative solver
          1063 MiB given to the printing process from OS
             0 MiB allocation reported by mallinfo(arena+hblkhd)
        597265 MiB available memory on the node where the printing process lives
------------------
     ethr =  4.32E-05,  avg # of iterations =  1.1

     negative rho (up, down):  1.119E-02 0.000E+00

     total cpu time spent up to now is      333.1 secs

     total energy              =    -541.27035582 Ry
     estimated scf accuracy    <       0.59092233 Ry
     electrostatic embedding   =      -0.04385493 Ry
     cavitation energy         =       0.03122246 Ry
     electrolyte free energy   =      -0.00230232 Ry
     correction to one-el term =      -5.78520323 Ry

     iteration # 14     ecut=    80.00 Ry     beta= 0.20
     Davidson diagonalization with overlap

---- Real-time Memory Report at c_bands before calling an iterative solver
          1081 MiB given to the printing process from OS
             0 MiB allocation reported by mallinfo(arena+hblkhd)
        597290 MiB available memory on the node where the printing process lives
------------------
     ethr =  4.32E-05,  avg # of iterations =  6.7

     negative rho (up, down):  2.099E-02 0.000E+00

     total cpu time spent up to now is      350.6 secs

     total energy              =    -541.26169775 Ry
     estimated scf accuracy    <       0.31767760 Ry
     electrostatic embedding   =      -0.04356760 Ry
     cavitation energy         =       0.03122246 Ry
     electrolyte free energy   =      -0.00230232 Ry
     correction to one-el term =      -5.78577789 Ry

     iteration # 15     ecut=    80.00 Ry     beta= 0.20
     Davidson diagonalization with overlap

---- Real-time Memory Report at c_bands before calling an iterative solver
          1098 MiB given to the printing process from OS
             0 MiB allocation reported by mallinfo(arena+hblkhd)
        597191 MiB available memory on the node where the printing process lives
------------------
     c_bands:  1 eigenvalues not converged
     c_bands:  1 eigenvalues not converged
     ethr =  4.32E-05,  avg # of iterations =  7.8

     negative rho (up, down):  1.139E-01 0.000E+00

     total cpu time spent up to now is      368.1 secs

     total energy              =    -541.25829388 Ry
     estimated scf accuracy    <       0.18939199 Ry
     electrostatic embedding   =      -0.04370226 Ry
     cavitation energy         =       0.03122246 Ry
     electrolyte free energy   =      -0.00230232 Ry
     correction to one-el term =      -5.78550856 Ry

     iteration # 16     ecut=    80.00 Ry     beta= 0.20
     Davidson diagonalization with overlap

---- Real-time Memory Report at c_bands before calling an iterative solver
          1112 MiB given to the printing process from OS
             0 MiB allocation reported by mallinfo(arena+hblkhd)
        597063 MiB available memory on the node where the printing process lives
------------------
     c_bands:  1 eigenvalues not converged
     c_bands:  1 eigenvalues not converged
     ethr =  4.32E-05,  avg # of iterations = 14.5

     negative rho (up, down):  1.098E-01 0.000E+00

     total cpu time spent up to now is      394.4 secs

     total energy              =    -541.23874254 Ry
     estimated scf accuracy    <       0.16086482 Ry
     electrostatic embedding   =      -0.03889320 Ry
     cavitation energy         =       0.03122246 Ry
     electrolyte free energy   =      -0.00230232 Ry
     correction to one-el term =      -5.79512669 Ry

     iteration # 17     ecut=    80.00 Ry     beta= 0.20
     Davidson diagonalization with overlap

---- Real-time Memory Report at c_bands before calling an iterative solver
          1129 MiB given to the printing process from OS
             0 MiB allocation reported by mallinfo(arena+hblkhd)
        597206 MiB available memory on the node where the printing process lives
------------------
     c_bands:  2 eigenvalues not converged
     ethr =  4.32E-05,  avg # of iterations =  6.6

     negative rho (up, down):  6.568E-02 0.000E+00

     add environment contribution to local potential

     total cpu time spent up to now is      418.9 secs

     total energy              =    -541.24719414 Ry
     estimated scf accuracy    <       0.00976244 Ry
     electrostatic embedding   =      -0.04215329 Ry
     cavitation energy         =       0.03122246 Ry
     electrolyte free energy   =      -0.00230232 Ry
     correction to one-el term =      -5.78860650 Ry

     iteration # 18     ecut=    80.00 Ry     beta= 0.20
     Davidson diagonalization with overlap

---- Real-time Memory Report at c_bands before calling an iterative solver
          1146 MiB given to the printing process from OS
             0 MiB allocation reported by mallinfo(arena+hblkhd)
        597130 MiB available memory on the node where the printing process lives
------------------
     c_bands:  1 eigenvalues not converged
     c_bands:  1 eigenvalues not converged
     c_bands:  1 eigenvalues not converged
     c_bands:  1 eigenvalues not converged
     c_bands:  1 eigenvalues not converged
     c_bands:  3 eigenvalues not converged
     c_bands:  2 eigenvalues not converged
     c_bands:  1 eigenvalues not converged
     c_bands:  2 eigenvalues not converged
     c_bands:  3 eigenvalues not converged
     c_bands:  1 eigenvalues not converged
     c_bands:  1 eigenvalues not converged
     c_bands:  2 eigenvalues not converged
     c_bands:  1 eigenvalues not converged
     c_bands:  2 eigenvalues not converged
     c_bands:  1 eigenvalues not converged
     c_bands:  1 eigenvalues not converged
     c_bands:  1 eigenvalues not converged
     c_bands:  1 eigenvalues not converged
     c_bands:  3 eigenvalues not converged
     c_bands:  1 eigenvalues not converged
     c_bands:  1 eigenvalues not converged
     ethr =  9.04E-06,  avg # of iterations = 19.4

     negative rho (up, down):  6.377E-02 0.000E+00

     add environment contribution to local potential

     total cpu time spent up to now is      459.6 secs

     total energy              =    -541.24996423 Ry
     estimated scf accuracy    <       0.05142689 Ry
     electrostatic embedding   =      -0.03970934 Ry
     cavitation energy         =       0.03122246 Ry
     electrolyte free energy   =      -0.00216613 Ry
     correction to one-el term =      -1.94517640 Ry

     iteration # 19     ecut=    80.00 Ry     beta= 0.20
     Davidson diagonalization with overlap

---- Real-time Memory Report at c_bands before calling an iterative solver
          1163 MiB given to the printing process from OS
             0 MiB allocation reported by mallinfo(arena+hblkhd)
        597162 MiB available memory on the node where the printing process lives
------------------
     c_bands:  1 eigenvalues not converged
     ethr =  9.04E-06,  avg # of iterations =  8.6

     negative rho (up, down):  6.979E-02 0.000E+00

     add environment contribution to local potential

     total cpu time spent up to now is      485.0 secs

     total energy              =    -541.25111474 Ry
     estimated scf accuracy    <       0.03928891 Ry
     electrostatic embedding   =      -0.03904563 Ry
     cavitation energy         =       0.03122246 Ry
     electrolyte free energy   =      -0.00209872 Ry
     correction to one-el term =      -0.55095077 Ry

     iteration # 20     ecut=    80.00 Ry     beta= 0.20
     Davidson diagonalization with overlap

---- Real-time Memory Report at c_bands before calling an iterative solver
          1174 MiB given to the printing process from OS
             0 MiB allocation reported by mallinfo(arena+hblkhd)
        597003 MiB available memory on the node where the printing process lives
------------------
     ethr =  9.04E-06,  avg # of iterations =  2.8

     negative rho (up, down):  6.530E-02 0.000E+00

     add environment contribution to local potential

     total cpu time spent up to now is      505.4 secs

     total energy              =    -541.24888274 Ry
     estimated scf accuracy    <       0.03445028 Ry
     electrostatic embedding   =      -0.04007762 Ry
     cavitation energy         =       0.03122246 Ry
     electrolyte free energy   =      -0.00202921 Ry
     correction to one-el term =      -0.00726833 Ry

     iteration # 21     ecut=    80.00 Ry     beta= 0.20
     Davidson diagonalization with overlap

---- Real-time Memory Report at c_bands before calling an iterative solver
          1188 MiB given to the printing process from OS
             0 MiB allocation reported by mallinfo(arena+hblkhd)
        597752 MiB available memory on the node where the printing process lives
------------------
     ethr =  9.04E-06,  avg # of iterations =  6.0

     negative rho (up, down):  5.266E-02 0.000E+00

     add environment contribution to local potential

     total cpu time spent up to now is      527.2 secs

     total energy              =    -541.24670823 Ry
     estimated scf accuracy    <       0.01919452 Ry
     electrostatic embedding   =      -0.04231880 Ry
     cavitation energy         =       0.03122246 Ry
     electrolyte free energy   =      -0.00181748 Ry
     correction to one-el term =       0.54773001 Ry

     iteration # 22     ecut=    80.00 Ry     beta= 0.20
     Davidson diagonalization with overlap

---- Real-time Memory Report at c_bands before calling an iterative solver
          1199 MiB given to the printing process from OS
             0 MiB allocation reported by mallinfo(arena+hblkhd)
        596965 MiB available memory on the node where the printing process lives
------------------
     c_bands:  1 eigenvalues not converged
     c_bands:  1 eigenvalues not converged
     c_bands:  1 eigenvalues not converged
     c_bands:  1 eigenvalues not converged
     ethr =  9.04E-06,  avg # of iterations = 10.2

     negative rho (up, down):  6.388E-02 0.000E+00

     add environment contribution to local potential

     total cpu time spent up to now is      553.9 secs

     total energy              =    -541.25027331 Ry
     estimated scf accuracy    <       0.00507717 Ry
     electrostatic embedding   =      -0.04779998 Ry
     cavitation energy         =       0.03122246 Ry
     electrolyte free energy   =      -0.00154277 Ry
     correction to one-el term =       1.78069302 Ry

     iteration # 23     ecut=    80.00 Ry     beta= 0.20
     Davidson diagonalization with overlap

---- Real-time Memory Report at c_bands before calling an iterative solver
          1211 MiB given to the printing process from OS
             0 MiB allocation reported by mallinfo(arena+hblkhd)
        596939 MiB available memory on the node where the printing process lives
------------------
     c_bands:  1 eigenvalues not converged
     c_bands:  1 eigenvalues not converged
     ethr =  4.70E-06,  avg # of iterations =  5.2

     negative rho (up, down):  4.478E-02 0.000E+00

     add environment contribution to local potential

     total cpu time spent up to now is      575.4 secs

     total energy              =    -541.25026837 Ry
     estimated scf accuracy    <       0.00431530 Ry
     electrostatic embedding   =      -0.04812111 Ry
     cavitation energy         =       0.03122246 Ry
     electrolyte free energy   =      -0.00156003 Ry
     correction to one-el term =       2.48225706 Ry

     iteration # 24     ecut=    80.00 Ry     beta= 0.20
     Davidson diagonalization with overlap

---- Real-time Memory Report at c_bands before calling an iterative solver
          1219 MiB given to the printing process from OS
             0 MiB allocation reported by mallinfo(arena+hblkhd)
        596939 MiB available memory on the node where the printing process lives
------------------
     c_bands:  1 eigenvalues not converged
     ethr =  4.00E-06,  avg # of iterations =  7.4

     negative rho (up, down):  4.486E-02 0.000E+00

     add environment contribution to local potential

     total cpu time spent up to now is      599.0 secs

     total energy              =    -541.25057271 Ry
     estimated scf accuracy    <       0.00367646 Ry
     electrostatic embedding   =      -0.05000312 Ry
     cavitation energy         =       0.03122246 Ry
     electrolyte free energy   =      -0.00159714 Ry
     correction to one-el term =       2.93262390 Ry

     iteration # 25     ecut=    80.00 Ry     beta= 0.20
     Davidson diagonalization with overlap

---- Real-time Memory Report at c_bands before calling an iterative solver
          1231 MiB given to the printing process from OS
             0 MiB allocation reported by mallinfo(arena+hblkhd)
        596987 MiB available memory on the node where the printing process lives
------------------
     ethr =  3.40E-06,  avg # of iterations =  7.9

     negative rho (up, down):  6.302E-02 0.000E+00

     add environment contribution to local potential

     total cpu time spent up to now is      622.8 secs

     total energy              =    -541.24988369 Ry
     estimated scf accuracy    <       0.00386781 Ry
     electrostatic embedding   =      -0.04787640 Ry
     cavitation energy         =       0.03122246 Ry
     electrolyte free energy   =      -0.00163522 Ry
     correction to one-el term =       2.98564607 Ry

     iteration # 26     ecut=    80.00 Ry     beta= 0.20
     Davidson diagonalization with overlap

---- Real-time Memory Report at c_bands before calling an iterative solver
          1241 MiB given to the printing process from OS
             0 MiB allocation reported by mallinfo(arena+hblkhd)
        596863 MiB available memory on the node where the printing process lives
------------------
     c_bands:  1 eigenvalues not converged
     c_bands:  1 eigenvalues not converged
     ethr =  3.40E-06,  avg # of iterations = 10.7

     negative rho (up, down):  5.194E-02 0.000E+00

     add environment contribution to local potential

     total cpu time spent up to now is      651.7 secs

     total energy              =    -541.25045377 Ry
     estimated scf accuracy    <       0.00613693 Ry
     electrostatic embedding   =      -0.05264059 Ry
     cavitation energy         =       0.03122246 Ry
     electrolyte free energy   =      -0.00157203 Ry
     correction to one-el term =       6.13537120 Ry

     iteration # 27     ecut=    80.00 Ry     beta= 0.20
     Davidson diagonalization with overlap

---- Real-time Memory Report at c_bands before calling an iterative solver
          1253 MiB given to the printing process from OS
             0 MiB allocation reported by mallinfo(arena+hblkhd)
        599043 MiB available memory on the node where the printing process lives
------------------
     c_bands:  1 eigenvalues not converged
     c_bands:  2 eigenvalues not converged
     c_bands:  2 eigenvalues not converged
     c_bands:  1 eigenvalues not converged
     c_bands:  1 eigenvalues not converged
     ethr =  3.40E-06,  avg # of iterations = 12.9

     negative rho (up, down):  5.482E-02 0.000E+00

     add environment contribution to local potential

     total cpu time spent up to now is      681.6 secs

     total energy              =    -541.25167052 Ry
     estimated scf accuracy    <       0.00176156 Ry
     electrostatic embedding   =      -0.04713597 Ry
     cavitation energy         =       0.03122246 Ry
     electrolyte free energy   =      -0.00154666 Ry
     correction to one-el term =       5.00495138 Ry

     iteration # 28     ecut=    80.00 Ry     beta= 0.20
     Davidson diagonalization with overlap

---- Real-time Memory Report at c_bands before calling an iterative solver
          1259 MiB given to the printing process from OS
             0 MiB allocation reported by mallinfo(arena+hblkhd)
        597292 MiB available memory on the node where the printing process lives
------------------
     c_bands:  1 eigenvalues not converged
     ethr =  1.63E-06,  avg # of iterations =  7.9

     negative rho (up, down):  5.427E-02 0.000E+00

     add environment contribution to local potential

     total cpu time spent up to now is      704.7 secs

     total energy              =    -541.25199335 Ry
     estimated scf accuracy    <       0.00091515 Ry
     electrostatic embedding   =      -0.04593176 Ry
     cavitation energy         =       0.03122246 Ry
     electrolyte free energy   =      -0.00160972 Ry
     correction to one-el term =       5.25453799 Ry

     iteration # 29     ecut=    80.00 Ry     beta= 0.20
     Davidson diagonalization with overlap

---- Real-time Memory Report at c_bands before calling an iterative solver
          1265 MiB given to the printing process from OS
             0 MiB allocation reported by mallinfo(arena+hblkhd)
        596827 MiB available memory on the node where the printing process lives
------------------
     c_bands:  1 eigenvalues not converged
     c_bands:  1 eigenvalues not converged
     c_bands:  1 eigenvalues not converged
     ethr =  8.47E-07,  avg # of iterations = 11.3

     negative rho (up, down):  5.186E-02 0.000E+00

     add environment contribution to local potential

     total cpu time spent up to now is      731.9 secs

     total energy              =    -541.25210274 Ry
     estimated scf accuracy    <       0.00075935 Ry
     electrostatic embedding   =      -0.04673554 Ry
     cavitation energy         =       0.03122246 Ry
     electrolyte free energy   =      -0.00159280 Ry
     correction to one-el term =       6.31355213 Ry

     iteration # 30     ecut=    80.00 Ry     beta= 0.20
     Davidson diagonalization with overlap

---- Real-time Memory Report at c_bands before calling an iterative solver
          1274 MiB given to the printing process from OS
             0 MiB allocation reported by mallinfo(arena+hblkhd)
        596771 MiB available memory on the node where the printing process lives
------------------
     ethr =  7.03E-07,  avg # of iterations =  1.5

     negative rho (up, down):  1.918E-02 0.000E+00

     add environment contribution to local potential

     total cpu time spent up to now is      750.5 secs

     total energy              =    -541.25168212 Ry
     estimated scf accuracy    <       0.00079805 Ry
     electrostatic embedding   =      -0.04682656 Ry
     cavitation energy         =       0.03122246 Ry
     electrolyte free energy   =      -0.00154026 Ry
     correction to one-el term =       6.31557825 Ry

     iteration # 31     ecut=    80.00 Ry     beta= 0.20
     Davidson diagonalization with overlap

---- Real-time Memory Report at c_bands before calling an iterative solver
          1283 MiB given to the printing process from OS
             0 MiB allocation reported by mallinfo(arena+hblkhd)
        596731 MiB available memory on the node where the printing process lives
------------------
     c_bands:  1 eigenvalues not converged
     c_bands:  1 eigenvalues not converged
     c_bands:  1 eigenvalues not converged
     c_bands:  1 eigenvalues not converged
     c_bands:  1 eigenvalues not converged
     c_bands:  2 eigenvalues not converged
     c_bands:  2 eigenvalues not converged
     ethr =  7.03E-07,  avg # of iterations = 15.3

     negative rho (up, down):  7.626E-03 0.000E+00

     add environment contribution to local potential

     total cpu time spent up to now is      781.2 secs

     total energy              =    -541.25190964 Ry
     estimated scf accuracy    <       0.00025556 Ry
     electrostatic embedding   =      -0.04583074 Ry
     cavitation energy         =       0.03122246 Ry
     electrolyte free energy   =      -0.00150741 Ry
     correction to one-el term =       6.42204564 Ry

     iteration # 32     ecut=    80.00 Ry     beta= 0.20
     Davidson diagonalization with overlap

---- Real-time Memory Report at c_bands before calling an iterative solver
          1289 MiB given to the printing process from OS
             0 MiB allocation reported by mallinfo(arena+hblkhd)
        596742 MiB available memory on the node where the printing process lives
------------------
     c_bands:  1 eigenvalues not converged
     c_bands:  1 eigenvalues not converged
     c_bands:  1 eigenvalues not converged
     c_bands:  1 eigenvalues not converged
     c_bands:  1 eigenvalues not converged
     ethr =  2.37E-07,  avg # of iterations = 15.6

     negative rho (up, down):  6.726E-03 0.000E+00

     add environment contribution to local potential

     total cpu time spent up to now is      810.9 secs

     total energy              =    -541.25200402 Ry
     estimated scf accuracy    <       0.00002084 Ry
     electrostatic embedding   =      -0.04470336 Ry
     cavitation energy         =       0.03122246 Ry
     electrolyte free energy   =      -0.00150662 Ry
     correction to one-el term =       6.41512010 Ry

     iteration # 33     ecut=    80.00 Ry     beta= 0.20
     Davidson diagonalization with overlap

---- Real-time Memory Report at c_bands before calling an iterative solver
          1294 MiB given to the printing process from OS
             0 MiB allocation reported by mallinfo(arena+hblkhd)
        596716 MiB available memory on the node where the printing process lives
------------------
     ethr =  1.93E-08,  avg # of iterations =  4.7

     negative rho (up, down):  3.567E-03 0.000E+00

     add environment contribution to local potential

     total cpu time spent up to now is      832.8 secs

     total energy              =    -541.25201121 Ry
     estimated scf accuracy    <       0.00001786 Ry
     electrostatic embedding   =      -0.04470642 Ry
     cavitation energy         =       0.03122246 Ry
     electrolyte free energy   =      -0.00150809 Ry
     correction to one-el term =       6.41532883 Ry

     iteration # 34     ecut=    80.00 Ry     beta= 0.20
     Davidson diagonalization with overlap

---- Real-time Memory Report at c_bands before calling an iterative solver
          1300 MiB given to the printing process from OS
             0 MiB allocation reported by mallinfo(arena+hblkhd)
        596787 MiB available memory on the node where the printing process lives
------------------
     c_bands:  2 eigenvalues not converged
     c_bands:  1 eigenvalues not converged
     c_bands:  1 eigenvalues not converged
     ethr =  1.65E-08,  avg # of iterations = 11.8

     negative rho (up, down):  2.429E-03 0.000E+00

     add environment contribution to local potential

     total cpu time spent up to now is      860.8 secs

     total energy              =    -541.25202423 Ry
     estimated scf accuracy    <       0.00000727 Ry
     electrostatic embedding   =      -0.04480703 Ry
     cavitation energy         =       0.03122246 Ry
     electrolyte free energy   =      -0.00151003 Ry
     correction to one-el term =       6.46028192 Ry

     iteration # 35     ecut=    80.00 Ry     beta= 0.20
     Davidson diagonalization with overlap

---- Real-time Memory Report at c_bands before calling an iterative solver
          1303 MiB given to the printing process from OS
             0 MiB allocation reported by mallinfo(arena+hblkhd)
        596817 MiB available memory on the node where the printing process lives
------------------
     c_bands:  1 eigenvalues not converged
     c_bands:  1 eigenvalues not converged
     c_bands:  1 eigenvalues not converged
     c_bands:  1 eigenvalues not converged
     c_bands:  1 eigenvalues not converged
     c_bands:  2 eigenvalues not converged
     c_bands:  1 eigenvalues not converged
     c_bands:  1 eigenvalues not converged
     ethr =  6.73E-09,  avg # of iterations = 13.2

     negative rho (up, down):  1.699E-03 0.000E+00

     add environment contribution to local potential

     total cpu time spent up to now is      888.4 secs

     total energy              =    -541.25202799 Ry
     estimated scf accuracy    <       0.00000458 Ry
     electrostatic embedding   =      -0.04472414 Ry
     cavitation energy         =       0.03122246 Ry
     electrolyte free energy   =      -0.00151210 Ry
     correction to one-el term =       6.51212236 Ry

     iteration # 36     ecut=    80.00 Ry     beta= 0.20
     Davidson diagonalization with overlap

---- Real-time Memory Report at c_bands before calling an iterative solver
          1308 MiB given to the printing process from OS
             0 MiB allocation reported by mallinfo(arena+hblkhd)
        596816 MiB available memory on the node where the printing process lives
------------------
     c_bands:  1 eigenvalues not converged
     ethr =  4.24E-09,  avg # of iterations =  6.3

     negative rho (up, down):  1.435E-03 0.000E+00

     add environment contribution to local potential

     total cpu time spent up to now is      910.7 secs

     total energy              =    -541.25203028 Ry
     estimated scf accuracy    <       0.00000310 Ry
     electrostatic embedding   =      -0.04471134 Ry
     cavitation energy         =       0.03122246 Ry
     electrolyte free energy   =      -0.00151291 Ry
     correction to one-el term =       6.53045310 Ry

     iteration # 37     ecut=    80.00 Ry     beta= 0.20
     Davidson diagonalization with overlap

---- Real-time Memory Report at c_bands before calling an iterative solver
          1314 MiB given to the printing process from OS
             0 MiB allocation reported by mallinfo(arena+hblkhd)
        596755 MiB available memory on the node where the printing process lives
------------------
     c_bands:  1 eigenvalues not converged
     ethr =  2.87E-09,  avg # of iterations =  5.8

     negative rho (up, down):  5.511E-04 0.000E+00

     add environment contribution to local potential

     total cpu time spent up to now is      932.9 secs

     total energy              =    -541.25202712 Ry
     estimated scf accuracy    <       0.00000253 Ry
     electrostatic embedding   =      -0.04472314 Ry
     cavitation energy         =       0.03122246 Ry
     electrolyte free energy   =      -0.00151380 Ry
     correction to one-el term =       6.54148958 Ry

     iteration # 38     ecut=    80.00 Ry     beta= 0.20
     Davidson diagonalization with overlap

---- Real-time Memory Report at c_bands before calling an iterative solver
          1317 MiB given to the printing process from OS
             0 MiB allocation reported by mallinfo(arena+hblkhd)
        596740 MiB available memory on the node where the printing process lives
------------------
     c_bands:  1 eigenvalues not converged
     c_bands:  1 eigenvalues not converged
     ethr =  2.35E-09,  avg # of iterations =  9.9

     negative rho (up, down):  5.333E-04 0.000E+00

     add environment contribution to local potential

     total cpu time spent up to now is      958.3 secs

     total energy              =    -541.25202711 Ry
     estimated scf accuracy    <       0.00000124 Ry
     electrostatic embedding   =      -0.04455486 Ry
     cavitation energy         =       0.03122246 Ry
     electrolyte free energy   =      -0.00151240 Ry
     correction to one-el term =       6.48875859 Ry

     iteration # 39     ecut=    80.00 Ry     beta= 0.20
     Davidson diagonalization with overlap

---- Real-time Memory Report at c_bands before calling an iterative solver
          1323 MiB given to the printing process from OS
             0 MiB allocation reported by mallinfo(arena+hblkhd)
        596777 MiB available memory on the node where the printing process lives
------------------
     ethr =  1.15E-09,  avg # of iterations =  3.2

     negative rho (up, down):  5.944E-04 0.000E+00

     add environment contribution to local potential

     total cpu time spent up to now is      978.8 secs

     total energy              =    -541.25202789 Ry
     estimated scf accuracy    <       0.00000061 Ry
     electrostatic embedding   =      -0.04447346 Ry
     cavitation energy         =       0.03122246 Ry
     electrolyte free energy   =      -0.00151101 Ry
     correction to one-el term =       6.46582436 Ry

     iteration # 40     ecut=    80.00 Ry     beta= 0.20
     Davidson diagonalization with overlap

---- Real-time Memory Report at c_bands before calling an iterative solver
          1327 MiB given to the printing process from OS
             0 MiB allocation reported by mallinfo(arena+hblkhd)
        596767 MiB available memory on the node where the printing process lives
------------------
     ethr =  5.67E-10,  avg # of iterations =  3.9

     negative rho (up, down):  4.512E-04 0.000E+00

     add environment contribution to local potential

     total cpu time spent up to now is     1000.3 secs

     total energy              =    -541.25202885 Ry
     estimated scf accuracy    <       0.00000032 Ry
     electrostatic embedding   =      -0.04447248 Ry
     cavitation energy         =       0.03122246 Ry
     electrolyte free energy   =      -0.00150974 Ry
     correction to one-el term =       6.48275915 Ry

     iteration # 41     ecut=    80.00 Ry     beta= 0.20
     Davidson diagonalization with overlap

---- Real-time Memory Report at c_bands before calling an iterative solver
          1332 MiB given to the printing process from OS
             0 MiB allocation reported by mallinfo(arena+hblkhd)
        596674 MiB available memory on the node where the printing process lives
------------------
     ethr =  2.93E-10,  avg # of iterations =  2.3

     negative rho (up, down):  4.435E-04 0.000E+00

     add environment contribution to local potential

     total cpu time spent up to now is     1020.6 secs

     total energy              =    -541.25202910 Ry
     estimated scf accuracy    <       0.00000015 Ry
     electrostatic embedding   =      -0.04444389 Ry
     cavitation energy         =       0.03122246 Ry
     electrolyte free energy   =      -0.00150940 Ry
     correction to one-el term =       6.48614153 Ry

     iteration # 42     ecut=    80.00 Ry     beta= 0.20
     Davidson diagonalization with overlap

---- Real-time Memory Report at c_bands before calling an iterative solver
          1335 MiB given to the printing process from OS
             0 MiB allocation reported by mallinfo(arena+hblkhd)
        596661 MiB available memory on the node where the printing process lives
------------------
     ethr =  1.37E-10,  avg # of iterations =  3.8

     negative rho (up, down):  4.479E-04 0.000E+00

     add environment contribution to local potential

     total cpu time spent up to now is     1041.9 secs

     total energy              =    -541.25202902 Ry
     estimated scf accuracy    <       0.00000009 Ry
     electrostatic embedding   =      -0.04446566 Ry
     cavitation energy         =       0.03122246 Ry
     electrolyte free energy   =      -0.00150956 Ry
     correction to one-el term =       6.49429576 Ry

     iteration # 43     ecut=    80.00 Ry     beta= 0.20
     Davidson diagonalization with overlap

---- Real-time Memory Report at c_bands before calling an iterative solver
          1339 MiB given to the printing process from OS
             0 MiB allocation reported by mallinfo(arena+hblkhd)
        596677 MiB available memory on the node where the printing process lives
------------------
     ethr =  8.56E-11,  avg # of iterations =  2.9

     negative rho (up, down):  5.093E-04 0.000E+00

     add environment contribution to local potential

     total cpu time spent up to now is     1062.5 secs

     total energy              =    -541.25202834 Ry
     estimated scf accuracy    <       0.00000006 Ry
     electrostatic embedding   =      -0.04445852 Ry
     cavitation energy         =       0.03122246 Ry
     electrolyte free energy   =      -0.00150943 Ry
     correction to one-el term =       6.49713917 Ry

     iteration # 44     ecut=    80.00 Ry     beta= 0.20
     Davidson diagonalization with overlap

---- Real-time Memory Report at c_bands before calling an iterative solver
          1341 MiB given to the printing process from OS
             0 MiB allocation reported by mallinfo(arena+hblkhd)
        596669 MiB available memory on the node where the printing process lives
------------------
     ethr =  5.13E-11,  avg # of iterations =  4.1

     negative rho (up, down):  4.995E-04 0.000E+00

     add environment contribution to local potential

     total cpu time spent up to now is     1084.5 secs

     total energy              =    -541.25202850 Ry
     estimated scf accuracy    <       0.00000003 Ry
     electrostatic embedding   =      -0.04444957 Ry
     cavitation energy         =       0.03122246 Ry
     electrolyte free energy   =      -0.00150898 Ry
     correction to one-el term =       6.50234441 Ry

     iteration # 45     ecut=    80.00 Ry     beta= 0.20
     Davidson diagonalization with overlap

---- Real-time Memory Report at c_bands before calling an iterative solver
          1343 MiB given to the printing process from OS
             0 MiB allocation reported by mallinfo(arena+hblkhd)
        596745 MiB available memory on the node where the printing process lives
------------------
     ethr =  2.63E-11,  avg # of iterations =  2.3

     negative rho (up, down):  4.615E-04 0.000E+00

     add environment contribution to local potential

     total cpu time spent up to now is     1104.3 secs

     total energy              =    -541.25202897 Ry
     estimated scf accuracy    <       0.00000003 Ry
     electrostatic embedding   =      -0.04444861 Ry
     cavitation energy         =       0.03122246 Ry
     electrolyte free energy   =      -0.00150894 Ry
     correction to one-el term =       6.50212991 Ry

     iteration # 46     ecut=    80.00 Ry     beta= 0.20
     Davidson diagonalization with overlap

---- Real-time Memory Report at c_bands before calling an iterative solver
          1347 MiB given to the printing process from OS
             0 MiB allocation reported by mallinfo(arena+hblkhd)
        596658 MiB available memory on the node where the printing process lives
------------------
     ethr =  2.43E-11,  avg # of iterations =  2.0

     negative rho (up, down):  4.512E-04 0.000E+00

     add environment contribution to local potential

     total cpu time spent up to now is     1124.4 secs

     total energy              =    -541.25202928 Ry
     estimated scf accuracy    <       0.00000002 Ry
     electrostatic embedding   =      -0.04444667 Ry
     cavitation energy         =       0.03122246 Ry
     electrolyte free energy   =      -0.00150883 Ry
     correction to one-el term =       6.50087202 Ry

     iteration # 47     ecut=    80.00 Ry     beta= 0.20
     Davidson diagonalization with overlap

---- Real-time Memory Report at c_bands before calling an iterative solver
          1349 MiB given to the printing process from OS
             0 MiB allocation reported by mallinfo(arena+hblkhd)
        596723 MiB available memory on the node where the printing process lives
------------------
     ethr =  1.85E-11,  avg # of iterations =  3.1

     negative rho (up, down):  4.454E-04 0.000E+00

     add environment contribution to local potential

     total cpu time spent up to now is     1144.8 secs

     total energy              =    -541.25202926 Ry
     estimated scf accuracy    <       0.00000002 Ry
     electrostatic embedding   =      -0.04444588 Ry
     cavitation energy         =       0.03122246 Ry
     electrolyte free energy   =      -0.00150876 Ry
     correction to one-el term =       6.49960189 Ry

     iteration # 48     ecut=    80.00 Ry     beta= 0.20
     Davidson diagonalization with overlap

---- Real-time Memory Report at c_bands before calling an iterative solver
          1353 MiB given to the printing process from OS
             0 MiB allocation reported by mallinfo(arena+hblkhd)
        596602 MiB available memory on the node where the printing process lives
------------------
     ethr =  1.52E-11,  avg # of iterations =  1.0

     negative rho (up, down):  4.351E-04 0.000E+00

     add environment contribution to local potential

     total cpu time spent up to now is     1162.8 secs

     total energy              =    -541.25202900 Ry
     estimated scf accuracy    <       0.00000002 Ry
     electrostatic embedding   =      -0.04444508 Ry
     cavitation energy         =       0.03122246 Ry
     electrolyte free energy   =      -0.00150877 Ry
     correction to one-el term =       6.49895178 Ry

     iteration # 49     ecut=    80.00 Ry     beta= 0.20
     Davidson diagonalization with overlap

---- Real-time Memory Report at c_bands before calling an iterative solver
          1356 MiB given to the printing process from OS
             0 MiB allocation reported by mallinfo(arena+hblkhd)
        596622 MiB available memory on the node where the printing process lives
------------------
     ethr =  1.40E-11,  avg # of iterations =  2.1

     negative rho (up, down):  4.464E-04 0.000E+00

     add environment contribution to local potential

     total cpu time spent up to now is     1182.6 secs

     total energy              =    -541.25202885 Ry
     estimated scf accuracy    <       0.00000001 Ry
     electrostatic embedding   =      -0.04444441 Ry
     cavitation energy         =       0.03122246 Ry
     electrolyte free energy   =      -0.00150886 Ry
     correction to one-el term =       6.49818156 Ry

     iteration # 50     ecut=    80.00 Ry     beta= 0.20
     Davidson diagonalization with overlap

---- Real-time Memory Report at c_bands before calling an iterative solver
          1359 MiB given to the printing process from OS
             0 MiB allocation reported by mallinfo(arena+hblkhd)
        596588 MiB available memory on the node where the printing process lives
------------------
     ethr =  1.03E-11,  avg # of iterations =  2.0

     negative rho (up, down):  4.534E-04 0.000E+00

     add environment contribution to local potential

     total cpu time spent up to now is     1202.4 secs

     total energy              =    -541.25202891 Ry
     estimated scf accuracy    <          6.8E-09 Ry
     electrostatic embedding   =      -0.04445079 Ry
     cavitation energy         =       0.03122246 Ry
     electrolyte free energy   =      -0.00150899 Ry
     correction to one-el term =       6.50001253 Ry

     iteration # 51     ecut=    80.00 Ry     beta= 0.20
     Davidson diagonalization with overlap

---- Real-time Memory Report at c_bands before calling an iterative solver
          1363 MiB given to the printing process from OS
             0 MiB allocation reported by mallinfo(arena+hblkhd)
        596540 MiB available memory on the node where the printing process lives
------------------
     ethr =  6.29E-12,  avg # of iterations =  2.0

     negative rho (up, down):  4.593E-04 0.000E+00

     add environment contribution to local potential

     total cpu time spent up to now is     1221.6 secs

     total energy              =    -541.25202908 Ry
     estimated scf accuracy    <          6.3E-09 Ry
     electrostatic embedding   =      -0.04445327 Ry
     cavitation energy         =       0.03122246 Ry
     electrolyte free energy   =      -0.00150904 Ry
     correction to one-el term =       6.50092641 Ry

     iteration # 52     ecut=    80.00 Ry     beta= 0.20
     Davidson diagonalization with overlap

---- Real-time Memory Report at c_bands before calling an iterative solver
          1367 MiB given to the printing process from OS
             0 MiB allocation reported by mallinfo(arena+hblkhd)
        596635 MiB available memory on the node where the printing process lives
------------------
     ethr =  5.82E-12,  avg # of iterations =  2.0

     negative rho (up, down):  4.634E-04 0.000E+00

     add environment contribution to local potential

     total cpu time spent up to now is     1241.2 secs

     total energy              =    -541.25202918 Ry
     estimated scf accuracy    <          5.8E-09 Ry
     electrostatic embedding   =      -0.04445411 Ry
     cavitation energy         =       0.03122246 Ry
     electrolyte free energy   =      -0.00150908 Ry
     correction to one-el term =       6.50138807 Ry

     iteration # 53     ecut=    80.00 Ry     beta= 0.20
     Davidson diagonalization with overlap

---- Real-time Memory Report at c_bands before calling an iterative solver
          1369 MiB given to the printing process from OS
             0 MiB allocation reported by mallinfo(arena+hblkhd)
        596588 MiB available memory on the node where the printing process lives
------------------
     ethr =  5.34E-12,  avg # of iterations =  2.0

     negative rho (up, down):  4.634E-04 0.000E+00

     add environment contribution to local potential

     total cpu time spent up to now is     1260.5 secs

     total energy              =    -541.25202926 Ry
     estimated scf accuracy    <          5.1E-09 Ry
     electrostatic embedding   =      -0.04445400 Ry
     cavitation energy         =       0.03122246 Ry
     electrolyte free energy   =      -0.00150908 Ry
     correction to one-el term =       6.50162822 Ry

     iteration # 54     ecut=    80.00 Ry     beta= 0.20
     Davidson diagonalization with overlap

---- Real-time Memory Report at c_bands before calling an iterative solver
          1371 MiB given to the printing process from OS
             0 MiB allocation reported by mallinfo(arena+hblkhd)
        596610 MiB available memory on the node where the printing process lives
------------------
     ethr =  4.68E-12,  avg # of iterations =  2.0

     negative rho (up, down):  4.573E-04 0.000E+00

     add environment contribution to local potential

     total cpu time spent up to now is     1279.8 secs

     total energy              =    -541.25202929 Ry
     estimated scf accuracy    <          4.2E-09 Ry
     electrostatic embedding   =      -0.04445342 Ry
     cavitation energy         =       0.03122246 Ry
     electrolyte free energy   =      -0.00150907 Ry
     correction to one-el term =       6.50152870 Ry

     iteration # 55     ecut=    80.00 Ry     beta= 0.20
     Davidson diagonalization with overlap

---- Real-time Memory Report at c_bands before calling an iterative solver
          1371 MiB given to the printing process from OS
             0 MiB allocation reported by mallinfo(arena+hblkhd)
        596612 MiB available memory on the node where the printing process lives
------------------
     ethr =  3.92E-12,  avg # of iterations =  2.0

     negative rho (up, down):  4.563E-04 0.000E+00

     add environment contribution to local potential

     total cpu time spent up to now is     1299.4 secs

     total energy              =    -541.25202925 Ry
     estimated scf accuracy    <          3.2E-09 Ry
     electrostatic embedding   =      -0.04445330 Ry
     cavitation energy         =       0.03122246 Ry
     electrolyte free energy   =      -0.00150913 Ry
     correction to one-el term =       6.50056040 Ry

     iteration # 56     ecut=    80.00 Ry     beta= 0.20
     Davidson diagonalization with overlap

---- Real-time Memory Report at c_bands before calling an iterative solver
          1372 MiB given to the printing process from OS
             0 MiB allocation reported by mallinfo(arena+hblkhd)
        596594 MiB available memory on the node where the printing process lives
------------------
     ethr =  2.92E-12,  avg # of iterations =  2.0

     negative rho (up, down):  4.575E-04 0.000E+00

     add environment contribution to local potential

     total cpu time spent up to now is     1318.7 secs

     total energy              =    -541.25202906 Ry
     estimated scf accuracy    <          2.8E-09 Ry
     electrostatic embedding   =      -0.04445376 Ry
     cavitation energy         =       0.03122246 Ry
     electrolyte free energy   =      -0.00150916 Ry
     correction to one-el term =       6.50033116 Ry

     iteration # 57     ecut=    80.00 Ry     beta= 0.20
     Davidson diagonalization with overlap

---- Real-time Memory Report at c_bands before calling an iterative solver
          1374 MiB given to the printing process from OS
             0 MiB allocation reported by mallinfo(arena+hblkhd)
        596543 MiB available memory on the node where the printing process lives
------------------
     ethr =  2.60E-12,  avg # of iterations =  2.4

     negative rho (up, down):  4.631E-04 0.000E+00

     add environment contribution to local potential

     total cpu time spent up to now is     1338.8 secs

     total energy              =    -541.25202893 Ry
     estimated scf accuracy    <          2.0E-09 Ry
     electrostatic embedding   =      -0.04445240 Ry
     cavitation energy         =       0.03122246 Ry
     electrolyte free energy   =      -0.00150911 Ry
     correction to one-el term =       6.50025213 Ry

     iteration # 58     ecut=    80.00 Ry     beta= 0.20
     Davidson diagonalization with overlap

---- Real-time Memory Report at c_bands before calling an iterative solver
          1375 MiB given to the printing process from OS
             0 MiB allocation reported by mallinfo(arena+hblkhd)
        596567 MiB available memory on the node where the printing process lives
------------------
     ethr =  1.89E-12,  avg # of iterations =  2.1

     negative rho (up, down):  4.616E-04 0.000E+00

     add environment contribution to local potential

     total cpu time spent up to now is     1358.6 secs

     total energy              =    -541.25202892 Ry
     estimated scf accuracy    <          1.7E-09 Ry
     electrostatic embedding   =      -0.04445132 Ry
     cavitation energy         =       0.03122246 Ry
     electrolyte free energy   =      -0.00150908 Ry
     correction to one-el term =       6.50037302 Ry

     iteration # 59     ecut=    80.00 Ry     beta= 0.20
     Davidson diagonalization with overlap

---- Real-time Memory Report at c_bands before calling an iterative solver
          1378 MiB given to the printing process from OS
             0 MiB allocation reported by mallinfo(arena+hblkhd)
        598186 MiB available memory on the node where the printing process lives
------------------
     ethr =  1.60E-12,  avg # of iterations =  1.2

     negative rho (up, down):  4.585E-04 0.000E+00

     add environment contribution to local potential

     total cpu time spent up to now is     1376.7 secs

     total energy              =    -541.25202905 Ry
     estimated scf accuracy    <          1.6E-09 Ry
     electrostatic embedding   =      -0.04445061 Ry
     cavitation energy         =       0.03122246 Ry
     electrolyte free energy   =      -0.00150907 Ry
     correction to one-el term =       6.50028043 Ry

     iteration # 60     ecut=    80.00 Ry     beta= 0.20
     Davidson diagonalization with overlap

---- Real-time Memory Report at c_bands before calling an iterative solver
          1381 MiB given to the printing process from OS
             0 MiB allocation reported by mallinfo(arena+hblkhd)
        596508 MiB available memory on the node where the printing process lives
------------------
     ethr =  1.49E-12,  avg # of iterations =  2.0

     negative rho (up, down):  4.581E-04 0.000E+00

     add environment contribution to local potential

     total cpu time spent up to now is     1396.7 secs

     total energy              =    -541.25202917 Ry
     estimated scf accuracy    <          1.3E-09 Ry
     electrostatic embedding   =      -0.04444990 Ry
     cavitation energy         =       0.03122246 Ry
     electrolyte free energy   =      -0.00150904 Ry
     correction to one-el term =       6.50042197 Ry

     iteration # 61     ecut=    80.00 Ry     beta= 0.20
     Davidson diagonalization with overlap

---- Real-time Memory Report at c_bands before calling an iterative solver
          1382 MiB given to the printing process from OS
             0 MiB allocation reported by mallinfo(arena+hblkhd)
        596479 MiB available memory on the node where the printing process lives
------------------
     ethr =  1.23E-12,  avg # of iterations =  3.1

     negative rho (up, down):  4.598E-04 0.000E+00

     add environment contribution to local potential

     total cpu time spent up to now is     1417.2 secs

     total energy              =    -541.25202916 Ry
     estimated scf accuracy    <          1.1E-09 Ry
     electrostatic embedding   =      -0.04444914 Ry
     cavitation energy         =       0.03122246 Ry
     electrolyte free energy   =      -0.00150901 Ry
[...]
     atom    6 type  1   force =     0.00009938    0.00337685   -0.00271939
     atom    7 type  1   force =    -0.00001138   -0.00048757    0.00119692
     atom    8 type  1   force =    -0.00002705    0.00205905    0.00797083
     atom    9 type  1   force =     0.00001603    0.00342703    0.04780264
     atom   10 type  1   force =     0.00002707   -0.00205906   -0.00797078
     atom   11 type  1   force =     0.00001136    0.00048757   -0.00119690
     atom   12 type  1   force =    -0.00009938   -0.00337685    0.00271939
     atom   13 type  1   force =    -0.00002427   -0.00821376   -0.00449178
     atom   14 type  1   force =     0.00008684    0.00800142    0.00045744
     atom   15 type  1   force =     0.00001508   -0.00066909    0.00732762
     atom   16 type  1   force =    -0.00002267    0.00752269    0.06790599
     atom   17 type  1   force =    -0.00003727    0.01232214   -0.09328834
     atom   18 type  1   force =    -0.00001603   -0.00342702   -0.04780266
     atom   19 type  1   force =     0.00003727   -0.01232214    0.09328833
     atom   20 type  1   force =     0.00002266   -0.00752269   -0.06790598
     atom   21 type  1   force =    -0.00001508    0.00066910   -0.00732762
     atom   22 type  1   force =    -0.00008684   -0.00800144   -0.00045743
     atom   23 type  1   force =     0.00002428    0.00821377    0.00449178
     atom   24 type  1   force =     0.00009938    0.00337684   -0.00271939
     atom   25 type  1   force =    -0.00001135   -0.00048757    0.00119693
     atom   26 type  1   force =    -0.00002706    0.00205907    0.00797077
     atom   27 type  1   force =     0.00001602    0.00342703    0.04780266
     atom   28 type  1   force =     0.00002706   -0.00205906   -0.00797079
     atom   29 type  1   force =     0.00001136    0.00048757   -0.00119693
     atom   30 type  1   force =    -0.00009938   -0.00337684    0.00271941
     atom   31 type  1   force =    -0.00002429   -0.00821377   -0.00449175
     atom   32 type  1   force =     0.00008683    0.00800144    0.00045743
     atom   33 type  1   force =     0.00001507   -0.00066909    0.00732763
     atom   34 type  1   force =    -0.00002266    0.00752272    0.06790593
     atom   35 type  1   force =    -0.00003729    0.01232213   -0.09328834
     atom   36 type  1   force =    -0.00001602   -0.00342703   -0.04780267
     The ionic contribution  to forces
     atom    1 type  1   force =     0.00012571   -0.16613724   11.07307989
     atom    2 type  1   force =     0.00019296   -0.17137690  -10.19434271
     atom    3 type  1   force =     0.00001905    0.08121407   -7.04017057
     atom    4 type  1   force =    -0.00026067   -0.07682444   -5.43493912
     atom    5 type  1   force =     0.00014389    0.07213008   -1.90670177
     atom    6 type  1   force =     0.00031302   -0.02222299    0.26270393
     atom    7 type  1   force =    -0.00017239    0.01470298    3.44482853
     atom    8 type  1   force =    -0.00028822   -0.09060087    6.91883485
     atom    9 type  1   force =    -0.00002815    0.11024316    9.27408474
     atom   10 type  1   force =     0.00028857    0.09060073   -6.91883318
     atom   11 type  1   force =     0.00017224   -0.01470296   -3.44482653
     atom   12 type  1   force =    -0.00031311    0.02222299   -0.26270217
     atom   13 type  1   force =    -0.00014363   -0.07212999    1.90670152
     atom   14 type  1   force =     0.00026075    0.07682432    5.43493846
     atom   15 type  1   force =    -0.00001896   -0.08121411    7.04017190
     atom   16 type  1   force =    -0.00019275    0.17137659   10.19434417
     atom   17 type  1   force =    -0.00012536    0.16613718  -11.07307972
     atom   18 type  1   force =     0.00002848   -0.11024268   -9.27408533
     atom   19 type  1   force =     0.00012515   -0.16613733   11.07307960
     atom   20 type  1   force =     0.00019265   -0.17137673  -10.19434369
     atom   21 type  1   force =     0.00001888    0.08121441   -7.04017351
     atom   22 type  1   force =    -0.00026082   -0.07682463   -5.43493890
     atom   23 type  1   force =     0.00014382    0.07213006   -1.90670184
     atom   24 type  1   force =     0.00031297   -0.02222310    0.26270383
     atom   25 type  1   force =    -0.00017206    0.01470295    3.44482614
     atom   26 type  1   force =    -0.00028840   -0.09060061    6.91883187
     atom   27 type  1   force =    -0.00002862    0.11024249    9.27408578
     atom   28 type  1   force =     0.00028826    0.09060070   -6.91883355
     atom   29 type  1   force =     0.00017217   -0.01470303   -3.44482852
     atom   30 type  1   force =    -0.00031302    0.02222313   -0.26270500
     atom   31 type  1   force =    -0.00014382   -0.07213017    1.90670186
     atom   32 type  1   force =     0.00026060    0.07682461    5.43493954
     atom   33 type  1   force =    -0.00001926   -0.08121412    7.04017286
     atom   34 type  1   force =    -0.00019281    0.17137705   10.19434233
     atom   35 type  1   force =    -0.00012557    0.16613713  -11.07307992
     atom   36 type  1   force =     0.00002846   -0.11024274   -9.27408578
     The local contribution  to forces
     atom    1 type  1   force =    -0.00016672    0.15469822  -11.19729152
     atom    2 type  1   force =    -0.00021761    0.16902054   10.28021163
     atom    3 type  1   force =    -0.00000632   -0.08081052    7.03646343
     atom    4 type  1   force =     0.00035225    0.08624649    5.43829961
     atom    5 type  1   force =    -0.00016758   -0.08143154    1.89953471
     atom    6 type  1   force =    -0.00041430    0.01899416   -0.25887103
     atom    7 type  1   force =     0.00018711   -0.01217434   -3.44609962
     atom    8 type  1   force =     0.00031424    0.07893832   -6.92017178
     atom    9 type  1   force =     0.00000680   -0.09570409   -9.31672373
     atom   10 type  1   force =    -0.00031460   -0.07893820    6.92017014
     atom   11 type  1   force =    -0.00018692    0.01217432    3.44609764
     atom   12 type  1   force =     0.00041440   -0.01899416    0.25886930
     atom   13 type  1   force =     0.00016730    0.08143145   -1.89953441
     atom   14 type  1   force =    -0.00035236   -0.08624637   -5.43829893
     atom   15 type  1   force =     0.00000627    0.08081056   -7.03646474
     atom   16 type  1   force =     0.00021743   -0.16902021  -10.28021313
     atom   17 type  1   force =     0.00016641   -0.15469817   11.19729136
     atom   18 type  1   force =    -0.00000712    0.09570364    9.31672439
     atom   19 type  1   force =    -0.00016624    0.15469830  -11.19729120
     atom   20 type  1   force =    -0.00021731    0.16902034   10.28021266
     atom   21 type  1   force =    -0.00000617   -0.08081085    7.03646638
     atom   22 type  1   force =     0.00035241    0.08624668    5.43829940
     atom   23 type  1   force =    -0.00016749   -0.08143153    1.89953478
     atom   24 type  1   force =    -0.00041426    0.01899428   -0.25887092
     atom   25 type  1   force =     0.00018674   -0.01217432   -3.44609723
     atom   26 type  1   force =     0.00031442    0.07893807   -6.92016881
     atom   27 type  1   force =     0.00000726   -0.09570349   -9.31672483
     atom   28 type  1   force =    -0.00031427   -0.07893816    6.92017052
     atom   29 type  1   force =    -0.00018687    0.01217439    3.44609964
     atom   30 type  1   force =     0.00041430   -0.01899430    0.25887211
     atom   31 type  1   force =     0.00016750    0.08143163   -1.89953479
     atom   32 type  1   force =    -0.00035219   -0.08624666   -5.43830000
     atom   33 type  1   force =     0.00000652    0.08081059   -7.03646570
     atom   34 type  1   force =     0.00021745   -0.16902066  -10.28021119
     atom   35 type  1   force =     0.00016664   -0.15469810   11.19729154
     atom   36 type  1   force =    -0.00000712    0.09570371    9.31672486
     The core correction contribution to forces
     atom    1 type  1   force =     0.00000000    0.00000000    0.00000000
     atom    2 type  1   force =     0.00000000    0.00000000    0.00000000
     atom    3 type  1   force =     0.00000000    0.00000000    0.00000000
     atom    4 type  1   force =     0.00000000    0.00000000    0.00000000
     atom    5 type  1   force =     0.00000000    0.00000000    0.00000000
     atom    6 type  1   force =     0.00000000    0.00000000    0.00000000
     atom    7 type  1   force =     0.00000000    0.00000000    0.00000000
     atom    8 type  1   force =     0.00000000    0.00000000    0.00000000
     atom    9 type  1   force =     0.00000000    0.00000000    0.00000000
     atom   10 type  1   force =     0.00000000    0.00000000    0.00000000
     atom   11 type  1   force =     0.00000000    0.00000000    0.00000000
     atom   12 type  1   force =     0.00000000    0.00000000    0.00000000
     atom   13 type  1   force =     0.00000000    0.00000000    0.00000000
     atom   14 type  1   force =     0.00000000    0.00000000    0.00000000
     atom   15 type  1   force =     0.00000000    0.00000000    0.00000000
     atom   16 type  1   force =     0.00000000    0.00000000    0.00000000
     atom   17 type  1   force =     0.00000000    0.00000000    0.00000000
     atom   18 type  1   force =     0.00000000    0.00000000    0.00000000
     atom   19 type  1   force =     0.00000000    0.00000000    0.00000000
     atom   20 type  1   force =     0.00000000    0.00000000    0.00000000
     atom   21 type  1   force =     0.00000000    0.00000000    0.00000000
     atom   22 type  1   force =     0.00000000    0.00000000    0.00000000
     atom   23 type  1   force =     0.00000000    0.00000000    0.00000000
     atom   24 type  1   force =     0.00000000    0.00000000    0.00000000
     atom   25 type  1   force =     0.00000000    0.00000000    0.00000000
     atom   26 type  1   force =     0.00000000    0.00000000    0.00000000
     atom   27 type  1   force =     0.00000000    0.00000000    0.00000000
     atom   28 type  1   force =     0.00000000    0.00000000    0.00000000
     atom   29 type  1   force =     0.00000000    0.00000000    0.00000000
     atom   30 type  1   force =     0.00000000    0.00000000    0.00000000
     atom   31 type  1   force =     0.00000000    0.00000000    0.00000000
     atom   32 type  1   force =     0.00000000    0.00000000    0.00000000
     atom   33 type  1   force =     0.00000000    0.00000000    0.00000000
     atom   34 type  1   force =     0.00000000    0.00000000    0.00000000
     atom   35 type  1   force =     0.00000000    0.00000000    0.00000000
     atom   36 type  1   force =     0.00000000    0.00000000    0.00000000
     The Hubbard contrib.    to forces
     atom    1 type  1   force =     0.00000000    0.00000000    0.00000000
     atom    2 type  1   force =     0.00000000    0.00000000    0.00000000
     atom    3 type  1   force =     0.00000000    0.00000000    0.00000000
     atom    4 type  1   force =     0.00000000    0.00000000    0.00000000
     atom    5 type  1   force =     0.00000000    0.00000000    0.00000000
     atom    6 type  1   force =     0.00000000    0.00000000    0.00000000
     atom    7 type  1   force =     0.00000000    0.00000000    0.00000000
     atom    8 type  1   force =     0.00000000    0.00000000    0.00000000
     atom    9 type  1   force =     0.00000000    0.00000000    0.00000000
     atom   10 type  1   force =     0.00000000    0.00000000    0.00000000
     atom   11 type  1   force =     0.00000000    0.00000000    0.00000000
     atom   12 type  1   force =     0.00000000    0.00000000    0.00000000
     atom   13 type  1   force =     0.00000000    0.00000000    0.00000000
     atom   14 type  1   force =     0.00000000    0.00000000    0.00000000
     atom   15 type  1   force =     0.00000000    0.00000000    0.00000000
     atom   16 type  1   force =     0.00000000    0.00000000    0.00000000
     atom   17 type  1   force =     0.00000000    0.00000000    0.00000000
     atom   18 type  1   force =     0.00000000    0.00000000    0.00000000
     atom   19 type  1   force =     0.00000000    0.00000000    0.00000000
     atom   20 type  1   force =     0.00000000    0.00000000    0.00000000
     atom   21 type  1   force =     0.00000000    0.00000000    0.00000000
     atom   22 type  1   force =     0.00000000    0.00000000    0.00000000
     atom   23 type  1   force =     0.00000000    0.00000000    0.00000000
     atom   24 type  1   force =     0.00000000    0.00000000    0.00000000
     atom   25 type  1   force =     0.00000000    0.00000000    0.00000000
     atom   26 type  1   force =     0.00000000    0.00000000    0.00000000
     atom   27 type  1   force =     0.00000000    0.00000000    0.00000000
     atom   28 type  1   force =     0.00000000    0.00000000    0.00000000
     atom   29 type  1   force =     0.00000000    0.00000000    0.00000000
     atom   30 type  1   force =     0.00000000    0.00000000    0.00000000
     atom   31 type  1   force =     0.00000000    0.00000000    0.00000000
     atom   32 type  1   force =     0.00000000    0.00000000    0.00000000
     atom   33 type  1   force =     0.00000000    0.00000000    0.00000000
     atom   34 type  1   force =     0.00000000    0.00000000    0.00000000
     atom   35 type  1   force =     0.00000000    0.00000000    0.00000000
     atom   36 type  1   force =     0.00000000    0.00000000    0.00000000
     The SCF correction term to forces
     atom    1 type  1   force =    -0.00000000   -0.00000000    0.00000002
     atom    2 type  1   force =     0.00000000   -0.00000000   -0.00000001
     atom    3 type  1   force =    -0.00000000    0.00000000    0.00000001
     atom    4 type  1   force =     0.00000000   -0.00000001    0.00000001
     atom    5 type  1   force =     0.00000000    0.00000000    0.00000002
     atom    6 type  1   force =    -0.00000001    0.00000000    0.00000002
     atom    7 type  1   force =    -0.00000000    0.00000000    0.00000001
     atom    8 type  1   force =     0.00000000   -0.00000001    0.00000002
     atom    9 type  1   force =     0.00000000    0.00000000    0.00000001
     atom   10 type  1   force =    -0.00000000    0.00000001    0.00000001
     atom   11 type  1   force =    -0.00000000   -0.00000000    0.00000001
     atom   12 type  1   force =    -0.00000000    0.00000000    0.00000001
     atom   13 type  1   force =     0.00000000   -0.00000001    0.00000001
     atom   14 type  1   force =     0.00000000    0.00000000    0.00000001
     atom   15 type  1   force =    -0.00000000   -0.00000000    0.00000001
     atom   16 type  1   force =    -0.00000000    0.00000001    0.00000002
     atom   17 type  1   force =    -0.00000000    0.00000000   -0.00000002
     atom   18 type  1   force =     0.00000000   -0.00000000    0.00000000
     atom   19 type  1   force =     0.00000000    0.00000000    0.00000003
     atom   20 type  1   force =     0.00000000   -0.00000001   -0.00000000
     atom   21 type  1   force =     0.00000000   -0.00000000    0.00000001
     atom   22 type  1   force =     0.00000000   -0.00000000    0.00000002
     atom   23 type  1   force =    -0.00000000    0.00000000    0.00000001
     atom   24 type  1   force =     0.00000000   -0.00000000    0.00000002
     atom   25 type  1   force =     0.00000000    0.00000000    0.00000000
     atom   26 type  1   force =    -0.00000000   -0.00000001    0.00000001
     atom   27 type  1   force =    -0.00000000    0.00000001    0.00000001
     atom   28 type  1   force =     0.00000000    0.00000001    0.00000000
     atom   29 type  1   force =     0.00000000   -0.00000001    0.00000002
     atom   30 type  1   force =     0.00000000    0.00000000    0.00000001
     atom   31 type  1   force =    -0.00000000   -0.00000000    0.00000001
     atom   32 type  1   force =    -0.00000000   -0.00000000   -0.00000000
     atom   33 type  1   force =     0.00000000   -0.00000000    0.00000001
     atom   34 type  1   force =    -0.00000000    0.00000001    0.00000002
     atom   35 type  1   force =    -0.00000000   -0.00000000   -0.00000001
     atom   36 type  1   force =    -0.00000000   -0.00000000    0.00000001

     Total force =     0.000060     Total SCF correction =     0.000000
     Message from routine punch:
     Nothing written, as per user request (disk_io='none')
 
     init_run     :     13.05s CPU     13.87s WALL (       1 calls)
     electrons    :   3001.56s CPU   3033.34s WALL (       1 calls)
     forces       :     15.45s CPU     15.60s WALL (       1 calls)

     Called by init_run:
     wfcinit      :      5.00s CPU      5.18s WALL (       1 calls)
     wfcinit:wfcr :      4.69s CPU      4.86s WALL (      32 calls)
     potinit      :      0.11s CPU      0.18s WALL (       1 calls)
     hinit0       :      2.17s CPU      2.56s WALL (       1 calls)

     Called by electrons:
     c_bands      :   1955.56s CPU   1970.75s WALL (     150 calls)
     sum_band     :    366.28s CPU    373.01s WALL (     150 calls)
     v_of_rho     :     12.24s CPU     12.56s WALL (     151 calls)
     v_h          :      1.10s CPU      1.12s WALL (     151 calls)
     v_xc         :     11.13s CPU     11.44s WALL (     151 calls)
     newd         :      7.86s CPU     11.09s WALL (     151 calls)
     PAW_pot      :      1.79s CPU      1.87s WALL (     151 calls)
     mix_rho      :     32.04s CPU     32.83s WALL (     150 calls)

     Called by c_bands:
     init_us_2    :     59.12s CPU     59.66s WALL (    9664 calls)
     cegterg      :   1889.38s CPU   1903.54s WALL (    4800 calls)

     Called by sum_band:
     sum_band:wei :      0.37s CPU      0.40s WALL (     150 calls)
     sum_band:loo :    355.84s CPU    358.68s WALL (     150 calls)
     sum_band:buf :      4.44s CPU      4.49s WALL (    4800 calls)
     sum_band:ini :     28.44s CPU     28.66s WALL (    4800 calls)
     sum_band:cal :     58.62s CPU     58.94s WALL (    4800 calls)
     sum_band:bec :      0.86s CPU      0.87s WALL (    4800 calls)
     addusdens    :      8.61s CPU     12.39s WALL (     150 calls)
                                        0.00s GPU  (     150 calls)
     addusd:skk   :      1.36s CPU      2.83s WALL (     150 calls)
                                        0.00s GPU  (     150 calls)

     Called by *egterg:
     cdiaghg      :    130.17s CPU    130.91s WALL (   20839 calls)
     cegterg:over :     95.10s CPU     95.79s WALL (   16039 calls)
     cegterg:upda :     63.52s CPU     63.98s WALL (   16039 calls)
     cegterg:last :     95.36s CPU     95.95s WALL (    7816 calls)
     h_psi        :   1307.00s CPU   1317.51s WALL (   20871 calls)
     s_psi        :    133.01s CPU    133.90s WALL (   20871 calls)
     g_psi        :      0.92s CPU      0.93s WALL (   16039 calls)

     Called by h_psi:
     h_psi:calbec :    160.91s CPU    162.14s WALL (   20871 calls)
     vloc_psi     :    973.44s CPU    981.60s WALL (   20871 calls)
                                        0.00s GPU  (   20871 calls)
     add_vuspsi   :    163.12s CPU    164.21s WALL (   20871 calls)

     General routines
     calbec       :    220.82s CPU    222.43s WALL (   25799 calls)
     fft          :      9.77s CPU      9.92s WALL (    1963 calls)
     ffts         :     18.80s CPU     19.01s WALL (   18628 calls)
     fftw         :   1181.34s CPU   1191.42s WALL ( 2096444 calls)
     interpolate  :      0.92s CPU      0.98s WALL (     151 calls)
 
     Parallel routines

     PAW routines
     PAW_pot      :      1.79s CPU      1.87s WALL (     151 calls)
 
     Environ routines
 
     PWSCF        :  50m30.42s CPU  51m 3.63s WALL

 
   This run was terminated on:  20:48:52  27Dec2024            

=------------------------------------------------------------------------------=
   JOB DONE.
=------------------------------------------------------------------------------=
