
     Program PWSCF v.7.4 starts on 22Jan2025 at 21:44:13 

     This program is part of the open-source Quantum ESPRESSO suite
     for quantum simulation of materials; please cite
         "P. Giannozzi et al., J. Phys.:Condens. Matter 21 395502 (2009);
         "P. Giannozzi et al., J. Phys.:Condens. Matter 29 465901 (2017);
         "P. Giannozzi et al., J. Chem. Phys. 152 154105 (2020);
          URL http://www.quantum-espresso.org", 
     in publications or presentations arising from this work. More details at
     http://www.quantum-espresso.org/quote

     Parallel version (MPI & OpenMP), running on     384 processor cores
     Number of MPI processes:               384
     Threads/MPI process:                     1

     MPI processes distributed on     3 nodes
     235952 MiB available memory on the printing compute node when the environment starts

     Reading input from espresso.pwi
Warning: card &CELL ignored
Warning: card    PRESS_CONV_THR   = 0.1 ignored
Warning: card    CELL_DOFREE      = 'ALL' ignored
Warning: card / ignored
Warning: card &FCP ignored
Warning: card / ignored
Warning: card &RISM ignored
Warning: card / ignored

     Current dimensions of program PWSCF are:
     Max number of different atomic species (ntypx) = 10
     Max number of k-points (npk) =  40000
     Max angular momentum in pseudopotentials (lmaxx) =  4

     IMPORTANT: XC functional enforced from input :
     Exchange-correlation= PBE
                           (   1   4   3   4   0   0   0)
     Any further DFT definition will be discarded
     Please, verify this is what you really want


     Reading input from environ.in:
     * using ionic solvent mode
     * setting boundary derivatives method to SSCS default
     * setting electrolyte-boundary derivatives method to SSCS default

Environ Warning (1001): card EOF ignored

     

     K-points division:     npool     =       2
     R & G space division:  proc/nbgrp/npool/nimage =     192
     Subspace diagonalization in iterative solution of the eigenvalue problem:
     a serial algorithm will be used


     Parallelization info
     --------------------
     sticks:   dense  smooth     PW     G-vecs:    dense   smooth      PW
     Min          96      38     10                56184    14194    1882
     Max          97      39     11                56261    14243    1918
     Sum       18577    7447   1945             10795351  2731157  365513

     Using Slab Decomposition



     bravais-lattice index     =            4
     lattice parameter (alat)  =      18.3607  a.u.
     unit-cell volume          =   28251.3786 (a.u.)^3
     number of atoms/cell      =           48
     number of atomic types    =            1
     number of electrons       =       144.00
     number of Kohn-Sham states=          108
     kinetic-energy cutoff     =      80.0000  Ry
     charge density cutoff     =     800.0000  Ry
     scf convergence threshold =      1.0E-12
     mixing beta               =       0.2000
     number of iterations used =            8  local-TF  mixing
     Exchange-correlation= PBE
                           (   1   4   3   4   0   0   0)

     ================================================================================

                                  Environ Setup Summary

     ================================================================================

     Please cite

          O. Andreussi, I. Dabo and N. Marzari, J. Chem. Phys. 136, 064102 (2012)
          F. Nattino, M. Truscott, N. Marzari, and O. Andreussi, J. Chem. Phys. 150, 041722 (2019)

     in publications or presentations arising from this work.

     ================================================================================

     Parameters
     ==========

     compensation onset threshold      =               0.1000E+00
     static permittivity               =                    89.90
     surface tension in input (dyn/cm) =                    37.30
     surface tension in internal units =               0.4792E-04

     Solvent Boundary
     ================

     solvent mode                      =                    ionic
     derivatives method                =                   lowmem
     electrolyte derivatives method    =                   lowmem
     numerical core for derivatives    =                      fft
     switching function adopted        =                     SCCS
     density limit for vacuum region   =               0.5000E-02
     density limit for bulk solvent    =               0.1000E-03
     soft-sphere radius mode           =                    bondi
     soft-sphere softness              =                     0.50
     alpha                             =                     1.32

     Electrostatic Setup
     ===================

     electrostatic problem to solve    =                    modpb
     numerical solver adopted          =                   newton
     type of auxiliary density adopted =                     none
     numerical core for poisson        =                      fft
     adopting a nested solver scheme
     inner solver                      =                       cg
     inner core                        =                      fft
     type of pbc corrections           =                parabolic
     numerical core for corrections    =                      1da

     ================================================================================


     >>>>> Grand-Canonical SCF is activated <<<<<
     Initial Total Charge  =     0.000000 e
     Target Fermi Energy   =    -1.404000 eV
     Thr. of Fermi Energy  =     0.001000 eV
     Wave-shift of Kerker  =     0.400000 bohr^-1
     Wave-shift of Hartree =     1.500000 bohr^-1
     Mixing Rate of Fermi  =     0.050000

     celldm(1)=  18.360747  celldm(2)=   0.000000  celldm(3)=   5.270332
     celldm(4)=   0.000000  celldm(5)=   0.000000  celldm(6)=   0.000000

     crystal axes: (cart. coord. in units of alat)
               a(1) = (   1.000000   0.000000   0.000000 )  
               a(2) = (  -0.500000   0.866025   0.000000 )  
               a(3) = (   0.000000   0.000000   5.270332 )  

     reciprocal axes: (cart. coord. in units 2 pi/alat)
               b(1) = (  1.000000  0.577350 -0.000000 )  
               b(2) = (  0.000000  1.154701  0.000000 )  
               b(3) = (  0.000000 -0.000000  0.189741 )  


     PseudoPot. # 1 for Li read from file:
     /work/e89/e89/ba3g18/Repos/Pseudopotentials/Pslibrary/Li.pbe-sl-kjpaw_psl.1.0.0.UPF
     MD5 check sum: 3f4d2cafebb47c6c3aa8ed472e6f074d
     Pseudo is Projector augmented-wave, Zval =  3.0
     Generated using 'atomic' code by A. Dal Corso  v.7.4
     Shape of augmentation charge: PSQ
     Using radial grid of 1017 points,  4 beta functions with: 
                l(1) =   0
                l(2) =   0
                l(3) =   1
                l(4) =   1
     Q(r) pseudized with 0 coefficients 


     atomic species   valence    mass     pseudopotential
     Li                3.00     6.94000     Li( 1.00)

      4 Sym. Ops., with inversion, found ( 2 have fractional translation)


                                    s                        frac. trans.

      isym =  1     identity                                     

 cryst.   s( 1) = (     1          0          0      )
                  (     0          1          0      )
                  (     0          0          1      )

 cart.    s( 1) = (  1.0000000  0.0000000  0.0000000 )
                  (  0.0000000  1.0000000  0.0000000 )
                  (  0.0000000  0.0000000  1.0000000 )


      isym =  2     180 deg rotation - cart. axis [1,0,0]        

 cryst.   s( 2) = (     1          0          0      )    f =(  0.3333335 )
                  (    -1         -1          0      )       ( -0.3333329 )
                  (     0          0         -1      )       ( -0.0000013 )

 cart.    s( 2) = (  1.0000000  0.0000000  0.0000000 )    f =(  0.5000000 )
                  (  0.0000000 -1.0000000  0.0000000 )       ( -0.2886748 )
                  (  0.0000000  0.0000000 -1.0000000 )       ( -0.0000068 )


      isym =  3     inversion                                    

 cryst.   s( 3) = (    -1          0          0      )    f =(  0.3333335 )
                  (     0         -1          0      )       ( -0.3333329 )
                  (     0          0         -1      )       ( -0.0000013 )

 cart.    s( 3) = ( -1.0000000  0.0000000  0.0000000 )    f =(  0.5000000 )
                  (  0.0000000 -1.0000000  0.0000000 )       ( -0.2886748 )
                  (  0.0000000  0.0000000 -1.0000000 )       ( -0.0000068 )


      isym =  4     inv. 180 deg rotation - cart. axis [1,0,0]   

 cryst.   s( 4) = (    -1          0          0      )
                  (     1          1          0      )
                  (     0          0          1      )

 cart.    s( 4) = ( -1.0000000  0.0000000  0.0000000 )
                  (  0.0000000  1.0000000  0.0000000 )
                  (  0.0000000  0.0000000  1.0000000 )


     point group C_2h (2/m) 
     there are  4 classes
     the character table:

       E     C2    i     s_h  
A_g    1.00  1.00  1.00  1.00
B_g    1.00 -1.00  1.00 -1.00
A_u    1.00  1.00 -1.00 -1.00
B_u    1.00 -1.00 -1.00  1.00

     the symmetry operations in each class and the name of the first element:

     E        1
          identity                                               
     C2       2
          180 deg rotation - cart. axis [1,0,0]                  
     i        3
          inversion                                              
     s_h      4
          inv. 180 deg rotation - cart. axis [1,0,0]             

   Cartesian axes

     site n.     atom                  positions (alat units)
         1        Li     tau(   1) = (  -0.0000000   0.0000321   2.5787981  )
         2        Li     tau(   2) = (   0.2499705   0.1443510   2.1865255  )
         3        Li     tau(   3) = (   0.5000000   0.2886674   2.3828447  )
         4        Li     tau(   4) = (   0.0000000   0.0000805   2.2716084  )
         5        Li     tau(   5) = (   0.2499710   0.1443434   2.4828647  )
         6        Li     tau(   6) = (   0.5000000   0.2887386   2.0801452  )
         7        Li     tau(   7) = (   0.0000000  -0.0000658   3.1901842  )
         8        Li     tau(   8) = (   0.2500302   0.1443305   2.7874693  )
         9        Li     tau(   9) = (   0.5000000   0.2885943   2.9987353  )
        10        Li     tau(  10) = (  -0.0000000   0.0000102   2.8874910  )
        11        Li     tau(  11) = (   0.2500318   0.1443241   3.0838034  )
        12        Li     tau(  12) = (   0.5000000   0.2886427   2.6915407  )
        13        Li     tau(  13) = (   0.2499130   0.4330248   2.5789028  )
        14        Li     tau(  14) = (   0.5000000   0.5773904   2.1866134  )
        15        Li     tau(  15) = (   0.7500017   0.7216928   2.3827947  )
        16        Li     tau(  16) = (   0.2498883   0.4330438   2.2716914  )
        17        Li     tau(  17) = (   0.5000000   0.5773671   2.4828781  )
        18        Li     tau(  18) = (   0.7499085   0.7217165   2.0800935  )
        19        Li     tau(  19) = (   0.2500890   0.4329886   3.1902347  )
        20        Li     tau(  20) = (   0.5000000   0.5773328   2.7874530  )
        21        Li     tau(  21) = (   0.7501127   0.7216583   2.9986348  )
        22        Li     tau(  22) = (   0.2499976   0.4330042   2.8875407  )
        23        Li     tau(  23) = (   0.5000000   0.5773119   3.0837114  )
        24        Li     tau(  24) = (   0.7500860   0.7216760   2.6914290  )
        25        Li     tau(  25) = (   0.5000000  -0.0000358   2.5789644  )
        26        Li     tau(  26) = (   0.7500295   0.1443510   2.1865255  )
        27        Li     tau(  27) = (   1.0000000   0.2886944   2.3827691  )
        28        Li     tau(  28) = (   0.5000000  -0.0000712   2.2717463  )
        29        Li     tau(  29) = (   0.7500290   0.1443434   2.4828647  )
        30        Li     tau(  30) = (   1.0000000   0.2886169   2.0800771  )
        31        Li     tau(  31) = (   0.5000000   0.0000499   3.1902486  )
        32        Li     tau(  32) = (   0.7499698   0.1443305   2.7874693  )
        33        Li     tau(  33) = (   1.0000000   0.2887423   2.9985976  )
        34        Li     tau(  34) = (   0.5000000  -0.0000135   2.8875662  )
        35        Li     tau(  35) = (   0.7499682   0.1443241   3.0838035  )
        36        Li     tau(  36) = (   1.0000000   0.2887091   2.6913763  )
        37        Li     tau(  37) = (   0.7500870   0.4330248   2.5789028  )
        38        Li     tau(  38) = (   1.0000000   0.5773404   2.1863596  )
        39        Li     tau(  39) = (   1.2499983   0.7216928   2.3827947  )
        40        Li     tau(  40) = (   0.7501117   0.4330438   2.2716914  )
        41        Li     tau(  41) = (   1.0000000   0.5773558   2.4828149  )
        42        Li     tau(  42) = (   1.2500915   0.7217165   2.0800935  )
        43        Li     tau(  43) = (   0.7499110   0.4329886   3.1902347  )
        44        Li     tau(  44) = (   1.0000000   0.5773491   2.7875108  )
        45        Li     tau(  45) = (   1.2498873   0.7216583   2.9986348  )
        46        Li     tau(  46) = (   0.7500024   0.4330042   2.8875407  )
        47        Li     tau(  47) = (   1.0000000   0.5773602   3.0839561  )
        48        Li     tau(  48) = (   1.2499140   0.7216760   2.6914290  )

   Crystallographic axes

     site n.     atom                  positions (cryst. coord.)
         1        Li     tau(   1) = (  0.0000185  0.0000371  0.4893047  )
         2        Li     tau(   2) = (  0.3333116  0.1666822  0.4148743  )
         3        Li     tau(   3) = (  0.6666622  0.3333244  0.4521242  )
         4        Li     tau(   4) = (  0.0000465  0.0000930  0.4310181  )
         5        Li     tau(   5) = (  0.3333077  0.1666734  0.4711021  )
         6        Li     tau(   6) = (  0.6667033  0.3334066  0.3946896  )
         7        Li     tau(   7) = ( -0.0000380 -0.0000759  0.6053099  )
         8        Li     tau(   8) = (  0.3333595  0.1666585  0.5288982  )
         9        Li     tau(   9) = (  0.6666200  0.3332399  0.5689841  )
        10        Li     tau(  10) = (  0.0000059  0.0000118  0.5478765  )
        11        Li     tau(  11) = (  0.3333573  0.1666511  0.5851251  )
        12        Li     tau(  12) = (  0.6666479  0.3332958  0.5106966  )
        13        Li     tau(  13) = (  0.4999200  0.5000140  0.4893245  )
        14        Li     tau(  14) = (  0.8333565  0.6667130  0.4148910  )
        15        Li     tau(  15) = (  1.1666712  0.8333390  0.4521147  )
        16        Li     tau(  16) = (  0.4999063  0.5000359  0.4310338  )
        17        Li     tau(  17) = (  0.8333431  0.6666861  0.4711047  )
        18        Li     tau(  18) = (  1.1665917  0.8333664  0.3946798  )
        19        Li     tau(  19) = (  0.5000751  0.4999722  0.6053195  )
        20        Li     tau(  20) = (  0.8333232  0.6666465  0.5288951  )
        21        Li     tau(  21) = (  1.1667623  0.8332993  0.5689651  )
        22        Li     tau(  22) = (  0.4999927  0.4999902  0.5478859  )
        23        Li     tau(  23) = (  0.8333112  0.6666223  0.5851076  )
        24        Li     tau(  24) = (  1.1667458  0.8333196  0.5106754  )
        25        Li     tau(  25) = (  0.4999793 -0.0000414  0.4893362  )
        26        Li     tau(  26) = (  0.8333706  0.1666822  0.4148743  )
        27        Li     tau(  27) = (  1.1666778  0.3333556  0.4521099  )
        28        Li     tau(  28) = (  0.4999589 -0.0000822  0.4310442  )
        29        Li     tau(  29) = (  0.8333657  0.1666734  0.4711021  )
        30        Li     tau(  30) = (  1.1666331  0.3332661  0.3946767  )
        31        Li     tau(  31) = (  0.5000288  0.0000576  0.6053221  )
        32        Li     tau(  32) = (  0.8332990  0.1666585  0.5288982  )
        33        Li     tau(  33) = (  1.1667054  0.3334109  0.5689580  )
        34        Li     tau(  34) = (  0.4999922 -0.0000156  0.5478908  )
        35        Li     tau(  35) = (  0.8332938  0.1666511  0.5851251  )
        36        Li     tau(  36) = (  1.1666863  0.3333726  0.5106654  )
        37        Li     tau(  37) = (  1.0000940  0.5000140  0.4893245  )
        38        Li     tau(  38) = (  1.3333276  0.6666553  0.4148429  )
        39        Li     tau(  39) = (  1.6666678  0.8333390  0.4521147  )
        40        Li     tau(  40) = (  1.0001296  0.5000359  0.4310338  )
        41        Li     tau(  41) = (  1.3333365  0.6666731  0.4710927  )
        42        Li     tau(  42) = (  1.6667747  0.8333664  0.3946798  )
        43        Li     tau(  43) = (  0.9998971  0.4999722  0.6053195  )
        44        Li     tau(  44) = (  1.3333326  0.6666653  0.5289061  )
        45        Li     tau(  45) = (  1.6665369  0.8332993  0.5689651  )
        46        Li     tau(  46) = (  0.9999975  0.4999902  0.5478859  )
        47        Li     tau(  47) = (  1.3333391  0.6666782  0.5851540  )
        48        Li     tau(  48) = (  1.6665738  0.8333196  0.5106754  )

     number of k points=    16  Marzari-Vanderbilt smearing, width (Ry)=  0.0100
                       cart. coord. in units 2pi/alat
        k(    1) = (   0.0000000   0.0000000   0.0000000), wk =   0.0408163
        k(    2) = (   0.0000000   0.1649572   0.0000000), wk =   0.0816327
        k(    3) = (   0.0000000   0.3299144   0.0000000), wk =   0.0816327
        k(    4) = (   0.0000000   0.4948717   0.0000000), wk =   0.0816327
        k(    5) = (   0.1428571   0.2474358   0.0000000), wk =   0.1632653
        k(    6) = (   0.1428571   0.4123930   0.0000000), wk =   0.1632653
        k(    7) = (   0.1428571   0.5773503   0.0000000), wk =   0.0816327
        k(    8) = (   0.2857143   0.4948717   0.0000000), wk =   0.1632653
        k(    9) = (  -0.1428571   0.0824786   0.0000000), wk =   0.1632653
        k(   10) = (  -0.2857143   0.1649572   0.0000000), wk =   0.1632653
        k(   11) = (  -0.4285714   0.2474358   0.0000000), wk =   0.1632653
        k(   12) = (   0.2857143  -0.0000000   0.0000000), wk =   0.0816327
        k(   13) = (  -0.2857143   0.3299144   0.0000000), wk =   0.1632653
        k(   14) = (   0.4285714   0.0824786   0.0000000), wk =   0.1632653
        k(   15) = (  -0.4285714   0.4123930   0.0000000), wk =   0.1632653
        k(   16) = (   0.5714286  -0.0000000   0.0000000), wk =   0.0816327

                       cryst. coord.
        k(    1) = (   0.0000000   0.0000000   0.0000000), wk =   0.0408163
        k(    2) = (   0.0000000   0.1428571   0.0000000), wk =   0.0816327
        k(    3) = (   0.0000000   0.2857143   0.0000000), wk =   0.0816327
        k(    4) = (   0.0000000   0.4285714   0.0000000), wk =   0.0816327
        k(    5) = (   0.1428571   0.1428571   0.0000000), wk =   0.1632653
        k(    6) = (   0.1428571   0.2857143   0.0000000), wk =   0.1632653
        k(    7) = (   0.1428571   0.4285714   0.0000000), wk =   0.0816327
        k(    8) = (   0.2857143   0.2857143   0.0000000), wk =   0.1632653
        k(    9) = (  -0.1428571   0.1428571   0.0000000), wk =   0.1632653
        k(   10) = (  -0.2857143   0.2857143   0.0000000), wk =   0.1632653
        k(   11) = (  -0.4285714   0.4285714   0.0000000), wk =   0.1632653
        k(   12) = (   0.2857143  -0.1428571   0.0000000), wk =   0.0816327
        k(   13) = (  -0.2857143   0.4285714   0.0000000), wk =   0.1632653
        k(   14) = (   0.4285714  -0.1428571   0.0000000), wk =   0.1632653
        k(   15) = (  -0.4285714   0.5714286   0.0000000), wk =   0.1632653
        k(   16) = (   0.5714286  -0.2857143   0.0000000), wk =   0.0816327

     Dense  grid: 10795351 G-vectors     FFT dimensions: ( 180, 180, 900)

     Smooth grid:  2731157 G-vectors     FFT dimensions: ( 108, 108, 576)

     Dynamical RAM for                 wfc:       2.93 MB

     Dynamical RAM for     wfc (w. buffer):      26.36 MB

     Dynamical RAM for           str. fact:       0.86 MB

     Dynamical RAM for           local pot:       0.00 MB

     Dynamical RAM for          nlocal pot:      10.41 MB

     Dynamical RAM for                qrad:       0.65 MB

     Dynamical RAM for          rho,v,vnew:       6.28 MB

     Dynamical RAM for               rhoin:       2.09 MB

     Dynamical RAM for            rho*nmix:      13.73 MB

     Dynamical RAM for           G-vectors:       3.33 MB

     Dynamical RAM for          h,s,v(r/c):       8.54 MB

     Dynamical RAM for          <psi|beta>:       0.63 MB

     Dynamical RAM for                 psi:      11.71 MB

     Dynamical RAM for                hpsi:      11.71 MB

     Dynamical RAM for                spsi:      11.71 MB

     Dynamical RAM for      wfcinit/wfcrot:       6.12 MB

     Dynamical RAM for           addusdens:      39.47 MB

     Dynamical RAM for          addusforce:      79.84 MB

     Estimated static dynamical RAM per process >      57.87 MB

     Estimated max dynamical RAM per process >     164.72 MB

     Estimated total dynamical RAM >      54.21 GB

     Initial potential from superposition of free atoms

     starting charge     143.7788, renormalised to     144.0000

     negative rho (up, down):  4.980E-03 0.000E+00
     Starting wfcs are random
     Checking if some PAW data can be deallocated... 

     total cpu time spent up to now is       36.6 secs

     Self-consistent Calculation

     iteration #  1     ecut=    80.00 Ry     beta= 0.20
     Davidson diagonalization with overlap

---- Real-time Memory Report at c_bands before calling an iterative solver
          1123 MiB given to the printing process from OS
             0 MiB allocation reported by mallinfo(arena+hblkhd)
        216002 MiB available memory on the node where the printing process lives
------------------
     c_bands:  1 eigenvalues not converged
     c_bands:  1 eigenvalues not converged
     c_bands:  1 eigenvalues not converged
     ethr =  1.00E-12,  avg # of iterations =150.6

     negative rho (up, down):  3.748E-03 0.000E+00

     total cpu time spent up to now is      279.2 secs

     total energy              =    -721.95692516 Ry
     estimated scf accuracy    <       0.18557244 Ry

     total charge of GC-SCF    =      -0.00396570 e
     the Fermi energy          =      -4.47742474 eV
                        (error :       3.07342474 eV)
     electrostatic embedding   =       0.00000000 Ry
     cavitation energy         =       0.03643414 Ry
     electrolyte free energy   =       0.01215974 Ry
     correction to one-el term =      -0.00000000 Ry

     iteration #  2     ecut=    80.00 Ry     beta= 0.20
     Davidson diagonalization with overlap

---- Real-time Memory Report at c_bands before calling an iterative solver
          1123 MiB given to the printing process from OS
             0 MiB allocation reported by mallinfo(arena+hblkhd)
        208635 MiB available memory on the node where the printing process lives
------------------
     ethr =  1.00E-05,  avg # of iterations = 11.7

     negative rho (up, down):  2.885E-03 0.000E+00

     add environment contribution to local potential

     total cpu time spent up to now is      316.0 secs

     total energy              =    -721.92230700 Ry
     estimated scf accuracy    <       0.06775551 Ry

     total charge of GC-SCF    =      -0.04577661 e
     the Fermi energy          =      -3.30672954 eV
                        (error :       1.90272954 eV)
     electrostatic embedding   =      -0.00003175 Ry
     cavitation energy         =       0.03643414 Ry
     electrolyte free energy   =       0.01215974 Ry
     correction to one-el term =      -0.00000000 Ry

     iteration #  3     ecut=    80.00 Ry     beta= 0.20
     Davidson diagonalization with overlap

---- Real-time Memory Report at c_bands before calling an iterative solver
          1123 MiB given to the printing process from OS
             0 MiB allocation reported by mallinfo(arena+hblkhd)
        208051 MiB available memory on the node where the printing process lives
------------------
     ethr =  1.00E-05,  avg # of iterations = 31.8

     negative rho (up, down):  2.409E-03 0.000E+00

     add environment contribution to local potential

     total cpu time spent up to now is      369.7 secs

     total energy              =    -721.79730170 Ry
     estimated scf accuracy    <       0.05226133 Ry

     total charge of GC-SCF    =      -0.20547999 e
     the Fermi energy          =      -2.88572801 eV
                        (error :       1.48172801 eV)
     electrostatic embedding   =      -0.03941772 Ry
     cavitation energy         =       0.03643414 Ry
     electrolyte free energy   =      -0.00351542 Ry
     correction to one-el term =       2.06075234 Ry

     iteration #  4     ecut=    80.00 Ry     beta= 0.20
     Davidson diagonalization with overlap

---- Real-time Memory Report at c_bands before calling an iterative solver
          1123 MiB given to the printing process from OS
             0 MiB allocation reported by mallinfo(arena+hblkhd)
        207937 MiB available memory on the node where the printing process lives
------------------
     ethr =  1.00E-05,  avg # of iterations = 16.1

     negative rho (up, down):  1.963E-03 0.000E+00

     add environment contribution to local potential

     total cpu time spent up to now is      411.9 secs

     total energy              =    -721.83854245 Ry
     estimated scf accuracy    <       0.03306560 Ry

     total charge of GC-SCF    =      -0.37789634 e
     the Fermi energy          =      -3.33899821 eV
                        (error :       1.93499821 eV)
     electrostatic embedding   =      -0.05243854 Ry
     cavitation energy         =       0.03643414 Ry
     electrolyte free energy   =      -0.00516914 Ry
     correction to one-el term =       9.70757489 Ry

     iteration #  5     ecut=    80.00 Ry     beta= 0.20
     Davidson diagonalization with overlap

---- Real-time Memory Report at c_bands before calling an iterative solver
          1123 MiB given to the printing process from OS
             0 MiB allocation reported by mallinfo(arena+hblkhd)
        207872 MiB available memory on the node where the printing process lives
------------------
     ethr =  1.00E-05,  avg # of iterations = 21.1

     negative rho (up, down):  1.727E-03 0.000E+00

     add environment contribution to local potential

     total cpu time spent up to now is      459.6 secs

     total energy              =    -721.50985053 Ry
     estimated scf accuracy    <       0.00916587 Ry

     total charge of GC-SCF    =      -1.01526545 e
     the Fermi energy          =      -2.86676744 eV
                        (error :       1.46276744 eV)
     electrostatic embedding   =      -0.07109310 Ry
     cavitation energy         =       0.03643414 Ry
     electrolyte free energy   =      -0.00286023 Ry
     correction to one-el term =      16.72051712 Ry

     iteration #  6     ecut=    80.00 Ry     beta= 0.20
     Davidson diagonalization with overlap

---- Real-time Memory Report at c_bands before calling an iterative solver
          1123 MiB given to the printing process from OS
             0 MiB allocation reported by mallinfo(arena+hblkhd)
        207791 MiB available memory on the node where the printing process lives
------------------
     ethr =  6.32E-06,  avg # of iterations = 24.6

     negative rho (up, down):  1.558E-03 0.000E+00

     add environment contribution to local potential

     total cpu time spent up to now is      507.9 secs

     total energy              =    -721.83739507 Ry
     estimated scf accuracy    <       0.01611158 Ry

     total charge of GC-SCF    =      -1.39628550 e
     the Fermi energy          =      -2.18236292 eV
                        (error :       0.77836292 eV)
     electrostatic embedding   =      -0.23143399 Ry
     cavitation energy         =       0.03643414 Ry
     electrolyte free energy   =      -0.00176993 Ry
     correction to one-el term =      44.93621877 Ry

     iteration #  7     ecut=    80.00 Ry     beta= 0.20
     Davidson diagonalization with overlap

---- Real-time Memory Report at c_bands before calling an iterative solver
          1123 MiB given to the printing process from OS
             0 MiB allocation reported by mallinfo(arena+hblkhd)
        207661 MiB available memory on the node where the printing process lives
------------------
     ethr =  6.32E-06,  avg # of iterations = 13.0

     negative rho (up, down):  1.454E-03 0.000E+00

     add environment contribution to local potential

     total cpu time spent up to now is      545.0 secs

     total energy              =    -721.70133867 Ry
     estimated scf accuracy    <       0.02524475 Ry

     total charge of GC-SCF    =      -2.08254337 e
     the Fermi energy          =      -1.97185289 eV
                        (error :       0.56785289 eV)
     electrostatic embedding   =      -0.38578694 Ry
     cavitation energy         =       0.03643414 Ry
     electrolyte free energy   =      -0.00385857 Ry
     correction to one-el term =      59.97103735 Ry

     iteration #  8     ecut=    80.00 Ry     beta= 0.20
     Davidson diagonalization with overlap

---- Real-time Memory Report at c_bands before calling an iterative solver
          1123 MiB given to the printing process from OS
             0 MiB allocation reported by mallinfo(arena+hblkhd)
        207575 MiB available memory on the node where the printing process lives
------------------
     ethr =  6.32E-06,  avg # of iterations = 10.8

     negative rho (up, down):  1.348E-03 0.000E+00

     add environment contribution to local potential

     total cpu time spent up to now is      583.4 secs

     total energy              =    -721.90739630 Ry
     estimated scf accuracy    <       0.00316584 Ry

     total charge of GC-SCF    =      -2.57461327 e
     the Fermi energy          =      -2.34491143 eV
                        (error :       0.94091143 eV)
     electrostatic embedding   =      -0.74813158 Ry
     cavitation energy         =       0.03643414 Ry
     electrolyte free energy   =      -0.00461379 Ry
     correction to one-el term =      83.04078772 Ry

     iteration #  9     ecut=    80.00 Ry     beta= 0.20
     Davidson diagonalization with overlap

---- Real-time Memory Report at c_bands before calling an iterative solver
          1123 MiB given to the printing process from OS
             0 MiB allocation reported by mallinfo(arena+hblkhd)
        207544 MiB available memory on the node where the printing process lives
------------------
     ethr =  2.16E-06,  avg # of iterations = 12.6

     negative rho (up, down):  1.106E-03 0.000E+00

     add environment contribution to local potential

     total cpu time spent up to now is      621.1 secs

     total energy              =    -721.90545121 Ry
     estimated scf accuracy    <       0.00385792 Ry

     total charge of GC-SCF    =      -3.32138024 e
     the Fermi energy          =      -2.42552952 eV
                        (error :       1.02152952 eV)
     electrostatic embedding   =      -1.07611289 Ry
     cavitation energy         =       0.03643414 Ry
     electrolyte free energy   =      -0.00731164 Ry
     correction to one-el term =      98.94153420 Ry

     iteration # 10     ecut=    80.00 Ry     beta= 0.20
     Davidson diagonalization with overlap

---- Real-time Memory Report at c_bands before calling an iterative solver
          1123 MiB given to the printing process from OS
             0 MiB allocation reported by mallinfo(arena+hblkhd)
        207521 MiB available memory on the node where the printing process lives
------------------
     ethr =  2.16E-06,  avg # of iterations =  9.4

     negative rho (up, down):  8.902E-04 0.000E+00

     add environment contribution to local potential

     total cpu time spent up to now is      658.6 secs

     total energy              =    -721.91907956 Ry
     estimated scf accuracy    <       0.00406351 Ry

     total charge of GC-SCF    =      -3.69977416 e
     the Fermi energy          =      -2.33984444 eV
                        (error :       0.93584444 eV)
     electrostatic embedding   =      -1.66502420 Ry
     cavitation energy         =       0.03643414 Ry
     electrolyte free energy   =      -0.01311762 Ry
     correction to one-el term =     124.29381668 Ry

     iteration # 11     ecut=    80.00 Ry     beta= 0.20
     Davidson diagonalization with overlap

---- Real-time Memory Report at c_bands before calling an iterative solver
          1123 MiB given to the printing process from OS
             0 MiB allocation reported by mallinfo(arena+hblkhd)
        207407 MiB available memory on the node where the printing process lives
------------------
     ethr =  2.16E-06,  avg # of iterations = 20.1

     negative rho (up, down):  8.535E-04 0.000E+00

     add environment contribution to local potential

     total cpu time spent up to now is      707.9 secs

     total energy              =    -721.99494497 Ry
     estimated scf accuracy    <       0.01319235 Ry

     total charge of GC-SCF    =      -3.89861216 e
     the Fermi energy          =      -1.80758214 eV
                        (error :       0.40358214 eV)
     electrostatic embedding   =      -1.98373856 Ry
     cavitation energy         =       0.03643414 Ry
     electrolyte free energy   =      -0.01925506 Ry
     correction to one-el term =     138.15046056 Ry

     iteration # 12     ecut=    80.00 Ry     beta= 0.20
     Davidson diagonalization with overlap

---- Real-time Memory Report at c_bands before calling an iterative solver
          1123 MiB given to the printing process from OS
             0 MiB allocation reported by mallinfo(arena+hblkhd)
        207326 MiB available memory on the node where the printing process lives
------------------
     ethr =  2.16E-06,  avg # of iterations =  9.4

     negative rho (up, down):  7.814E-04 0.000E+00

     add environment contribution to local potential

     total cpu time spent up to now is      746.7 secs

     total energy              =    -722.06441154 Ry
     estimated scf accuracy    <       0.00094147 Ry

     total charge of GC-SCF    =      -3.98227547 e
     the Fermi energy          =      -2.05264383 eV
                        (error :       0.64864383 eV)
     electrostatic embedding   =      -2.20499551 Ry
     cavitation energy         =       0.03643414 Ry
     electrolyte free energy   =      -0.02046445 Ry
     correction to one-el term =     145.33236479 Ry

     iteration # 13     ecut=    80.00 Ry     beta= 0.20
     Davidson diagonalization with overlap

---- Real-time Memory Report at c_bands before calling an iterative solver
          1123 MiB given to the printing process from OS
             0 MiB allocation reported by mallinfo(arena+hblkhd)
        207332 MiB available memory on the node where the printing process lives
------------------
     ethr =  6.36E-07,  avg # of iterations = 11.8

     negative rho (up, down):  7.501E-04 0.000E+00

     add environment contribution to local potential

     total cpu time spent up to now is      788.7 secs

     total energy              =    -722.07371636 Ry
     estimated scf accuracy    <       0.00556821 Ry

     total charge of GC-SCF    =      -4.00763949 e
     the Fermi energy          =      -1.88901564 eV
                        (error :       0.48501564 eV)
     electrostatic embedding   =      -2.28914508 Ry
     cavitation energy         =       0.03643414 Ry
     electrolyte free energy   =      -0.02257911 Ry
     correction to one-el term =     148.62198553 Ry

     iteration # 14     ecut=    80.00 Ry     beta= 0.20
     Davidson diagonalization with overlap

---- Real-time Memory Report at c_bands before calling an iterative solver
          1123 MiB given to the printing process from OS
             0 MiB allocation reported by mallinfo(arena+hblkhd)
        207306 MiB available memory on the node where the printing process lives
------------------
     ethr =  6.36E-07,  avg # of iterations =  7.6

     negative rho (up, down):  8.248E-04 0.000E+00

     add environment contribution to local potential

     total cpu time spent up to now is      822.0 secs

     total energy              =    -722.17257705 Ry
     estimated scf accuracy    <       0.00342682 Ry

     total charge of GC-SCF    =      -3.55619616 e
     the Fermi energy          =      -1.89096028 eV
                        (error :       0.48696028 eV)
     electrostatic embedding   =      -2.34257703 Ry
     cavitation energy         =       0.03643414 Ry
     electrolyte free energy   =      -0.02324854 Ry
     correction to one-el term =     151.01200032 Ry

     iteration # 15     ecut=    80.00 Ry     beta= 0.20
     Davidson diagonalization with overlap

---- Real-time Memory Report at c_bands before calling an iterative solver
          1123 MiB given to the printing process from OS
             0 MiB allocation reported by mallinfo(arena+hblkhd)
        207321 MiB available memory on the node where the printing process lives
------------------
     ethr =  6.36E-07,  avg # of iterations =  9.9

     negative rho (up, down):  6.300E-04 0.000E+00

     add environment contribution to local potential

     total cpu time spent up to now is      864.0 secs

     total energy              =    -722.10563835 Ry
     estimated scf accuracy    <       0.00261508 Ry

     total charge of GC-SCF    =      -5.52418933 e
     the Fermi energy          =      -1.96311687 eV
                        (error :       0.55911687 eV)
     electrostatic embedding   =      -1.92764320 Ry
     cavitation energy         =       0.03643414 Ry
     electrolyte free energy   =      -0.01748757 Ry
     correction to one-el term =     137.68093329 Ry

     iteration # 16     ecut=    80.00 Ry     beta= 0.20
     Davidson diagonalization with overlap

---- Real-time Memory Report at c_bands before calling an iterative solver
          1123 MiB given to the printing process from OS
             0 MiB allocation reported by mallinfo(arena+hblkhd)
        207317 MiB available memory on the node where the printing process lives
------------------
     ethr =  6.36E-07,  avg # of iterations = 19.6

     negative rho (up, down):  6.731E-04 0.000E+00

     add environment contribution to local potential

     total cpu time spent up to now is      916.2 secs

     total energy              =    -722.19070901 Ry
     estimated scf accuracy    <       0.00983799 Ry

     total charge of GC-SCF    =      -5.54721754 e
     the Fermi energy          =      -2.09911252 eV
                        (error :       0.69511252 eV)
     electrostatic embedding   =      -4.11626198 Ry
     cavitation energy         =       0.03643414 Ry
     electrolyte free energy   =      -0.05251117 Ry
     correction to one-el term =     196.26246799 Ry

     iteration # 17     ecut=    80.00 Ry     beta= 0.20
     Davidson diagonalization with overlap

---- Real-time Memory Report at c_bands before calling an iterative solver
          1123 MiB given to the printing process from OS
             0 MiB allocation reported by mallinfo(arena+hblkhd)
        207325 MiB available memory on the node where the printing process lives
------------------
     ethr =  6.36E-07,  avg # of iterations =  6.1

     negative rho (up, down):  6.074E-04 0.000E+00

     add environment contribution to local potential

     total cpu time spent up to now is      950.8 secs

     total energy              =    -722.06468570 Ry
     estimated scf accuracy    <       0.00952270 Ry

     total charge of GC-SCF    =      -6.28876377 e
     the Fermi energy          =      -2.10592356 eV
                        (error :       0.70192356 eV)
     electrostatic embedding   =      -4.14079001 Ry
     cavitation energy         =       0.03643414 Ry
     electrolyte free energy   =      -0.05300851 Ry
     correction to one-el term =     196.51111797 Ry

     iteration # 18     ecut=    80.00 Ry     beta= 0.20
     Davidson diagonalization with overlap

---- Real-time Memory Report at c_bands before calling an iterative solver
          1123 MiB given to the printing process from OS
             0 MiB allocation reported by mallinfo(arena+hblkhd)
        207313 MiB available memory on the node where the printing process lives
------------------
     ethr =  6.36E-07,  avg # of iterations = 20.1

     negative rho (up, down):  5.943E-04 0.000E+00

     add environment contribution to local potential

     total cpu time spent up to now is     1003.3 secs

     total energy              =    -722.16073212 Ry
     estimated scf accuracy    <       0.00036334 Ry

     total charge of GC-SCF    =      -6.31197123 e
     the Fermi energy          =      -1.74493158 eV
                        (error :       0.34093158 eV)
     electrostatic embedding   =      -5.18099569 Ry
     cavitation energy         =       0.03643414 Ry
     electrolyte free energy   =      -0.07787264 Ry
     correction to one-el term =     220.83634899 Ry

     iteration # 19     ecut=    80.00 Ry     beta= 0.20
     Davidson diagonalization with overlap

---- Real-time Memory Report at c_bands before calling an iterative solver
          1123 MiB given to the printing process from OS
             0 MiB allocation reported by mallinfo(arena+hblkhd)
        207298 MiB available memory on the node where the printing process lives
------------------
     ethr =  2.42E-07,  avg # of iterations =  9.2

     negative rho (up, down):  5.537E-04 0.000E+00

     add environment contribution to local potential

     total cpu time spent up to now is     1045.9 secs

     total energy              =    -722.13317187 Ry
     estimated scf accuracy    <       0.00049102 Ry

     total charge of GC-SCF    =      -6.71566117 e
     the Fermi energy          =      -1.71350673 eV
                        (error :       0.30950673 eV)
     electrostatic embedding   =      -5.18239511 Ry
     cavitation energy         =       0.03643414 Ry
     electrolyte free energy   =      -0.07863700 Ry
     correction to one-el term =     220.20289315 Ry

     iteration # 20     ecut=    80.00 Ry     beta= 0.20
     Davidson diagonalization with overlap

---- Real-time Memory Report at c_bands before calling an iterative solver
          1123 MiB given to the printing process from OS
             0 MiB allocation reported by mallinfo(arena+hblkhd)
        207299 MiB available memory on the node where the printing process lives
------------------
     ethr =  2.42E-07,  avg # of iterations =  9.1

     negative rho (up, down):  5.073E-04 0.000E+00

     add environment contribution to local potential

     total cpu time spent up to now is     1088.7 secs

     total energy              =    -722.15920527 Ry
     estimated scf accuracy    <       0.00022942 Ry

     total charge of GC-SCF    =      -6.93433134 e
     the Fermi energy          =      -1.68737291 eV
                        (error :       0.28337291 eV)
     electrostatic embedding   =      -5.77966627 Ry
     cavitation energy         =       0.03643414 Ry
     electrolyte free energy   =      -0.09405830 Ry
     correction to one-el term =     231.73719839 Ry

     iteration # 21     ecut=    80.00 Ry     beta= 0.20
     Davidson diagonalization with overlap

---- Real-time Memory Report at c_bands before calling an iterative solver
          1123 MiB given to the printing process from OS
             0 MiB allocation reported by mallinfo(arena+hblkhd)
        207332 MiB available memory on the node where the printing process lives
------------------
     ethr =  1.52E-07,  avg # of iterations = 16.6

     negative rho (up, down):  5.104E-04 0.000E+00

     add environment contribution to local potential

     total cpu time spent up to now is     1138.6 secs

     total energy              =    -722.23171349 Ry
     estimated scf accuracy    <       0.00035475 Ry

     total charge of GC-SCF    =      -6.51036265 e
     the Fermi energy          =      -1.64940175 eV
                        (error :       0.24540175 eV)
     electrostatic embedding   =      -6.02081633 Ry
     cavitation energy         =       0.03643414 Ry
     electrolyte free energy   =      -0.10309712 Ry
     correction to one-el term =     234.92156105 Ry

     iteration # 22     ecut=    80.00 Ry     beta= 0.20
     Davidson diagonalization with overlap

---- Real-time Memory Report at c_bands before calling an iterative solver
          1123 MiB given to the printing process from OS
             0 MiB allocation reported by mallinfo(arena+hblkhd)
        207308 MiB available memory on the node where the printing process lives
------------------
     ethr =  1.52E-07,  avg # of iterations =  9.6

     negative rho (up, down):  4.871E-04 0.000E+00

     add environment contribution to local potential

     total cpu time spent up to now is     1182.5 secs

     total energy              =    -722.13708525 Ry
     estimated scf accuracy    <       0.00056530 Ry

     total charge of GC-SCF    =      -7.05199315 e
     the Fermi energy          =      -1.70040129 eV
                        (error :       0.29640129 eV)
     electrostatic embedding   =      -5.38089658 Ry
     cavitation energy         =       0.03643414 Ry
     electrolyte free energy   =      -0.08563790 Ry
     correction to one-el term =     222.75322793 Ry

     iteration # 23     ecut=    80.00 Ry     beta= 0.20
     Davidson diagonalization with overlap

---- Real-time Memory Report at c_bands before calling an iterative solver
          1123 MiB given to the printing process from OS
             0 MiB allocation reported by mallinfo(arena+hblkhd)
        207304 MiB available memory on the node where the printing process lives
------------------
     ethr =  1.52E-07,  avg # of iterations = 10.4

     negative rho (up, down):  4.701E-04 0.000E+00

     add environment contribution to local potential

     total cpu time spent up to now is     1228.3 secs

     total energy              =    -722.16782782 Ry
     estimated scf accuracy    <       0.00019980 Ry

     total charge of GC-SCF    =      -7.75980522 e
     the Fermi energy          =      -1.65298771 eV
                        (error :       0.24898771 eV)
     electrostatic embedding   =      -6.19567286 Ry
     cavitation energy         =       0.03643414 Ry
     electrolyte free energy   =      -0.10819418 Ry
     correction to one-el term =     237.87655377 Ry

     iteration # 24     ecut=    80.00 Ry     beta= 0.20
     Davidson diagonalization with overlap

---- Real-time Memory Report at c_bands before calling an iterative solver
          1123 MiB given to the printing process from OS
             0 MiB allocation reported by mallinfo(arena+hblkhd)
        207294 MiB available memory on the node where the printing process lives
------------------
     ethr =  1.32E-07,  avg # of iterations = 15.0

     negative rho (up, down):  4.495E-04 0.000E+00

     add environment contribution to local potential

     total cpu time spent up to now is     1278.6 secs

     total energy              =    -722.19084305 Ry
     estimated scf accuracy    <       0.00018753 Ry

     total charge of GC-SCF    =      -7.64254290 e
     the Fermi energy          =      -1.52586089 eV
                        (error :       0.12186089 eV)
     electrostatic embedding   =      -7.36491695 Ry
     cavitation energy         =       0.03643414 Ry
     electrolyte free energy   =      -0.14463395 Ry
     correction to one-el term =     258.66102246 Ry

     iteration # 25     ecut=    80.00 Ry     beta= 0.20
     Davidson diagonalization with overlap

---- Real-time Memory Report at c_bands before calling an iterative solver
          1123 MiB given to the printing process from OS
             0 MiB allocation reported by mallinfo(arena+hblkhd)
        207302 MiB available memory on the node where the printing process lives
------------------
     ethr =  1.24E-07,  avg # of iterations = 10.1

     negative rho (up, down):  4.235E-04 0.000E+00

     add environment contribution to local potential

     total cpu time spent up to now is     1325.0 secs

     total energy              =    -722.20285266 Ry
     estimated scf accuracy    <       0.00016244 Ry

     total charge of GC-SCF    =      -8.43864925 e
     the Fermi energy          =      -1.55081084 eV
                        (error :       0.14681084 eV)
     electrostatic embedding   =      -7.11602758 Ry
     cavitation energy         =       0.03643414 Ry
     electrolyte free energy   =      -0.13784990 Ry
     correction to one-el term =     253.86661531 Ry

     iteration # 26     ecut=    80.00 Ry     beta= 0.20
     Davidson diagonalization with overlap

---- Real-time Memory Report at c_bands before calling an iterative solver
          1123 MiB given to the printing process from OS
             0 MiB allocation reported by mallinfo(arena+hblkhd)
        207284 MiB available memory on the node where the printing process lives
------------------
     ethr =  1.07E-07,  avg # of iterations = 17.9

     negative rho (up, down):  4.155E-04 0.000E+00

     add environment contribution to local potential

     total cpu time spent up to now is     1376.9 secs

     total energy              =    -722.19064772 Ry
     estimated scf accuracy    <       0.00011315 Ry

     total charge of GC-SCF    =      -8.28058333 e
     the Fermi energy          =      -1.41963819 eV
                        (error :       0.01563819 eV)
     electrostatic embedding   =      -8.40324377 Ry
     cavitation energy         =       0.03643414 Ry
     electrolyte free energy   =      -0.18779196 Ry
     correction to one-el term =     273.33857769 Ry

     iteration # 27     ecut=    80.00 Ry     beta= 0.20
     Davidson diagonalization with overlap

---- Real-time Memory Report at c_bands before calling an iterative solver
          1123 MiB given to the printing process from OS
             0 MiB allocation reported by mallinfo(arena+hblkhd)
        207336 MiB available memory on the node where the printing process lives
------------------
     ethr =  7.43E-08,  avg # of iterations = 14.1

     negative rho (up, down):  4.019E-04 0.000E+00

     add environment contribution to local potential

     total cpu time spent up to now is     1432.8 secs

     total energy              =    -722.20251308 Ry
     estimated scf accuracy    <       0.00001678 Ry

     total charge of GC-SCF    =      -8.80807899 e
     the Fermi energy          =      -1.48255281 eV
                        (error :       0.07855281 eV)
     electrostatic embedding   =      -8.06230656 Ry
     cavitation energy         =       0.03643414 Ry
     electrolyte free energy   =      -0.17614236 Ry
     correction to one-el term =     266.86290449 Ry

     iteration # 28     ecut=    80.00 Ry     beta= 0.20
     Davidson diagonalization with overlap

---- Real-time Memory Report at c_bands before calling an iterative solver
          1123 MiB given to the printing process from OS
             0 MiB allocation reported by mallinfo(arena+hblkhd)
        207358 MiB available memory on the node where the printing process lives
------------------
     ethr =  1.10E-08,  avg # of iterations = 20.8

     negative rho (up, down):  4.018E-04 0.000E+00

     add environment contribution to local potential

     total cpu time spent up to now is     1494.7 secs

     total energy              =    -722.19495396 Ry
     estimated scf accuracy    <       0.00001728 Ry

     total charge of GC-SCF    =      -8.50130252 e
     the Fermi energy          =      -1.37884979 eV
                        (error :       0.02515021 eV)
     electrostatic embedding   =      -8.94954819 Ry
     cavitation energy         =       0.03643414 Ry
     electrolyte free energy   =      -0.21792300 Ry
     correction to one-el term =     279.66047718 Ry

     iteration # 29     ecut=    80.00 Ry     beta= 0.20
     Davidson diagonalization with overlap

---- Real-time Memory Report at c_bands before calling an iterative solver
          1123 MiB given to the printing process from OS
             0 MiB allocation reported by mallinfo(arena+hblkhd)
        207408 MiB available memory on the node where the printing process lives
------------------
     ethr =  1.10E-08,  avg # of iterations = 17.9

     negative rho (up, down):  3.923E-04 0.000E+00

     add environment contribution to local potential

     total cpu time spent up to now is     1550.4 secs

     total energy              =    -722.19327369 Ry
     estimated scf accuracy    <       0.00000626 Ry

     total charge of GC-SCF    =      -8.80087152 e
     the Fermi energy          =      -1.44482272 eV
                        (error :       0.04082272 eV)
     electrostatic embedding   =      -8.39044972 Ry
     cavitation energy         =       0.03643414 Ry
     electrolyte free energy   =      -0.19188240 Ry
     correction to one-el term =     271.17931574 Ry

     iteration # 30     ecut=    80.00 Ry     beta= 0.20
     Davidson diagonalization with overlap

---- Real-time Memory Report at c_bands before calling an iterative solver
          1123 MiB given to the printing process from OS
             0 MiB allocation reported by mallinfo(arena+hblkhd)
        207406 MiB available memory on the node where the printing process lives
------------------
     ethr =  4.10E-09,  avg # of iterations = 20.1

     negative rho (up, down):  3.938E-04 0.000E+00

     add environment contribution to local potential

     total cpu time spent up to now is     1612.7 secs

     total energy              =    -722.18915073 Ry
     estimated scf accuracy    <       0.00000300 Ry

     total charge of GC-SCF    =      -8.70193193 e
     the Fermi energy          =      -1.39538865 eV
                        (error :       0.00861135 eV)
     electrostatic embedding   =      -8.84078560 Ry
     cavitation energy         =       0.03643414 Ry
     electrolyte free energy   =      -0.21685555 Ry
     correction to one-el term =     276.57573676 Ry

     iteration # 31     ecut=    80.00 Ry     beta= 0.20
     Davidson diagonalization with overlap

---- Real-time Memory Report at c_bands before calling an iterative solver
          1123 MiB given to the printing process from OS
             0 MiB allocation reported by mallinfo(arena+hblkhd)
        207403 MiB available memory on the node where the printing process lives
------------------
     ethr =  1.97E-09,  avg # of iterations = 17.6

     negative rho (up, down):  3.918E-04 0.000E+00

     add environment contribution to local potential

     total cpu time spent up to now is     1667.5 secs

     total energy              =    -722.18871899 Ry
     estimated scf accuracy    <       0.00000145 Ry

     total charge of GC-SCF    =      -8.70115447 e
     the Fermi energy          =      -1.40861171 eV
                        (error :       0.00461171 eV)
     electrostatic embedding   =      -8.69802402 Ry
     cavitation energy         =       0.03643414 Ry
     electrolyte free energy   =      -0.20798220 Ry
     correction to one-el term =     275.09849874 Ry

     iteration # 32     ecut=    80.00 Ry     beta= 0.20
     Davidson diagonalization with overlap

---- Real-time Memory Report at c_bands before calling an iterative solver
          1123 MiB given to the printing process from OS
             0 MiB allocation reported by mallinfo(arena+hblkhd)
        207362 MiB available memory on the node where the printing process lives
------------------
     ethr =  9.47E-10,  avg # of iterations = 13.6

     negative rho (up, down):  3.877E-04 0.000E+00

     add environment contribution to local potential

     total cpu time spent up to now is     1717.8 secs

     total energy              =    -722.18877667 Ry
     estimated scf accuracy    <       0.00000065 Ry

     total charge of GC-SCF    =      -8.72133775 e
     the Fermi energy          =      -1.41191283 eV
                        (error :       0.00791283 eV)
     electrostatic embedding   =      -8.68027013 Ry
     cavitation energy         =       0.03643414 Ry
     electrolyte free energy   =      -0.20784253 Ry
     correction to one-el term =     274.56401984 Ry

     iteration # 33     ecut=    80.00 Ry     beta= 0.20
     Davidson diagonalization with overlap

---- Real-time Memory Report at c_bands before calling an iterative solver
          1123 MiB given to the printing process from OS
             0 MiB allocation reported by mallinfo(arena+hblkhd)
        207316 MiB available memory on the node where the printing process lives
------------------
     ethr =  4.26E-10,  avg # of iterations = 19.9

     negative rho (up, down):  3.867E-04 0.000E+00

     add environment contribution to local potential

     total cpu time spent up to now is     1777.8 secs

     total energy              =    -722.18877113 Ry
     estimated scf accuracy    <       0.00000031 Ry

     total charge of GC-SCF    =      -8.74117936 e
     the Fermi energy          =      -1.40945573 eV
                        (error :       0.00545573 eV)
     electrostatic embedding   =      -8.69672808 Ry
     cavitation energy         =       0.03643414 Ry
     electrolyte free energy   =      -0.20954080 Ry
     correction to one-el term =     274.56816764 Ry

     iteration # 34     ecut=    80.00 Ry     beta= 0.20
     Davidson diagonalization with overlap

---- Real-time Memory Report at c_bands before calling an iterative solver
          1123 MiB given to the printing process from OS
             0 MiB allocation reported by mallinfo(arena+hblkhd)
        207344 MiB available memory on the node where the printing process lives
------------------
     ethr =  2.01E-10,  avg # of iterations = 13.2

     negative rho (up, down):  3.860E-04 0.000E+00

     add environment contribution to local potential

     total cpu time spent up to now is     1830.3 secs

     total energy              =    -722.18873797 Ry
     estimated scf accuracy    <       0.00000016 Ry

     total charge of GC-SCF    =      -8.74741473 e
     the Fermi energy          =      -1.40589013 eV
                        (error :       0.00189013 eV)
     electrostatic embedding   =      -8.72838993 Ry
     cavitation energy         =       0.03643414 Ry
     electrolyte free energy   =      -0.21129858 Ry
     correction to one-el term =     274.97510674 Ry

     iteration # 35     ecut=    80.00 Ry     beta= 0.20
     Davidson diagonalization with overlap

---- Real-time Memory Report at c_bands before calling an iterative solver
          1123 MiB given to the printing process from OS
             0 MiB allocation reported by mallinfo(arena+hblkhd)
        207311 MiB available memory on the node where the printing process lives
------------------
     ethr =  1.05E-10,  avg # of iterations = 10.8

     negative rho (up, down):  3.853E-04 0.000E+00

     add environment contribution to local potential

     total cpu time spent up to now is     1878.6 secs

     total energy              =    -722.18873324 Ry
     estimated scf accuracy    <       0.00000011 Ry

     total charge of GC-SCF    =      -8.75733204 e
     the Fermi energy          =      -1.40479550 eV
                        (error :       0.00079550 eV)
     electrostatic embedding   =      -8.73755771 Ry
     cavitation energy         =       0.03643414 Ry
     electrolyte free energy   =      -0.21185452 Ry
     correction to one-el term =     275.07885193 Ry

     iteration # 36     ecut=    80.00 Ry     beta= 0.20
     Davidson diagonalization with overlap

---- Real-time Memory Report at c_bands before calling an iterative solver
          1123 MiB given to the printing process from OS
             0 MiB allocation reported by mallinfo(arena+hblkhd)
        207256 MiB available memory on the node where the printing process lives
------------------
     ethr =  7.37E-11,  avg # of iterations = 12.6

     negative rho (up, down):  3.853E-04 0.000E+00

     add environment contribution to local potential

     total cpu time spent up to now is     1927.9 secs

     total energy              =    -722.18871057 Ry
     estimated scf accuracy    <       0.00000009 Ry

     total charge of GC-SCF    =      -8.75551391 e
     the Fermi energy          =      -1.40361130 eV
                        (error :       0.00038870 eV)
     electrostatic embedding   =      -8.75165761 Ry
     cavitation energy         =       0.03643414 Ry
     electrolyte free energy   =      -0.21274314 Ry
     correction to one-el term =     275.23446519 Ry

     iteration # 37     ecut=    80.00 Ry     beta= 0.20
     Davidson diagonalization with overlap

---- Real-time Memory Report at c_bands before calling an iterative solver
          1123 MiB given to the printing process from OS
             0 MiB allocation reported by mallinfo(arena+hblkhd)
        207284 MiB available memory on the node where the printing process lives
------------------
     ethr =  6.00E-11,  avg # of iterations =  9.5

     negative rho (up, down):  3.852E-04 0.000E+00

     add environment contribution to local potential

     total cpu time spent up to now is     1976.9 secs

     total energy              =    -722.18871090 Ry
     estimated scf accuracy    <       0.00000002 Ry

     total charge of GC-SCF    =      -8.75376767 e
     the Fermi energy          =      -1.40332974 eV
                        (error :       0.00067026 eV)
     electrostatic embedding   =      -8.75049142 Ry
     cavitation energy         =       0.03643414 Ry
     electrolyte free energy   =      -0.21258651 Ry
     correction to one-el term =     275.25262973 Ry

     iteration # 38     ecut=    80.00 Ry     beta= 0.20
     Davidson diagonalization with overlap

---- Real-time Memory Report at c_bands before calling an iterative solver
          1123 MiB given to the printing process from OS
             0 MiB allocation reported by mallinfo(arena+hblkhd)
        207287 MiB available memory on the node where the printing process lives
------------------
     ethr =  1.31E-11,  avg # of iterations = 11.8

     negative rho (up, down):  3.854E-04 0.000E+00

     add environment contribution to local potential

     total cpu time spent up to now is     2028.3 secs

     total energy              =    -722.18871578 Ry
     estimated scf accuracy    <       0.00000001 Ry

     total charge of GC-SCF    =      -8.74898289 e
     the Fermi energy          =      -1.40370869 eV
                        (error :       0.00029131 eV)
     electrostatic embedding   =      -8.74797562 Ry
     cavitation energy         =       0.03643414 Ry
     electrolyte free energy   =      -0.21242896 Ry
     correction to one-el term =     275.22319873 Ry

     iteration # 39     ecut=    80.00 Ry     beta= 0.20
     Davidson diagonalization with overlap

---- Real-time Memory Report at c_bands before calling an iterative solver
          1123 MiB given to the printing process from OS
             0 MiB allocation reported by mallinfo(arena+hblkhd)
        207283 MiB available memory on the node where the printing process lives
------------------
     ethr =  8.68E-12,  avg # of iterations = 18.2

     negative rho (up, down):  3.853E-04 0.000E+00

     add environment contribution to local potential

     total cpu time spent up to now is     2082.7 secs

     total energy              =    -722.18872329 Ry
     estimated scf accuracy    <          8.5E-09 Ry

     total charge of GC-SCF    =      -8.75033387 e
     the Fermi energy          =      -1.40454652 eV
                        (error :       0.00054652 eV)
     electrostatic embedding   =      -8.74149909 Ry
     cavitation energy         =       0.03643414 Ry
     electrolyte free energy   =      -0.21200071 Ry
     correction to one-el term =     275.15293705 Ry

     iteration # 40     ecut=    80.00 Ry     beta= 0.20
     Davidson diagonalization with overlap

---- Real-time Memory Report at c_bands before calling an iterative solver
          1123 MiB given to the printing process from OS
             0 MiB allocation reported by mallinfo(arena+hblkhd)
        207265 MiB available memory on the node where the printing process lives
------------------
     ethr =  5.54E-12,  avg # of iterations =  8.2

     negative rho (up, down):  3.852E-04 0.000E+00

     add environment contribution to local potential

     total cpu time spent up to now is     2128.9 secs

     total energy              =    -722.18872087 Ry
     estimated scf accuracy    <          2.4E-09 Ry

     total charge of GC-SCF    =      -8.75168947 e
     the Fermi energy          =      -1.40434672 eV
                        (error :       0.00034672 eV)
     electrostatic embedding   =      -8.74379247 Ry
     cavitation energy         =       0.03643414 Ry
     electrolyte free energy   =      -0.21212285 Ry
     correction to one-el term =     275.18335587 Ry

     iteration # 41     ecut=    80.00 Ry     beta= 0.20
     Davidson diagonalization with overlap

---- Real-time Memory Report at c_bands before calling an iterative solver
          1123 MiB given to the printing process from OS
             0 MiB allocation reported by mallinfo(arena+hblkhd)
        207288 MiB available memory on the node where the printing process lives
------------------
     ethr =  1.59E-12,  avg # of iterations = 16.0

     negative rho (up, down):  3.851E-04 0.000E+00

     add environment contribution to local potential

     total cpu time spent up to now is     2181.1 secs

     total energy              =    -722.18871859 Ry
     estimated scf accuracy    <          1.1E-09 Ry

     total charge of GC-SCF    =      -8.75192260 e
     the Fermi energy          =      -1.40412238 eV
                        (error :       0.00012238 eV)
     electrostatic embedding   =      -8.74568544 Ry
     cavitation energy         =       0.03643414 Ry
     electrolyte free energy   =      -0.21224435 Ry
     correction to one-el term =     275.20328831 Ry

     iteration # 42     ecut=    80.00 Ry     beta= 0.20
     Davidson diagonalization with overlap

---- Real-time Memory Report at c_bands before calling an iterative solver
          1123 MiB given to the printing process from OS
             0 MiB allocation reported by mallinfo(arena+hblkhd)
        207269 MiB available memory on the node where the printing process lives
------------------
     ethr =  7.06E-13,  avg # of iterations = 13.0

     negative rho (up, down):  3.850E-04 0.000E+00

     add environment contribution to local potential

     total cpu time spent up to now is     2233.2 secs

     total energy              =    -722.18871842 Ry
     estimated scf accuracy    <          4.5E-10 Ry

     total charge of GC-SCF    =      -8.75201119 e
     the Fermi energy          =      -1.40409802 eV
                        (error :       0.00009802 eV)
     electrostatic embedding   =      -8.74586867 Ry
     cavitation energy         =       0.03643414 Ry
     electrolyte free energy   =      -0.21226474 Ry
     correction to one-el term =     275.20253469 Ry

     iteration # 43     ecut=    80.00 Ry     beta= 0.20
     Davidson diagonalization with overlap

---- Real-time Memory Report at c_bands before calling an iterative solver
          1123 MiB given to the printing process from OS
             0 MiB allocation reported by mallinfo(arena+hblkhd)
        207247 MiB available memory on the node where the printing process lives
------------------
     ethr =  2.93E-13,  avg # of iterations = 17.8

     negative rho (up, down):  3.850E-04 0.000E+00

     add environment contribution to local potential

     total cpu time spent up to now is     2286.9 secs

     total energy              =    -722.18871836 Ry
     estimated scf accuracy    <          2.2E-10 Ry

     total charge of GC-SCF    =      -8.75215847 e
     the Fermi energy          =      -1.40409241 eV
                        (error :       0.00009241 eV)
     electrostatic embedding   =      -8.74578989 Ry
     cavitation energy         =       0.03643414 Ry
     electrolyte free energy   =      -0.21227197 Ry
     correction to one-el term =     275.19883523 Ry

     iteration # 44     ecut=    80.00 Ry     beta= 0.20
     Davidson diagonalization with overlap

---- Real-time Memory Report at c_bands before calling an iterative solver
          1123 MiB given to the printing process from OS
             0 MiB allocation reported by mallinfo(arena+hblkhd)
        207259 MiB available memory on the node where the printing process lives
------------------
     ethr =  1.41E-13,  avg # of iterations = 11.1

     negative rho (up, down):  3.850E-04 0.000E+00

     add environment contribution to local potential

     total cpu time spent up to now is     2335.7 secs

     total energy              =    -722.18871792 Ry
     estimated scf accuracy    <          6.6E-11 Ry

     total charge of GC-SCF    =      -8.75220587 e
     the Fermi energy          =      -1.40404763 eV
                        (error :       0.00004763 eV)
     electrostatic embedding   =      -8.74606017 Ry
     cavitation energy         =       0.03643414 Ry
     electrolyte free energy   =      -0.21228552 Ry
     correction to one-el term =     275.20379629 Ry

     iteration # 45     ecut=    80.00 Ry     beta= 0.20
     Davidson diagonalization with overlap

---- Real-time Memory Report at c_bands before calling an iterative solver
          1123 MiB given to the printing process from OS
             0 MiB allocation reported by mallinfo(arena+hblkhd)
        207251 MiB available memory on the node where the printing process lives
------------------
     ethr =  1.00E-13,  avg # of iterations = 10.1

     negative rho (up, down):  3.849E-04 0.000E+00

     add environment contribution to local potential

     total cpu time spent up to now is     2384.6 secs

     total energy              =    -722.18871764 Ry
     estimated scf accuracy    <          2.1E-11 Ry

     total charge of GC-SCF    =      -8.75234426 e
     the Fermi energy          =      -1.40401939 eV
                        (error :       0.00001939 eV)
     electrostatic embedding   =      -8.74623066 Ry
     cavitation energy         =       0.03643414 Ry
     electrolyte free energy   =      -0.21229023 Ry
     correction to one-el term =     275.20804262 Ry

     iteration # 46     ecut=    80.00 Ry     beta= 0.20
     Davidson diagonalization with overlap

---- Real-time Memory Report at c_bands before calling an iterative solver
          1123 MiB given to the printing process from OS
             0 MiB allocation reported by mallinfo(arena+hblkhd)
        207279 MiB available memory on the node where the printing process lives
------------------
     ethr =  1.00E-13,  avg # of iterations =  8.6

     negative rho (up, down):  3.849E-04 0.000E+00

     add environment contribution to local potential

     total cpu time spent up to now is     2430.0 secs

     total energy              =    -722.18871736 Ry
     estimated scf accuracy    <          1.7E-11 Ry

     total charge of GC-SCF    =      -8.75224584 e
     the Fermi energy          =      -1.40399828 eV
                        (error :       0.00000172 eV)
     electrostatic embedding   =      -8.74647805 Ry
     cavitation energy         =       0.03643414 Ry
     electrolyte free energy   =      -0.21230283 Ry
     correction to one-el term =     275.21163131 Ry

     iteration # 47     ecut=    80.00 Ry     beta= 0.20
     Davidson diagonalization with overlap

---- Real-time Memory Report at c_bands before calling an iterative solver
          1123 MiB given to the printing process from OS
             0 MiB allocation reported by mallinfo(arena+hblkhd)
        207313 MiB available memory on the node where the printing process lives
------------------
     ethr =  1.00E-13,  avg # of iterations =  7.4

     negative rho (up, down):  3.849E-04 0.000E+00

     add environment contribution to local potential

     total cpu time spent up to now is     2473.0 secs

     total energy              =    -722.18871753 Ry
     estimated scf accuracy    <          1.1E-11 Ry

     total charge of GC-SCF    =      -8.75232728 e
     the Fermi energy          =      -1.40400841 eV
                        (error :       0.00000841 eV)
     electrostatic embedding   =      -8.74632480 Ry
     cavitation energy         =       0.03643414 Ry
     electrolyte free energy   =      -0.21229397 Ry
     correction to one-el term =     275.20965476 Ry

     iteration # 48     ecut=    80.00 Ry     beta= 0.20
     Davidson diagonalization with overlap

---- Real-time Memory Report at c_bands before calling an iterative solver
          1123 MiB given to the printing process from OS
             0 MiB allocation reported by mallinfo(arena+hblkhd)
        207308 MiB available memory on the node where the printing process lives
------------------
     ethr =  1.00E-13,  avg # of iterations =  6.8

     negative rho (up, down):  3.849E-04 0.000E+00

     add environment contribution to local potential

     total cpu time spent up to now is     2515.0 secs

     total energy              =    -722.18871740 Ry
     estimated scf accuracy    <          1.9E-12 Ry

     total charge of GC-SCF    =      -8.75232380 e
     the Fermi energy          =      -1.40399942 eV
                        (error :       0.00000058 eV)
     electrostatic embedding   =      -8.74644681 Ry
     cavitation energy         =       0.03643414 Ry
     electrolyte free energy   =      -0.21230128 Ry
     correction to one-el term =     275.21106083 Ry

     iteration # 49     ecut=    80.00 Ry     beta= 0.20
     Davidson diagonalization with overlap

---- Real-time Memory Report at c_bands before calling an iterative solver
          1123 MiB given to the printing process from OS
             0 MiB allocation reported by mallinfo(arena+hblkhd)
        207330 MiB available memory on the node where the printing process lives
------------------
     ethr =  1.00E-13,  avg # of iterations =  3.4

     negative rho (up, down):  3.848E-04 0.000E+00

     total cpu time spent up to now is     2526.1 secs

     End of self-consistent calculation

          k = 0.0000 0.0000 0.0000 (341261 PWs)   bands (ev):

   -48.5071 -48.5064 -48.5063 -48.5063 -48.5056 -48.5055 -48.5055 -48.5051
   -48.1222 -48.1221 -48.1220 -48.1219 -48.1219 -48.1218 -48.1218 -48.1216
   -47.9291 -47.9288 -47.9288 -47.9287 -47.9283 -47.9283 -47.9283 -47.9278
   -47.9086 -47.9003 -47.9001 -47.8999 -47.8997 -47.8994 -47.8992 -47.8984
   -47.8942 -47.8942 -47.8941 -47.8933 -47.8928 -47.8923 -47.8923 -47.8876
   -47.8036 -47.8027 -47.8023 -47.8022 -47.8021 -47.8018 -47.8018 -47.8005
    -4.8541  -4.5124  -3.9782  -3.3661  -3.2638  -3.2636  -3.2634  -3.2565
    -3.2564  -3.2562  -2.8963  -2.8962  -2.8961  -2.8729  -2.8728  -2.8727
    -2.6690  -2.3035  -2.3034  -2.3032  -2.2564  -2.2563  -2.2562  -1.7830
    -1.6316  -1.6315  -1.6312  -1.5654  -1.5653  -1.5653  -1.0404  -1.0038
    -1.0036  -1.0035  -0.9895  -0.9893  -0.9892  -0.7286  -0.7286  -0.7286
    -0.4858  -0.4858  -0.4857  -0.4001  -0.0948  -0.0946  -0.0943  -0.0581
     0.1011   0.1369   0.3757   0.3760   0.3762   0.4167   0.4167   0.4168
     0.5086   0.5333   0.7753   0.7753

     occupation numbers 
     1.0000   1.0000   1.0000   1.0000   1.0000   1.0000   1.0000   1.0000
     1.0000   1.0000   1.0000   1.0000   1.0000   1.0000   1.0000   1.0000
     1.0000   1.0000   1.0000   1.0000   1.0000   1.0000   1.0000   1.0000
     1.0000   1.0000   1.0000   1.0000   1.0000   1.0000   1.0000   1.0000
     1.0000   1.0000   1.0000   1.0000   1.0000   1.0000   1.0000   1.0000
     1.0000   1.0000   1.0000   1.0000   1.0000   1.0000   1.0000   1.0000
     1.0000   1.0000   1.0000   1.0000   1.0000   1.0000   1.0000   1.0000
     1.0000   1.0000   1.0000   1.0000   1.0000   1.0000   1.0000   1.0000
     1.0000   1.0000   1.0000   1.0000   1.0000   1.0000   1.0000   1.0037
     1.0710   1.0710   1.0712   1.0681   1.0680   1.0680   0.0000   0.0000
     0.0000   0.0000   0.0000   0.0000   0.0000   0.0000   0.0000   0.0000
     0.0000   0.0000   0.0000   0.0000   0.0000   0.0000   0.0000   0.0000
     0.0000   0.0000   0.0000   0.0000   0.0000   0.0000   0.0000   0.0000
     0.0000   0.0000   0.0000   0.0000

          k = 0.0000 0.1650 0.0000 (341287 PWs)   bands (ev):

   -48.5071 -48.5064 -48.5063 -48.5063 -48.5056 -48.5055 -48.5055 -48.5051
   -48.1222 -48.1221 -48.1220 -48.1219 -48.1219 -48.1218 -48.1218 -48.1216
   -47.9291 -47.9288 -47.9288 -47.9287 -47.9283 -47.9283 -47.9283 -47.9278
   -47.9083 -47.9016 -47.9006 -47.9005 -47.8990 -47.8988 -47.8984 -47.8982
   -47.8944 -47.8944 -47.8944 -47.8930 -47.8927 -47.8924 -47.8920 -47.8877
   -47.8036 -47.8027 -47.8023 -47.8022 -47.8021 -47.8018 -47.8018 -47.8005
    -4.8216  -4.4790  -3.9428  -3.6827  -3.4557  -3.4557  -3.3290  -3.3140
    -3.0830  -3.0829  -3.0018  -3.0018  -2.7756  -2.7205  -2.6326  -2.6246
    -2.6245  -2.4785  -2.4785  -2.3910  -2.0716  -2.0307  -2.0307  -1.7704
    -1.7703  -1.7483  -1.7400  -1.4383  -1.3946  -1.3945  -1.1391  -1.1391
    -1.0305  -1.0305  -1.0051  -0.9902  -0.9467  -0.6898  -0.6898  -0.6193
    -0.6057  -0.6057  -0.4434  -0.3660  -0.1144  -0.1144  -0.0841  -0.0155
     0.1373   0.1787   0.1920   0.1920   0.4051   0.4162   0.4163   0.4414
     0.4587   0.5402   0.5422   0.5697

     occupation numbers 
     1.0000   1.0000   1.0000   1.0000   1.0000   1.0000   1.0000   1.0000
     1.0000   1.0000   1.0000   1.0000   1.0000   1.0000   1.0000   1.0000
     1.0000   1.0000   1.0000   1.0000   1.0000   1.0000   1.0000   1.0000
     1.0000   1.0000   1.0000   1.0000   1.0000   1.0000   1.0000   1.0000
     1.0000   1.0000   1.0000   1.0000   1.0000   1.0000   1.0000   1.0000
     1.0000   1.0000   1.0000   1.0000   1.0000   1.0000   1.0000   1.0000
     1.0000   1.0000   1.0000   1.0000   1.0000   1.0000   1.0000   1.0000
     1.0000   1.0000   1.0000   1.0000   1.0000   1.0000   1.0000   1.0000
     1.0000   1.0000   1.0000   1.0000   1.0000   1.0000   1.0000   1.0052
     1.0053   1.0094   1.0115   0.5842   0.3545   0.3542   0.0004   0.0004
     0.0000   0.0000   0.0000   0.0000   0.0000   0.0000   0.0000   0.0000
     0.0000   0.0000   0.0000   0.0000   0.0000   0.0000   0.0000   0.0000
     0.0000   0.0000   0.0000   0.0000   0.0000   0.0000   0.0000   0.0000
     0.0000   0.0000   0.0000   0.0000

          k = 0.0000 0.3299 0.0000 (341325 PWs)   bands (ev):

   -48.5071 -48.5064 -48.5063 -48.5063 -48.5056 -48.5055 -48.5055 -48.5051
   -48.1222 -48.1221 -48.1220 -48.1220 -48.1219 -48.1219 -48.1218 -48.1216
   -47.9291 -47.9288 -47.9288 -47.9287 -47.9283 -47.9283 -47.9283 -47.9278
   -47.9076 -47.9033 -47.9010 -47.9010 -47.8983 -47.8979 -47.8978 -47.8976
   -47.8950 -47.8950 -47.8944 -47.8928 -47.8926 -47.8925 -47.8911 -47.8883
   -47.8036 -47.8027 -47.8023 -47.8022 -47.8021 -47.8019 -47.8018 -47.8005
    -4.7241  -4.3788  -4.0408  -3.8368  -3.6790  -3.5869  -3.5869  -3.2178
    -3.2157  -3.2157  -3.1011  -2.6858  -2.6858  -2.6170  -2.6170  -2.5235
    -2.4529  -2.2979  -2.2979  -2.2208  -1.9618  -1.9618  -1.8861  -1.7136
    -1.6451  -1.6411  -1.6410  -1.4895  -1.4895  -1.3357  -1.3356  -1.2403
    -1.0452  -1.0452  -0.9082  -0.9015  -0.8860  -0.8860  -0.8189  -0.5557
    -0.5556  -0.4737  -0.3162  -0.2931  -0.2930  -0.2897  -0.2403   0.0137
     0.0213   0.0214   0.0741   0.1003   0.1484   0.2827   0.3045   0.3335
     0.3336   0.4436   0.5705   0.5844

     occupation numbers 
[...]
     atom   30 type  1   force =     0.00000006    0.00030675  -12.37226489
     atom   31 type  1   force =     0.00000000   -0.00032101   12.37230674
     atom   32 type  1   force =     0.00098660   -0.00006130    3.52294829
     atom   33 type  1   force =     0.00000003   -0.00103464    8.61438653
     atom   34 type  1   force =    -0.00000000    0.00007869    5.86888513
     atom   35 type  1   force =     0.00180898   -0.00018496   10.52537600
     atom   36 type  1   force =     0.00000005   -0.00094743    1.29825307
     atom   37 type  1   force =    -0.00162929   -0.00015635   -1.29868227
     atom   38 type  1   force =     0.00000005    0.00085144  -10.52899228
     atom   39 type  1   force =     0.00023797    0.00005420   -5.86843667
     atom   40 type  1   force =    -0.00164683   -0.00020802   -8.61490292
     atom   41 type  1   force =     0.00000004    0.00042983   -3.52457179
     atom   42 type  1   force =    -0.00044036   -0.00002545  -12.37152781
     atom   43 type  1   force =     0.00043659    0.00004676   12.37156303
     atom   44 type  1   force =     0.00000003   -0.00050758    3.52435352
     atom   45 type  1   force =     0.00167644    0.00017489    8.61481023
     atom   46 type  1   force =    -0.00023362   -0.00004263    5.86843863
     atom   47 type  1   force =     0.00000002   -0.00087077   10.52873387
     atom   48 type  1   force =     0.00164820    0.00012040    1.29862382
     The local contribution  to forces
     atom    1 type  1   force =     0.00000031    0.00085677    1.27712727
     atom    2 type  1   force =    -0.00241070   -0.00026704   10.37434002
     atom    3 type  1   force =     0.00000169   -0.00103683    5.75505257
     atom    4 type  1   force =    -0.00000085    0.00088623    8.46337970
     atom    5 type  1   force =    -0.00132110    0.00016321    3.46075766
     atom    6 type  1   force =    -0.00000356    0.00076471   12.29281560
     atom    7 type  1   force =    -0.00000028    0.00035196  -12.28738236
     atom    8 type  1   force =     0.00062884    0.00033442   -3.45794880
     atom    9 type  1   force =     0.00000168   -0.00088618   -8.46628418
     atom   10 type  1   force =     0.00000031   -0.00057890   -5.75325559
     atom   11 type  1   force =     0.00112020    0.00008930  -10.36856764
     atom   12 type  1   force =     0.00000111   -0.00085694   -1.27712728
     atom   13 type  1   force =    -0.00133721   -0.00002596    1.27796212
     atom   14 type  1   force =     0.00000285    0.00055969   10.37343266
     atom   15 type  1   force =     0.00040887    0.00085887    5.75614561
     atom   16 type  1   force =    -0.00189633   -0.00036026    8.46703721
     atom   17 type  1   force =     0.00000169    0.00078754    3.46082754
     atom   18 type  1   force =     0.00028646   -0.00135083   12.29448698
     atom   19 type  1   force =     0.00112934   -0.00141679  -12.28833435
     atom   20 type  1   force =     0.00000227   -0.00063274   -3.45632502
     atom   21 type  1   force =     0.00132712   -0.00072663   -8.45966231
     atom   22 type  1   force =    -0.00003399    0.00095108   -5.75418650
     atom   23 type  1   force =     0.00000227   -0.00174355  -10.36523824
     atom   24 type  1   force =     0.00189954   -0.00029850   -1.27388064
     atom   25 type  1   force =     0.00000227   -0.00053288    1.27489196
     atom   26 type  1   force =     0.00241408   -0.00026588   10.37433095
     atom   27 type  1   force =     0.00000365   -0.00165586    5.75664321
     atom   28 type  1   force =     0.00000284    0.00002672    8.46124757
     atom   29 type  1   force =     0.00132447    0.00016321    3.46075283
     atom   30 type  1   force =     0.00000834    0.00194550   12.29596676
     atom   31 type  1   force =     0.00000228    0.00255991  -12.28837550
     atom   32 type  1   force =    -0.00062547    0.00033442   -3.45795182
     atom   33 type  1   force =     0.00000306    0.00205601   -8.46423715
     atom   34 type  1   force =     0.00000227   -0.00180362   -5.75456826
     atom   35 type  1   force =    -0.00111682    0.00008989  -10.36857006
     atom   36 type  1   force =     0.00000365    0.00137794   -1.27606862
     atom   37 type  1   force =     0.00134116   -0.00002654    1.27796212
     atom   38 type  1   force =     0.00000249   -0.00096850   10.38175262
     atom   39 type  1   force =    -0.00040215    0.00085829    5.75614500
     atom   40 type  1   force =     0.00190028   -0.00036142    8.46703660
     atom   41 type  1   force =     0.00000307   -0.00178694    3.46467130
     atom   42 type  1   force =    -0.00027971   -0.00135725   12.29448638
     atom   43 type  1   force =    -0.00112537   -0.00141737  -12.28833376
     atom   44 type  1   force =     0.00000307   -0.00084448   -3.45695706
     atom   45 type  1   force =    -0.00132042   -0.00072663   -8.45966231
     atom   46 type  1   force =     0.00003737    0.00095108   -5.75418590
     atom   47 type  1   force =     0.00000307    0.00071544  -10.36818339
     atom   48 type  1   force =    -0.00189340   -0.00029908   -1.27388064
     The core correction contribution to forces
     atom    1 type  1   force =     0.00000000    0.00000000    0.00000000
     atom    2 type  1   force =     0.00000000    0.00000000    0.00000000
     atom    3 type  1   force =     0.00000000    0.00000000    0.00000000
     atom    4 type  1   force =     0.00000000    0.00000000    0.00000000
     atom    5 type  1   force =     0.00000000    0.00000000    0.00000000
     atom    6 type  1   force =     0.00000000    0.00000000    0.00000000
     atom    7 type  1   force =     0.00000000    0.00000000    0.00000000
     atom    8 type  1   force =     0.00000000    0.00000000    0.00000000
     atom    9 type  1   force =     0.00000000    0.00000000    0.00000000
     atom   10 type  1   force =     0.00000000    0.00000000    0.00000000
     atom   11 type  1   force =     0.00000000    0.00000000    0.00000000
     atom   12 type  1   force =     0.00000000    0.00000000    0.00000000
     atom   13 type  1   force =     0.00000000    0.00000000    0.00000000
     atom   14 type  1   force =     0.00000000    0.00000000    0.00000000
     atom   15 type  1   force =     0.00000000    0.00000000    0.00000000
     atom   16 type  1   force =     0.00000000    0.00000000    0.00000000
     atom   17 type  1   force =     0.00000000    0.00000000    0.00000000
     atom   18 type  1   force =     0.00000000    0.00000000    0.00000000
     atom   19 type  1   force =     0.00000000    0.00000000    0.00000000
     atom   20 type  1   force =     0.00000000    0.00000000    0.00000000
     atom   21 type  1   force =     0.00000000    0.00000000    0.00000000
     atom   22 type  1   force =     0.00000000    0.00000000    0.00000000
     atom   23 type  1   force =     0.00000000    0.00000000    0.00000000
     atom   24 type  1   force =     0.00000000    0.00000000    0.00000000
     atom   25 type  1   force =     0.00000000    0.00000000    0.00000000
     atom   26 type  1   force =     0.00000000    0.00000000    0.00000000
     atom   27 type  1   force =     0.00000000    0.00000000    0.00000000
     atom   28 type  1   force =     0.00000000    0.00000000    0.00000000
     atom   29 type  1   force =     0.00000000    0.00000000    0.00000000
     atom   30 type  1   force =     0.00000000    0.00000000    0.00000000
     atom   31 type  1   force =     0.00000000    0.00000000    0.00000000
     atom   32 type  1   force =     0.00000000    0.00000000    0.00000000
     atom   33 type  1   force =     0.00000000    0.00000000    0.00000000
     atom   34 type  1   force =     0.00000000    0.00000000    0.00000000
     atom   35 type  1   force =     0.00000000    0.00000000    0.00000000
     atom   36 type  1   force =     0.00000000    0.00000000    0.00000000
     atom   37 type  1   force =     0.00000000    0.00000000    0.00000000
     atom   38 type  1   force =     0.00000000    0.00000000    0.00000000
     atom   39 type  1   force =     0.00000000    0.00000000    0.00000000
     atom   40 type  1   force =     0.00000000    0.00000000    0.00000000
     atom   41 type  1   force =     0.00000000    0.00000000    0.00000000
     atom   42 type  1   force =     0.00000000    0.00000000    0.00000000
     atom   43 type  1   force =     0.00000000    0.00000000    0.00000000
     atom   44 type  1   force =     0.00000000    0.00000000    0.00000000
     atom   45 type  1   force =     0.00000000    0.00000000    0.00000000
     atom   46 type  1   force =     0.00000000    0.00000000    0.00000000
     atom   47 type  1   force =     0.00000000    0.00000000    0.00000000
     atom   48 type  1   force =     0.00000000    0.00000000    0.00000000
     The Hubbard contrib.    to forces
     atom    1 type  1   force =     0.00000000    0.00000000    0.00000000
     atom    2 type  1   force =     0.00000000    0.00000000    0.00000000
     atom    3 type  1   force =     0.00000000    0.00000000    0.00000000
     atom    4 type  1   force =     0.00000000    0.00000000    0.00000000
     atom    5 type  1   force =     0.00000000    0.00000000    0.00000000
     atom    6 type  1   force =     0.00000000    0.00000000    0.00000000
     atom    7 type  1   force =     0.00000000    0.00000000    0.00000000
     atom    8 type  1   force =     0.00000000    0.00000000    0.00000000
     atom    9 type  1   force =     0.00000000    0.00000000    0.00000000
     atom   10 type  1   force =     0.00000000    0.00000000    0.00000000
     atom   11 type  1   force =     0.00000000    0.00000000    0.00000000
     atom   12 type  1   force =     0.00000000    0.00000000    0.00000000
     atom   13 type  1   force =     0.00000000    0.00000000    0.00000000
     atom   14 type  1   force =     0.00000000    0.00000000    0.00000000
     atom   15 type  1   force =     0.00000000    0.00000000    0.00000000
     atom   16 type  1   force =     0.00000000    0.00000000    0.00000000
     atom   17 type  1   force =     0.00000000    0.00000000    0.00000000
     atom   18 type  1   force =     0.00000000    0.00000000    0.00000000
     atom   19 type  1   force =     0.00000000    0.00000000    0.00000000
     atom   20 type  1   force =     0.00000000    0.00000000    0.00000000
     atom   21 type  1   force =     0.00000000    0.00000000    0.00000000
     atom   22 type  1   force =     0.00000000    0.00000000    0.00000000
     atom   23 type  1   force =     0.00000000    0.00000000    0.00000000
     atom   24 type  1   force =     0.00000000    0.00000000    0.00000000
     atom   25 type  1   force =     0.00000000    0.00000000    0.00000000
     atom   26 type  1   force =     0.00000000    0.00000000    0.00000000
     atom   27 type  1   force =     0.00000000    0.00000000    0.00000000
     atom   28 type  1   force =     0.00000000    0.00000000    0.00000000
     atom   29 type  1   force =     0.00000000    0.00000000    0.00000000
     atom   30 type  1   force =     0.00000000    0.00000000    0.00000000
     atom   31 type  1   force =     0.00000000    0.00000000    0.00000000
     atom   32 type  1   force =     0.00000000    0.00000000    0.00000000
     atom   33 type  1   force =     0.00000000    0.00000000    0.00000000
     atom   34 type  1   force =     0.00000000    0.00000000    0.00000000
     atom   35 type  1   force =     0.00000000    0.00000000    0.00000000
     atom   36 type  1   force =     0.00000000    0.00000000    0.00000000
     atom   37 type  1   force =     0.00000000    0.00000000    0.00000000
     atom   38 type  1   force =     0.00000000    0.00000000    0.00000000
     atom   39 type  1   force =     0.00000000    0.00000000    0.00000000
     atom   40 type  1   force =     0.00000000    0.00000000    0.00000000
     atom   41 type  1   force =     0.00000000    0.00000000    0.00000000
     atom   42 type  1   force =     0.00000000    0.00000000    0.00000000
     atom   43 type  1   force =     0.00000000    0.00000000    0.00000000
     atom   44 type  1   force =     0.00000000    0.00000000    0.00000000
     atom   45 type  1   force =     0.00000000    0.00000000    0.00000000
     atom   46 type  1   force =     0.00000000    0.00000000    0.00000000
     atom   47 type  1   force =     0.00000000    0.00000000    0.00000000
     atom   48 type  1   force =     0.00000000    0.00000000    0.00000000
     The SCF correction term to forces
     atom    1 type  1   force =    -0.00000000   -0.00000007    0.00000004
     atom    2 type  1   force =    -0.00000000   -0.00000001   -0.00000006
     atom    3 type  1   force =     0.00000000    0.00000006   -0.00000006
     atom    4 type  1   force =    -0.00000000   -0.00000004   -0.00000007
     atom    5 type  1   force =    -0.00000000   -0.00000001   -0.00000014
     atom    6 type  1   force =    -0.00000000    0.00000001    0.00000030
     atom    7 type  1   force =     0.00000000   -0.00000002   -0.00000033
     atom    8 type  1   force =     0.00000001    0.00000000    0.00000013
     atom    9 type  1   force =     0.00000000    0.00000004    0.00000009
     atom   10 type  1   force =    -0.00000000   -0.00000005    0.00000005
     atom   11 type  1   force =     0.00000001    0.00000001    0.00000002
     atom   12 type  1   force =    -0.00000000    0.00000007   -0.00000004
     atom   13 type  1   force =     0.00000010    0.00000001    0.00000004
     atom   14 type  1   force =    -0.00000000    0.00000002   -0.00000002
     atom   15 type  1   force =    -0.00000009   -0.00000001   -0.00000007
     atom   16 type  1   force =     0.00000006    0.00000001   -0.00000013
     atom   17 type  1   force =    -0.00000000    0.00000001   -0.00000012
     atom   18 type  1   force =    -0.00000003    0.00000001    0.00000031
     atom   19 type  1   force =     0.00000003    0.00000000   -0.00000034
     atom   20 type  1   force =    -0.00000000   -0.00000001    0.00000010
     atom   21 type  1   force =    -0.00000006   -0.00000001    0.00000009
     atom   22 type  1   force =     0.00000009   -0.00000000    0.00000006
     atom   23 type  1   force =     0.00000000   -0.00000001   -0.00000002
     atom   24 type  1   force =    -0.00000010   -0.00000001   -0.00000006
     atom   25 type  1   force =    -0.00000000    0.00000004    0.00000004
     atom   26 type  1   force =     0.00000000   -0.00000001   -0.00000005
     atom   27 type  1   force =    -0.00000000   -0.00000003   -0.00000008
     atom   28 type  1   force =     0.00000000    0.00000002   -0.00000012
     atom   29 type  1   force =     0.00000000   -0.00000001   -0.00000014
     atom   30 type  1   force =     0.00000000   -0.00000003    0.00000028
     atom   31 type  1   force =    -0.00000000    0.00000000   -0.00000033
     atom   32 type  1   force =    -0.00000001    0.00000000    0.00000013
     atom   33 type  1   force =    -0.00000000   -0.00000003    0.00000014
     atom   34 type  1   force =     0.00000000    0.00000006    0.00000007
     atom   35 type  1   force =    -0.00000001    0.00000001    0.00000002
     atom   36 type  1   force =     0.00000000   -0.00000005   -0.00000003
     atom   37 type  1   force =    -0.00000010    0.00000001    0.00000003
     atom   38 type  1   force =     0.00000000    0.00000001   -0.00000010
     atom   39 type  1   force =     0.00000009   -0.00000001   -0.00000007
     atom   40 type  1   force =    -0.00000006    0.00000001   -0.00000013
     atom   41 type  1   force =    -0.00000000    0.00000001   -0.00000017
     atom   42 type  1   force =     0.00000003    0.00000001    0.00000031
     atom   43 type  1   force =    -0.00000003    0.00000000   -0.00000034
     atom   44 type  1   force =     0.00000000    0.00000000    0.00000012
     atom   45 type  1   force =     0.00000006   -0.00000001    0.00000009
     atom   46 type  1   force =    -0.00000009   -0.00000000    0.00000007
     atom   47 type  1   force =    -0.00000000   -0.00000001    0.00000003
     atom   48 type  1   force =     0.00000010   -0.00000001   -0.00000006

     Total force =     0.004412     Total SCF correction =     0.000001

     Writing all to output data dir ./Li/Lithium.save/ :
     XML data file
     init_run     :     28.15s CPU     36.29s WALL (       1 calls)
     electrons    :   2132.39s CPU   2489.54s WALL (       1 calls)
     forces       :     88.10s CPU     91.58s WALL (       1 calls)

     Called by init_run:
     wfcinit      :      2.75s CPU      3.24s WALL (       1 calls)
     wfcinit:wfcr :      2.48s CPU      2.96s WALL (       8 calls)
     potinit      :      1.06s CPU      1.12s WALL (       1 calls)
     hinit0       :      7.85s CPU      8.93s WALL (       1 calls)

     Called by electrons:
     c_bands      :   1152.05s CPU   1366.95s WALL (      49 calls)
     sum_band     :     67.09s CPU     84.73s WALL (      49 calls)
     v_of_rho     :      8.81s CPU     10.25s WALL (      50 calls)
     v_h          :      0.68s CPU      0.81s WALL (      50 calls)
     v_xc         :      8.13s CPU      9.44s WALL (      50 calls)
     newd         :      4.80s CPU      7.45s WALL (      50 calls)
     PAW_pot      :      0.53s CPU      0.72s WALL (      50 calls)
     mix_rho      :     20.72s CPU     25.60s WALL (      49 calls)

     Called by c_bands:
     init_us_2    :     15.24s CPU     15.34s WALL (     800 calls)
     cegterg      :   1098.08s CPU   1243.31s WALL (     501 calls)

     Called by sum_band:
     sum_band:wei :      0.08s CPU      0.10s WALL (      49 calls)
     sum_band:loo :     60.48s CPU     71.92s WALL (      49 calls)
     sum_band:buf :      1.52s CPU      1.54s WALL (     392 calls)
     sum_band:ini :      7.48s CPU      7.51s WALL (     392 calls)
     sum_band:cal :     11.97s CPU     12.63s WALL (     392 calls)
     sum_band:bec :      0.10s CPU      0.11s WALL (     392 calls)
     addusdens    :      2.63s CPU      4.13s WALL (      49 calls)
                                        0.00s GPU  (      49 calls)
     addusd:skk   :      0.30s CPU      1.04s WALL (      49 calls)
                                        0.00s GPU  (      49 calls)

     Called by *egterg:
     cdiaghg      :    286.91s CPU    297.35s WALL (    6874 calls)
     cegterg:over :     76.49s CPU     82.51s WALL (    6426 calls)
     cegterg:upda :     64.34s CPU     66.11s WALL (    6426 calls)
     cegterg:last :     31.45s CPU     31.51s WALL (     733 calls)
     h_psi        :    546.96s CPU    666.99s WALL (    6935 calls)
     s_psi        :     70.04s CPU     70.76s WALL (    6935 calls)
     g_psi        :      0.95s CPU      1.01s WALL (    6426 calls)

     Called by h_psi:
     h_psi:calbec :     85.33s CPU     92.11s WALL (    6935 calls)
     vloc_psi     :    388.00s CPU    497.80s WALL (    6935 calls)
                                        0.00s GPU  (    6935 calls)
     add_vuspsi   :     70.11s CPU     70.57s WALL (    6935 calls)

     General routines
     calbec       :     98.17s CPU    105.71s WALL (    7359 calls)
     fft          :      6.56s CPU      8.57s WALL (     650 calls)
     ffts         :     10.58s CPU     13.77s WALL (    6003 calls)
     fftw         :    397.34s CPU    510.24s WALL (  473374 calls)
     interpolate  :      1.41s CPU      1.56s WALL (      50 calls)

     Parallel routines

     PAW routines
     PAW_pot      :      0.53s CPU      0.72s WALL (      50 calls)
     PAW_symme    :      0.02s CPU      0.03s WALL (      99 calls)

     Environ routines

     PWSCF        :  37m28.81s CPU  43m37.82s WALL


   This run was terminated on:  22:27:51  22Jan2025            

=------------------------------------------------------------------------------=
   JOB DONE.
=------------------------------------------------------------------------------=
