
     Program PWSCF v.7.4 starts on 21Jan2025 at 10:53:49 

     This program is part of the open-source Quantum ESPRESSO suite
     for quantum simulation of materials; please cite
         "P. Giannozzi et al., J. Phys.:Condens. Matter 21 395502 (2009);
         "P. Giannozzi et al., J. Phys.:Condens. Matter 29 465901 (2017);
         "P. Giannozzi et al., J. Chem. Phys. 152 154105 (2020);
          URL http://www.quantum-espresso.org", 
     in publications or presentations arising from this work. More details at
     http://www.quantum-espresso.org/quote

     Parallel version (MPI & OpenMP), running on     384 processor cores
     Number of MPI processes:               384
     Threads/MPI process:                     1

     MPI processes distributed on     3 nodes
     234794 MiB available memory on the printing compute node when the environment starts

     Reading input from espresso.pwi
Warning: card &CELL ignored
Warning: card    PRESS_CONV_THR   = 0.1 ignored
Warning: card    CELL_DOFREE      = 'ALL' ignored
Warning: card / ignored
Warning: card &FCP ignored
Warning: card / ignored
Warning: card &RISM ignored
Warning: card / ignored

     Current dimensions of program PWSCF are:
     Max number of different atomic species (ntypx) = 10
     Max number of k-points (npk) =  40000
     Max angular momentum in pseudopotentials (lmaxx) =  4

     IMPORTANT: XC functional enforced from input :
     Exchange-correlation= PBE
                           (   1   4   3   4   0   0   0)
     Any further DFT definition will be discarded
     Please, verify this is what you really want


     Reading input from environ.in:
     * using ionic solvent mode
     * setting boundary derivatives method to SSCS default
     * setting electrolyte-boundary derivatives method to SSCS default

Environ Warning (1001): card EOF ignored

     

     K-points division:     npool     =       2
     R & G space division:  proc/nbgrp/npool/nimage =     192
     Subspace diagonalization in iterative solution of the eigenvalue problem:
     a serial algorithm will be used


     Parallelization info
     --------------------
     sticks:   dense  smooth     PW     G-vecs:    dense   smooth      PW
     Min          83      33      8                47331    11965    1600
     Max          84      34      9                47398    12006    1675
     Sum       16113    6449   1713              9095383  2301201  316649

     Using Slab Decomposition



     bravais-lattice index     =           12
     lattice parameter (alat)  =      18.3607  a.u.
     unit-cell volume          =   23801.8584 (a.u.)^3
     number of atoms/cell      =           36
     number of atomic types    =            1
     number of electrons       =       108.00
     number of Kohn-Sham states=           81
     kinetic-energy cutoff     =      80.0000  Ry
     charge density cutoff     =     800.0000  Ry
     scf convergence threshold =      1.0E-16
     mixing beta               =       0.2000
     number of iterations used =            8  local-TF  mixing
     Exchange-correlation= PBE
                           (   1   4   3   4   0   0   0)

     ================================================================================

                                  Environ Setup Summary

     ================================================================================

     Please cite

          O. Andreussi, I. Dabo and N. Marzari, J. Chem. Phys. 136, 064102 (2012)
          F. Nattino, M. Truscott, N. Marzari, and O. Andreussi, J. Chem. Phys. 150, 041722 (2019)

     in publications or presentations arising from this work.

     ================================================================================

     Parameters
     ==========

     compensation onset threshold      =               0.1000E+00
     static permittivity               =                    89.90
     surface tension in input (dyn/cm) =                    37.30
     surface tension in internal units =               0.4792E-04

     Solvent Boundary
     ================

     solvent mode                      =                    ionic
     derivatives method                =                   lowmem
     electrolyte derivatives method    =                   lowmem
     numerical core for derivatives    =                      fft
     switching function adopted        =                     SCCS
     density limit for vacuum region   =               0.5000E-02
     density limit for bulk solvent    =               0.1000E-03
     soft-sphere radius mode           =                    bondi
     soft-sphere softness              =                     0.50
     alpha                             =                     1.32

     Electrostatic Setup
     ===================

     electrostatic problem to solve    =                    modpb
     numerical solver adopted          =                   newton
     type of auxiliary density adopted =                     none
     numerical core for poisson        =                      fft
     adopting a nested solver scheme
     inner solver                      =                       cg
     inner core                        =                      fft
     type of pbc corrections           =                parabolic
     numerical core for corrections    =                      1da

     ================================================================================


     >>>>> Grand-Canonical SCF is activated <<<<<
     Initial Total Charge  =     0.000000 e
     Target Fermi Energy   =    -5.404000 eV
     Thr. of Fermi Energy  =     0.001000 eV
     Wave-shift of Kerker  =     0.400000 bohr^-1
     Wave-shift of Hartree =     1.500000 bohr^-1
     Mixing Rate of Fermi  =     0.050000

     celldm(1)=  18.360747  celldm(2)=   0.790569  celldm(3)=   5.127180
     celldm(4)=   0.316228  celldm(5)=   0.000000  celldm(6)=   0.000000

     crystal axes: (cart. coord. in units of alat)
               a(1) = (   1.000000   0.000000   0.000000 )  
               a(2) = (   0.250000   0.750000   0.000000 )  
               a(3) = (   0.000000   0.000000   5.127180 )  

     reciprocal axes: (cart. coord. in units 2 pi/alat)
               b(1) = (  1.000000 -0.333333  0.000000 )  
               b(2) = (  0.000000  1.333333  0.000000 )  
               b(3) = (  0.000000  0.000000  0.195039 )  


     PseudoPot. # 1 for Li read from file:
     /work/e89/e89/ba3g18/Repos/Pseudopotentials/Pslibrary/Li.pbe-sl-kjpaw_psl.1.0.0.UPF
     MD5 check sum: 3f4d2cafebb47c6c3aa8ed472e6f074d
     Pseudo is Projector augmented-wave, Zval =  3.0
     Generated using 'atomic' code by A. Dal Corso  v.7.4
     Shape of augmentation charge: PSQ
     Using radial grid of 1017 points,  4 beta functions with: 
                l(1) =   0
                l(2) =   0
                l(3) =   1
                l(4) =   1
     Q(r) pseudized with 0 coefficients 


     atomic species   valence    mass     pseudopotential
     Li                3.00     6.94000     Li( 1.00)

     No symmetry found


                                    s                        frac. trans.

      isym =  1     identity                                     

 cryst.   s( 1) = (     1          0          0      )
                  (     0          1          0      )
                  (     0          0          1      )

 cart.    s( 1) = (  1.0000000  0.0000000  0.0000000 )
                  (  0.0000000  1.0000000  0.0000000 )
                  (  0.0000000  0.0000000  1.0000000 )


     point group C_1 (1)    
     there are  1 classes
     the character table:

       E    
A      1.00

     the symmetry operations in each class and the name of the first element:

     E        1
          identity                                               

   Cartesian axes

     site n.     atom                  positions (alat units)
         1        Li     tau(   1) = (   0.0001026  -0.1219145   3.1281664  )
         2        Li     tau(   2) = (   0.2499674   0.4066104   2.0761582  )
         3        Li     tau(   3) = (   0.2499207   0.0690081   2.2984762  )
         4        Li     tau(   4) = (   0.4999450   0.5034423   2.3202513  )
         5        Li     tau(   5) = (   0.4999916   0.1574167   2.4912468  )
         6        Li     tau(   6) = (   0.2500501   0.5977497   2.5535881  )
         7        Li     tau(   7) = (   0.2500288   0.2430609   2.7236906  )
         8        Li     tau(   8) = (   0.5000692   0.6731568   2.8622611  )
         9        Li     tau(   9) = (   0.5000779   0.3673477   2.9413879  )
        10        Li     tau(  10) = (   0.2499307   0.6601772   2.2649155  )
        11        Li     tau(  11) = (   0.2499723   0.3402736   2.4034759  )
        12        Li     tau(  12) = (   0.4999496   0.7355777   2.5735883  )
        13        Li     tau(  13) = (   0.5000082   0.4259156   2.6359306  )
        14        Li     tau(  14) = (   0.5000555   0.0798927   2.8069266  )
        15        Li     tau(  15) = (   0.2500812   0.5143242   2.8287030  )
        16        Li     tau(  16) = (   0.2500408   0.1767196   3.0510130  )
        17        Li     tau(  17) = (   0.4999277   0.7052504   1.9990168  )
        18        Li     tau(  18) = (   0.4999244   0.2159862   2.1857896  )
        19        Li     tau(  19) = (   0.5000700  -0.1219193   3.1281670  )
        20        Li     tau(  20) = (   0.7499597   0.4066128   2.0761687  )
        21        Li     tau(  21) = (   0.7499188   0.0690094   2.2984776  )
        22        Li     tau(  22) = (   0.9999405   0.5034444   2.3202551  )
        23        Li     tau(  23) = (   0.9999940   0.1574172   2.4912441  )
        24        Li     tau(  24) = (   0.7500506   0.5977524   2.5535885  )
        25        Li     tau(  25) = (   0.7500278   0.2430607   2.7237011  )
        26        Li     tau(  26) = (   1.0000697   0.6731584   2.8622644  )
        27        Li     tau(  27) = (   1.0000698   0.3673413   2.9413897  )
        28        Li     tau(  28) = (   0.7499304   0.6601788   2.2649175  )
        29        Li     tau(  29) = (   0.7499710   0.3402733   2.4034854  )
        30        Li     tau(  30) = (   0.9999499   0.7355821   2.5735929  )
        31        Li     tau(  31) = (   1.0000062   0.4259149   2.6359345  )
        32        Li     tau(  32) = (   1.0000590   0.0798906   2.8069233  )
        33        Li     tau(  33) = (   0.7500793   0.5143306   2.8287026  )
        34        Li     tau(  34) = (   0.7500321   0.1767194   3.0510269  )
        35        Li     tau(  35) = (   0.9998997   0.7052466   1.9990189  )
        36        Li     tau(  36) = (   0.9999279   0.2159916   2.1857882  )

   Crystallographic axes

     site n.     atom                  positions (cryst. coord.)
         1        Li     tau(   1) = (  0.0407408 -0.1625527  0.6101144  )
         2        Li     tau(   2) = (  0.1144306  0.5421472  0.4049318  )
         3        Li     tau(   3) = (  0.2269180  0.0920108  0.4482925  )
         4        Li     tau(   4) = (  0.3321309  0.6712564  0.4525395  )
         5        Li     tau(   5) = (  0.4475194  0.2098889  0.4858903  )
         6        Li     tau(   6) = (  0.0508002  0.7969997  0.4980492  )
         7        Li     tau(   7) = (  0.1690085  0.3240812  0.5312259  )
         8        Li     tau(   8) = (  0.2756836  0.8975424  0.5582525  )
         9        Li     tau(   9) = (  0.3776286  0.4897969  0.5736853  )
        10        Li     tau(  10) = (  0.0298717  0.8802362  0.4417468  )
        11        Li     tau(  11) = (  0.1365478  0.4536981  0.4687715  )
        12        Li     tau(  12) = (  0.2547570  0.9807703  0.5019501  )
        13        Li     tau(  13) = (  0.3580364  0.5678875  0.5141092  )
        14        Li     tau(  14) = (  0.4734246  0.1065236  0.5474601  )
        15        Li     tau(  15) = (  0.0786398  0.6857656  0.5517074  )
        16        Li     tau(  16) = (  0.1911343  0.2356261  0.5950665  )
        17        Li     tau(  17) = (  0.2648443  0.9403339  0.3898862  )
        18        Li     tau(  18) = (  0.4279290  0.2879816  0.4263142  )
        19        Li     tau(  19) = (  0.5407097 -0.1625591  0.6101145  )
        20        Li     tau(  20) = (  0.6144221  0.5421505  0.4049338  )
        21        Li     tau(  21) = (  0.7269156  0.0920126  0.4482928  )
        22        Li     tau(  22) = (  0.8321257  0.6712592  0.4525402  )
        23        Li     tau(  23) = (  0.9475216  0.2098896  0.4858897  )
        24        Li     tau(  24) = (  0.5507998  0.7970032  0.4980493  )
        25        Li     tau(  25) = (  0.6690076  0.3240809  0.5312279  )
        26        Li     tau(  26) = (  0.7756836  0.8975445  0.5582532  )
        27        Li     tau(  27) = (  0.8776227  0.4897883  0.5736857  )
        28        Li     tau(  28) = (  0.5298708  0.8802384  0.4417472  )
        29        Li     tau(  29) = (  0.6365466  0.4536977  0.4687734  )
        30        Li     tau(  30) = (  0.7547558  0.9807761  0.5019510  )
        31        Li     tau(  31) = (  0.8580346  0.5678866  0.5141100  )
        32        Li     tau(  32) = (  0.9734288  0.1065208  0.5474595  )
        33        Li     tau(  33) = (  0.5786357  0.6857742  0.5517073  )
        34        Li     tau(  34) = (  0.6911257  0.2356258  0.5950692  )
        35        Li     tau(  35) = (  0.7648175  0.9403288  0.3898866  )
        36        Li     tau(  36) = (  0.9279308  0.2879887  0.4263139  )

     number of k points=    32  Marzari-Vanderbilt smearing, width (Ry)=  0.0100
                       cart. coord. in units 2pi/alat
        k(    1) = (   0.0000000   0.0000000   0.0000000), wk =   0.0317460
        k(    2) = (   0.0000000   0.1481481   0.0000000), wk =   0.0634921
        k(    3) = (   0.0000000   0.2962963   0.0000000), wk =   0.0634921
        k(    4) = (   0.0000000   0.4444444   0.0000000), wk =   0.0634921
        k(    5) = (   0.0000000   0.5925926   0.0000000), wk =   0.0634921
        k(    6) = (   0.1428571  -0.0476190   0.0000000), wk =   0.0634921
        k(    7) = (   0.1428571   0.1005291   0.0000000), wk =   0.0634921
        k(    8) = (   0.1428571   0.2486772   0.0000000), wk =   0.0634921
        k(    9) = (   0.1428571   0.3968254   0.0000000), wk =   0.0634921
        k(   10) = (   0.1428571   0.5449735   0.0000000), wk =   0.0634921
        k(   11) = (   0.1428571  -0.6402116   0.0000000), wk =   0.0634921
        k(   12) = (   0.1428571  -0.4920635   0.0000000), wk =   0.0634921
        k(   13) = (   0.1428571  -0.3439153   0.0000000), wk =   0.0634921
        k(   14) = (   0.1428571  -0.1957672   0.0000000), wk =   0.0634921
        k(   15) = (   0.2857143  -0.0952381   0.0000000), wk =   0.0634921
        k(   16) = (   0.2857143   0.0529101   0.0000000), wk =   0.0634921
        k(   17) = (   0.2857143   0.2010582   0.0000000), wk =   0.0634921
        k(   18) = (   0.2857143   0.3492063   0.0000000), wk =   0.0634921
        k(   19) = (   0.2857143   0.4973545   0.0000000), wk =   0.0634921
        k(   20) = (   0.2857143  -0.6878307   0.0000000), wk =   0.0634921
        k(   21) = (   0.2857143  -0.5396825   0.0000000), wk =   0.0634921
        k(   22) = (   0.2857143  -0.3915344   0.0000000), wk =   0.0634921
        k(   23) = (   0.2857143  -0.2433862   0.0000000), wk =   0.0634921
        k(   24) = (   0.4285714  -0.1428571   0.0000000), wk =   0.0634921
        k(   25) = (   0.4285714   0.0052910   0.0000000), wk =   0.0634921
        k(   26) = (   0.4285714   0.1534392   0.0000000), wk =   0.0634921
        k(   27) = (   0.4285714   0.3015873   0.0000000), wk =   0.0634921
        k(   28) = (   0.4285714   0.4497354   0.0000000), wk =   0.0634921
        k(   29) = (   0.4285714  -0.7354497   0.0000000), wk =   0.0634921
        k(   30) = (   0.4285714  -0.5873016   0.0000000), wk =   0.0634921
        k(   31) = (   0.4285714  -0.4391534   0.0000000), wk =   0.0634921
        k(   32) = (   0.4285714  -0.2910053   0.0000000), wk =   0.0634921

                       cryst. coord.
        k(    1) = (   0.0000000   0.0000000   0.0000000), wk =   0.0317460
        k(    2) = (   0.0000000   0.1111111   0.0000000), wk =   0.0634921
        k(    3) = (   0.0000000   0.2222222   0.0000000), wk =   0.0634921
        k(    4) = (   0.0000000   0.3333333   0.0000000), wk =   0.0634921
        k(    5) = (   0.0000000   0.4444444   0.0000000), wk =   0.0634921
        k(    6) = (   0.1428571   0.0000000   0.0000000), wk =   0.0634921
        k(    7) = (   0.1428571   0.1111111   0.0000000), wk =   0.0634921
        k(    8) = (   0.1428571   0.2222222   0.0000000), wk =   0.0634921
        k(    9) = (   0.1428571   0.3333333   0.0000000), wk =   0.0634921
        k(   10) = (   0.1428571   0.4444444   0.0000000), wk =   0.0634921
        k(   11) = (   0.1428571  -0.4444444   0.0000000), wk =   0.0634921
        k(   12) = (   0.1428571  -0.3333333   0.0000000), wk =   0.0634921
        k(   13) = (   0.1428571  -0.2222222   0.0000000), wk =   0.0634921
        k(   14) = (   0.1428571  -0.1111111   0.0000000), wk =   0.0634921
        k(   15) = (   0.2857143   0.0000000   0.0000000), wk =   0.0634921
        k(   16) = (   0.2857143   0.1111111   0.0000000), wk =   0.0634921
        k(   17) = (   0.2857143   0.2222222   0.0000000), wk =   0.0634921
        k(   18) = (   0.2857143   0.3333333   0.0000000), wk =   0.0634921
        k(   19) = (   0.2857143   0.4444444   0.0000000), wk =   0.0634921
        k(   20) = (   0.2857143  -0.4444444   0.0000000), wk =   0.0634921
        k(   21) = (   0.2857143  -0.3333333   0.0000000), wk =   0.0634921
        k(   22) = (   0.2857143  -0.2222222   0.0000000), wk =   0.0634921
        k(   23) = (   0.2857143  -0.1111111   0.0000000), wk =   0.0634921
        k(   24) = (   0.4285714   0.0000000   0.0000000), wk =   0.0634921
        k(   25) = (   0.4285714   0.1111111   0.0000000), wk =   0.0634921
        k(   26) = (   0.4285714   0.2222222   0.0000000), wk =   0.0634921
        k(   27) = (   0.4285714   0.3333333   0.0000000), wk =   0.0634921
        k(   28) = (   0.4285714   0.4444444   0.0000000), wk =   0.0634921
        k(   29) = (   0.4285714  -0.4444444   0.0000000), wk =   0.0634921
        k(   30) = (   0.4285714  -0.3333333   0.0000000), wk =   0.0634921
        k(   31) = (   0.4285714  -0.2222222   0.0000000), wk =   0.0634921
        k(   32) = (   0.4285714  -0.1111111   0.0000000), wk =   0.0634921

     Dense  grid:  9095383 G-vectors     FFT dimensions: ( 180, 135, 864)

     Smooth grid:  2301201 G-vectors     FFT dimensions: ( 108,  90, 540)

     Dynamical RAM for                 wfc:       1.85 MB

     Dynamical RAM for     wfc (w. buffer):      31.45 MB

     Dynamical RAM for           str. fact:       0.72 MB

     Dynamical RAM for           local pot:       0.00 MB

     Dynamical RAM for          nlocal pot:       6.58 MB

     Dynamical RAM for                qrad:       0.65 MB

     Dynamical RAM for          rho,v,vnew:       4.95 MB

     Dynamical RAM for               rhoin:       1.65 MB

     Dynamical RAM for            rho*nmix:      11.56 MB

     Dynamical RAM for           G-vectors:       2.80 MB

     Dynamical RAM for          h,s,v(r/c):       4.81 MB

     Dynamical RAM for          <psi|beta>:       0.36 MB

     Dynamical RAM for                 psi:       7.40 MB

     Dynamical RAM for                hpsi:       7.40 MB

     Dynamical RAM for                spsi:       7.40 MB

     Dynamical RAM for      wfcinit/wfcrot:       3.85 MB

     Dynamical RAM for           addusdens:      28.91 MB

     Dynamical RAM for          addusforce:      54.24 MB

     Estimated static dynamical RAM per process >      54.88 MB

     Estimated max dynamical RAM per process >     138.78 MB

     Estimated total dynamical RAM >      43.09 GB

     Initial potential from superposition of free atoms

     starting charge     107.8341, renormalised to     108.0000

     negative rho (up, down):  3.708E-03 0.000E+00
     Starting wfcs are random
     Checking if some PAW data can be deallocated... 

     total cpu time spent up to now is       30.9 secs

     Self-consistent Calculation

     iteration #  1     ecut=    80.00 Ry     beta= 0.20
     Davidson diagonalization with overlap

---- Real-time Memory Report at c_bands before calling an iterative solver
           702 MiB given to the printing process from OS
             0 MiB allocation reported by mallinfo(arena+hblkhd)
        217309 MiB available memory on the node where the printing process lives
------------------
     c_bands:  1 eigenvalues not converged
     c_bands:  1 eigenvalues not converged
     c_bands:  1 eigenvalues not converged
     ethr =  1.00E-12,  avg # of iterations =126.6

     negative rho (up, down):  2.749E-03 0.000E+00

     total cpu time spent up to now is      284.9 secs

     total energy              =    -541.36198176 Ry
     estimated scf accuracy    <       0.12966191 Ry

     total charge of GC-SCF    =       0.14866103 e
     the Fermi energy          =      -4.55567208 eV
                        (error :       0.84832792 eV)
     electrostatic embedding   =       0.00000000 Ry
     cavitation energy         =       0.03350764 Ry
     electrolyte free energy   =       0.01024461 Ry
     correction to one-el term =      -0.00000000 Ry

     iteration #  2     ecut=    80.00 Ry     beta= 0.20
     Davidson diagonalization with overlap

---- Real-time Memory Report at c_bands before calling an iterative solver
           702 MiB given to the printing process from OS
             0 MiB allocation reported by mallinfo(arena+hblkhd)
        214361 MiB available memory on the node where the printing process lives
------------------
     ethr =  1.00E-05,  avg # of iterations = 14.0

     negative rho (up, down):  2.017E-03 0.000E+00

     add environment contribution to local potential

     total cpu time spent up to now is      325.6 secs

     total energy              =    -541.30102330 Ry
     estimated scf accuracy    <       0.04581518 Ry

     total charge of GC-SCF    =       0.32337234 e
     the Fermi energy          =      -4.29199969 eV
                        (error :       1.11200031 eV)
     electrostatic embedding   =       0.00105957 Ry
     cavitation energy         =       0.03350764 Ry
     electrolyte free energy   =       0.01024461 Ry
     correction to one-el term =      -0.00000000 Ry

     iteration #  3     ecut=    80.00 Ry     beta= 0.20
     Davidson diagonalization with overlap

---- Real-time Memory Report at c_bands before calling an iterative solver
           702 MiB given to the printing process from OS
             0 MiB allocation reported by mallinfo(arena+hblkhd)
        214238 MiB available memory on the node where the printing process lives
------------------
     ethr =  1.00E-05,  avg # of iterations = 22.5

     negative rho (up, down):  1.611E-03 0.000E+00

     add environment contribution to local potential

     total cpu time spent up to now is      379.4 secs

     total energy              =    -541.49804801 Ry
     estimated scf accuracy    <       0.01761343 Ry

     total charge of GC-SCF    =       0.49346220 e
     the Fermi energy          =      -3.04367180 eV
                        (error :       2.36032820 eV)
     electrostatic embedding   =      -0.04022797 Ry
     cavitation energy         =       0.03350764 Ry
     electrolyte free energy   =      -0.00507834 Ry
     correction to one-el term =     -10.44386404 Ry

     iteration #  4     ecut=    80.00 Ry     beta= 0.20
     Davidson diagonalization with overlap

---- Real-time Memory Report at c_bands before calling an iterative solver
           702 MiB given to the printing process from OS
             0 MiB allocation reported by mallinfo(arena+hblkhd)
        214137 MiB available memory on the node where the printing process lives
------------------
     ethr =  1.00E-05,  avg # of iterations = 11.8

     negative rho (up, down):  1.254E-03 0.000E+00

     add environment contribution to local potential

     total cpu time spent up to now is      419.8 secs

     total energy              =    -541.35254670 Ry
     estimated scf accuracy    <       0.01512426 Ry

     total charge of GC-SCF    =       1.11399305 e
     the Fermi energy          =      -3.41108467 eV
                        (error :       1.99291533 eV)
     electrostatic embedding   =      -0.05244583 Ry
     cavitation energy         =       0.03350764 Ry
     electrolyte free energy   =      -0.00727617 Ry
     correction to one-el term =     -14.76085797 Ry

     iteration #  5     ecut=    80.00 Ry     beta= 0.20
     Davidson diagonalization with overlap

---- Real-time Memory Report at c_bands before calling an iterative solver
           702 MiB given to the printing process from OS
             0 MiB allocation reported by mallinfo(arena+hblkhd)
        214058 MiB available memory on the node where the printing process lives
------------------
     ethr =  1.00E-05,  avg # of iterations = 11.8

     negative rho (up, down):  1.024E-03 0.000E+00

     add environment contribution to local potential

     total cpu time spent up to now is      457.1 secs

     total energy              =    -541.45418256 Ry
     estimated scf accuracy    <       0.00837075 Ry

     total charge of GC-SCF    =       1.75357395 e
     the Fermi energy          =      -3.34444410 eV
                        (error :       2.05955590 eV)
     electrostatic embedding   =      -0.17521715 Ry
     cavitation energy         =       0.03350764 Ry
     electrolyte free energy   =      -0.00739742 Ry
     correction to one-el term =     -31.34336373 Ry

     iteration #  6     ecut=    80.00 Ry     beta= 0.20
     Davidson diagonalization with overlap

---- Real-time Memory Report at c_bands before calling an iterative solver
           702 MiB given to the printing process from OS
             0 MiB allocation reported by mallinfo(arena+hblkhd)
        213975 MiB available memory on the node where the printing process lives
------------------
     ethr =  7.88E-06,  avg # of iterations = 22.9

     negative rho (up, down):  2.513E-02 0.000E+00

     add environment contribution to local potential

     total cpu time spent up to now is      515.0 secs

     total energy              =    -541.56519711 Ry
     estimated scf accuracy    <       0.00661997 Ry

     total charge of GC-SCF    =       2.58774254 e
     the Fermi energy          =      -3.06061369 eV
                        (error :       2.34338631 eV)
     electrostatic embedding   =      -0.42810517 Ry
     cavitation energy         =       0.03350764 Ry
     electrolyte free energy   =      -0.00824445 Ry
     correction to one-el term =     -49.15248488 Ry

     iteration #  7     ecut=    80.00 Ry     beta= 0.20
     Davidson diagonalization with overlap

---- Real-time Memory Report at c_bands before calling an iterative solver
           702 MiB given to the printing process from OS
             0 MiB allocation reported by mallinfo(arena+hblkhd)
        213979 MiB available memory on the node where the printing process lives
------------------
     ethr =  6.28E-06,  avg # of iterations = 13.2

     negative rho (up, down):  2.005E-02 0.000E+00

     add environment contribution to local potential

     total cpu time spent up to now is      558.8 secs

     total energy              =    -542.04852243 Ry
     estimated scf accuracy    <       0.00641205 Ry

     total charge of GC-SCF    =       2.41980939 e
     the Fermi energy          =      -3.26063369 eV
                        (error :       2.14336631 eV)
     electrostatic embedding   =      -0.91795351 Ry
     cavitation energy         =       0.03350764 Ry
     electrolyte free energy   =      -0.01486436 Ry
     correction to one-el term =     -72.15408931 Ry

     iteration #  8     ecut=    80.00 Ry     beta= 0.20
     Davidson diagonalization with overlap

---- Real-time Memory Report at c_bands before calling an iterative solver
           702 MiB given to the printing process from OS
             0 MiB allocation reported by mallinfo(arena+hblkhd)
        213924 MiB available memory on the node where the printing process lives
------------------
     ethr =  6.07E-06,  avg # of iterations = 12.0

     negative rho (up, down):  6.425E-03 0.000E+00

     add environment contribution to local potential

     total cpu time spent up to now is      598.8 secs

     total energy              =    -541.51283379 Ry
     estimated scf accuracy    <       0.00914998 Ry

     total charge of GC-SCF    =       3.25785770 e
     the Fermi energy          =      -3.12227538 eV
                        (error :       2.28172462 eV)
     electrostatic embedding   =      -0.80847985 Ry
     cavitation energy         =       0.03350764 Ry
     electrolyte free energy   =      -0.01263589 Ry
     correction to one-el term =     -67.09284695 Ry

     iteration #  9     ecut=    80.00 Ry     beta= 0.20
     Davidson diagonalization with overlap

---- Real-time Memory Report at c_bands before calling an iterative solver
           702 MiB given to the printing process from OS
             0 MiB allocation reported by mallinfo(arena+hblkhd)
        213822 MiB available memory on the node where the printing process lives
------------------
     ethr =  6.07E-06,  avg # of iterations = 25.9

     negative rho (up, down):  1.532E-02 0.000E+00

     add environment contribution to local potential

     total cpu time spent up to now is      659.0 secs

     total energy              =    -541.78551284 Ry
     estimated scf accuracy    <       0.00396757 Ry

     total charge of GC-SCF    =       3.58839363 e
     the Fermi energy          =      -4.12201613 eV
                        (error :       1.28198387 eV)
     electrostatic embedding   =      -1.43222920 Ry
     cavitation energy         =       0.03350764 Ry
     electrolyte free energy   =      -0.02806661 Ry
     correction to one-el term =     -91.55687042 Ry

     iteration # 10     ecut=    80.00 Ry     beta= 0.20
     Davidson diagonalization with overlap

---- Real-time Memory Report at c_bands before calling an iterative solver
           702 MiB given to the printing process from OS
             0 MiB allocation reported by mallinfo(arena+hblkhd)
        213754 MiB available memory on the node where the printing process lives
------------------
     ethr =  3.80E-06,  avg # of iterations = 11.6

     negative rho (up, down):  3.576E-02 0.000E+00

     add environment contribution to local potential

     total cpu time spent up to now is      701.5 secs

     total energy              =    -541.84698136 Ry
     estimated scf accuracy    <       0.00266701 Ry

     total charge of GC-SCF    =       3.81205507 e
     the Fermi energy          =      -4.03753784 eV
                        (error :       1.36646216 eV)
     electrostatic embedding   =      -1.76198447 Ry
     cavitation energy         =       0.03350764 Ry
     electrolyte free energy   =      -0.03332845 Ry
     correction to one-el term =    -101.48079489 Ry

     iteration # 11     ecut=    80.00 Ry     beta= 0.20
     Davidson diagonalization with overlap

---- Real-time Memory Report at c_bands before calling an iterative solver
           702 MiB given to the printing process from OS
             0 MiB allocation reported by mallinfo(arena+hblkhd)
        213744 MiB available memory on the node where the printing process lives
------------------
     ethr =  2.56E-06,  avg # of iterations = 14.4

     negative rho (up, down):  2.519E-02 0.000E+00

     add environment contribution to local potential

     total cpu time spent up to now is      747.2 secs

     total energy              =    -541.89462486 Ry
     estimated scf accuracy    <       0.00191362 Ry

     total charge of GC-SCF    =       3.86445080 e
     the Fermi energy          =      -4.24157156 eV
                        (error :       1.16242844 eV)
     electrostatic embedding   =      -1.98792959 Ry
     cavitation energy         =       0.03350764 Ry
     electrolyte free energy   =      -0.03744822 Ry
     correction to one-el term =    -107.69099351 Ry

     iteration # 12     ecut=    80.00 Ry     beta= 0.20
     Davidson diagonalization with overlap

---- Real-time Memory Report at c_bands before calling an iterative solver
           702 MiB given to the printing process from OS
             0 MiB allocation reported by mallinfo(arena+hblkhd)
        213732 MiB available memory on the node where the printing process lives
------------------
     ethr =  1.84E-06,  avg # of iterations =  9.3

     negative rho (up, down):  1.185E-03 0.000E+00

     add environment contribution to local potential

     total cpu time spent up to now is      783.9 secs

     total energy              =    -541.77499834 Ry
     estimated scf accuracy    <       0.00177392 Ry

     total charge of GC-SCF    =       4.34363022 e
     the Fermi energy          =      -4.26546362 eV
                        (error :       1.13853638 eV)
     electrostatic embedding   =      -2.05212880 Ry
     cavitation energy         =       0.03350764 Ry
     electrolyte free energy   =      -0.03855493 Ry
     correction to one-el term =    -109.53544540 Ry

     iteration # 13     ecut=    80.00 Ry     beta= 0.20
     Davidson diagonalization with overlap

---- Real-time Memory Report at c_bands before calling an iterative solver
           702 MiB given to the printing process from OS
             0 MiB allocation reported by mallinfo(arena+hblkhd)
        213752 MiB available memory on the node where the printing process lives
------------------
     ethr =  1.71E-06,  avg # of iterations = 22.5

     negative rho (up, down):  1.436E-03 0.000E+00

     add environment contribution to local potential

     total cpu time spent up to now is      843.5 secs

     total energy              =    -541.84523592 Ry
     estimated scf accuracy    <       0.00053172 Ry

     total charge of GC-SCF    =       4.60367503 e
     the Fermi energy          =      -4.90550278 eV
                        (error :       0.49849722 eV)
     electrostatic embedding   =      -2.64207820 Ry
     cavitation energy         =       0.03350764 Ry
     electrolyte free energy   =      -0.04887098 Ry
     correction to one-el term =    -124.69607496 Ry

     iteration # 14     ecut=    80.00 Ry     beta= 0.20
     Davidson diagonalization with overlap

---- Real-time Memory Report at c_bands before calling an iterative solver
           702 MiB given to the printing process from OS
             0 MiB allocation reported by mallinfo(arena+hblkhd)
        213749 MiB available memory on the node where the printing process lives
------------------
     ethr =  5.14E-07,  avg # of iterations = 19.2

     negative rho (up, down):  4.550E-03 0.000E+00

     add environment contribution to local potential

     total cpu time spent up to now is      896.2 secs

     total energy              =    -541.86436890 Ry
     estimated scf accuracy    <       0.00045651 Ry

     total charge of GC-SCF    =       4.75664888 e
     the Fermi energy          =      -5.17201035 eV
                        (error :       0.23198965 eV)
     electrostatic embedding   =      -3.02325659 Ry
     cavitation energy         =       0.03350764 Ry
     electrolyte free energy   =      -0.05525008 Ry
     correction to one-el term =    -133.49508938 Ry

     iteration # 15     ecut=    80.00 Ry     beta= 0.20
     Davidson diagonalization with overlap

---- Real-time Memory Report at c_bands before calling an iterative solver
           702 MiB given to the printing process from OS
             0 MiB allocation reported by mallinfo(arena+hblkhd)
        213756 MiB available memory on the node where the printing process lives
------------------
     ethr =  4.42E-07,  avg # of iterations = 13.1

     negative rho (up, down):  3.899E-03 0.000E+00

     add environment contribution to local potential

     total cpu time spent up to now is      944.5 secs

     total energy              =    -541.87210338 Ry
     estimated scf accuracy    <       0.00025366 Ry

     total charge of GC-SCF    =       4.67623751 e
     the Fermi energy          =      -5.30692185 eV
                        (error :       0.09707815 eV)
     electrostatic embedding   =      -3.23737143 Ry
     cavitation energy         =       0.03350764 Ry
     electrolyte free energy   =      -0.05916406 Ry
     correction to one-el term =    -137.94597664 Ry

     iteration # 16     ecut=    80.00 Ry     beta= 0.20
     Davidson diagonalization with overlap

---- Real-time Memory Report at c_bands before calling an iterative solver
           702 MiB given to the printing process from OS
             0 MiB allocation reported by mallinfo(arena+hblkhd)
        213750 MiB available memory on the node where the printing process lives
------------------
     ethr =  2.45E-07,  avg # of iterations = 10.6

     negative rho (up, down):  6.611E-03 0.000E+00

     add environment contribution to local potential

     total cpu time spent up to now is      989.6 secs

     total energy              =    -541.86627262 Ry
     estimated scf accuracy    <       0.00022432 Ry

     total charge of GC-SCF    =       4.84567106 e
     the Fermi energy          =      -5.16366232 eV
                        (error :       0.24033768 eV)
     electrostatic embedding   =      -3.09144836 Ry
     cavitation energy         =       0.03350764 Ry
     electrolyte free energy   =      -0.05689244 Ry
     correction to one-el term =    -134.57040121 Ry

     iteration # 17     ecut=    80.00 Ry     beta= 0.20
     Davidson diagonalization with overlap

---- Real-time Memory Report at c_bands before calling an iterative solver
           702 MiB given to the printing process from OS
             0 MiB allocation reported by mallinfo(arena+hblkhd)
        213738 MiB available memory on the node where the printing process lives
------------------
     ethr =  2.17E-07,  avg # of iterations = 14.5

     negative rho (up, down):  5.663E-03 0.000E+00

     add environment contribution to local potential

     total cpu time spent up to now is     1040.4 secs

     total energy              =    -541.86763397 Ry
     estimated scf accuracy    <       0.00011803 Ry

     total charge of GC-SCF    =       5.05466419 e
     the Fermi energy          =      -5.22669868 eV
                        (error :       0.17730132 eV)
     electrostatic embedding   =      -3.30883948 Ry
     cavitation energy         =       0.03350764 Ry
     electrolyte free energy   =      -0.06126328 Ry
     correction to one-el term =    -138.89928422 Ry

     iteration # 18     ecut=    80.00 Ry     beta= 0.20
     Davidson diagonalization with overlap

---- Real-time Memory Report at c_bands before calling an iterative solver
           702 MiB given to the printing process from OS
             0 MiB allocation reported by mallinfo(arena+hblkhd)
        213712 MiB available memory on the node where the printing process lives
------------------
     ethr =  1.15E-07,  avg # of iterations = 18.8

     negative rho (up, down):  8.901E-04 0.000E+00

     add environment contribution to local potential

     total cpu time spent up to now is     1094.9 secs

     total energy              =    -541.86958277 Ry
     estimated scf accuracy    <       0.00003695 Ry

     total charge of GC-SCF    =       4.96750898 e
     the Fermi energy          =      -5.42751371 eV
                        (error :       0.02351371 eV)
     electrostatic embedding   =      -3.61931996 Ry
     cavitation energy         =       0.03350764 Ry
     electrolyte free energy   =      -0.06725092 Ry
     correction to one-el term =    -145.22711830 Ry

     iteration # 19     ecut=    80.00 Ry     beta= 0.20
     Davidson diagonalization with overlap

---- Real-time Memory Report at c_bands before calling an iterative solver
           702 MiB given to the printing process from OS
             0 MiB allocation reported by mallinfo(arena+hblkhd)
        213722 MiB available memory on the node where the printing process lives
------------------
     ethr =  3.59E-08,  avg # of iterations = 14.7

     negative rho (up, down):  1.536E-03 0.000E+00

     add environment contribution to local potential

     total cpu time spent up to now is     1142.3 secs

     total energy              =    -541.87013946 Ry
     estimated scf accuracy    <       0.00002492 Ry

     total charge of GC-SCF    =       5.03968942 e
     the Fermi energy          =      -5.37041813 eV
                        (error :       0.03358187 eV)
     electrostatic embedding   =      -3.49214050 Ry
     cavitation energy         =       0.03350764 Ry
     electrolyte free energy   =      -0.06472766 Ry
     correction to one-el term =    -142.78231986 Ry

     iteration # 20     ecut=    80.00 Ry     beta= 0.20
     Davidson diagonalization with overlap

---- Real-time Memory Report at c_bands before calling an iterative solver
           702 MiB given to the printing process from OS
             0 MiB allocation reported by mallinfo(arena+hblkhd)
        213704 MiB available memory on the node where the printing process lives
------------------
     ethr =  2.42E-08,  avg # of iterations = 17.0

     negative rho (up, down):  3.020E-03 0.000E+00

     add environment contribution to local potential

     total cpu time spent up to now is     1194.4 secs

     total energy              =    -541.86923025 Ry
     estimated scf accuracy    <       0.00001348 Ry

     total charge of GC-SCF    =       5.01158577 e
     the Fermi energy          =      -5.41893674 eV
                        (error :       0.01493674 eV)
     electrostatic embedding   =      -3.59459278 Ry
     cavitation energy         =       0.03350764 Ry
     electrolyte free energy   =      -0.06679692 Ry
     correction to one-el term =    -144.73297881 Ry

     iteration # 21     ecut=    80.00 Ry     beta= 0.20
     Davidson diagonalization with overlap

---- Real-time Memory Report at c_bands before calling an iterative solver
           702 MiB given to the printing process from OS
             0 MiB allocation reported by mallinfo(arena+hblkhd)
        213710 MiB available memory on the node where the printing process lives
------------------
     ethr =  1.31E-08,  avg # of iterations = 12.0

     negative rho (up, down):  2.549E-03 0.000E+00

     add environment contribution to local potential

     total cpu time spent up to now is     1240.7 secs

     total energy              =    -541.86963999 Ry
     estimated scf accuracy    <       0.00000667 Ry

     total charge of GC-SCF    =       5.03641906 e
     the Fermi energy          =      -5.39440790 eV
                        (error :       0.00959210 eV)
     electrostatic embedding   =      -3.55362475 Ry
     cavitation energy         =       0.03350764 Ry
     electrolyte free energy   =      -0.06597384 Ry
     correction to one-el term =    -143.92853100 Ry

     iteration # 22     ecut=    80.00 Ry     beta= 0.20
     Davidson diagonalization with overlap

---- Real-time Memory Report at c_bands before calling an iterative solver
           702 MiB given to the printing process from OS
             0 MiB allocation reported by mallinfo(arena+hblkhd)
        213727 MiB available memory on the node where the printing process lives
------------------
     ethr =  6.48E-09,  avg # of iterations = 18.1

     negative rho (up, down):  1.142E-03 0.000E+00

     add environment contribution to local potential

     total cpu time spent up to now is     1296.6 secs

     total energy              =    -541.86937611 Ry
     estimated scf accuracy    <       0.00000508 Ry

     total charge of GC-SCF    =       5.03793099 e
     the Fermi energy          =      -5.41107372 eV
                        (error :       0.00707372 eV)
     electrostatic embedding   =      -3.58958522 Ry
     cavitation energy         =       0.03350764 Ry
     electrolyte free energy   =      -0.06669500 Ry
     correction to one-el term =    -144.61640597 Ry

     iteration # 23     ecut=    80.00 Ry     beta= 0.20
     Davidson diagonalization with overlap

---- Real-time Memory Report at c_bands before calling an iterative solver
           702 MiB given to the printing process from OS
             0 MiB allocation reported by mallinfo(arena+hblkhd)
        213717 MiB available memory on the node where the printing process lives
------------------
     ethr =  4.93E-09,  avg # of iterations = 12.6

     negative rho (up, down):  9.600E-04 0.000E+00

     add environment contribution to local potential

     total cpu time spent up to now is     1343.2 secs

     total energy              =    -541.86936648 Ry
     estimated scf accuracy    <       0.00000266 Ry

     total charge of GC-SCF    =       5.04010812 e
     the Fermi energy          =      -5.41399580 eV
                        (error :       0.00999580 eV)
     electrostatic embedding   =      -3.59144301 Ry
     cavitation energy         =       0.03350764 Ry
     electrolyte free energy   =      -0.06673937 Ry
     correction to one-el term =    -144.64768261 Ry

     iteration # 24     ecut=    80.00 Ry     beta= 0.20
     Davidson diagonalization with overlap

---- Real-time Memory Report at c_bands before calling an iterative solver
           702 MiB given to the printing process from OS
             0 MiB allocation reported by mallinfo(arena+hblkhd)
        213649 MiB available memory on the node where the printing process lives
------------------
     ethr =  2.58E-09,  avg # of iterations = 10.3

     negative rho (up, down):  9.950E-04 0.000E+00

     add environment contribution to local potential

     total cpu time spent up to now is     1385.0 secs

     total energy              =    -541.86928181 Ry
     estimated scf accuracy    <       0.00000199 Ry

     total charge of GC-SCF    =       5.02705829 e
     the Fermi energy          =      -5.41868237 eV
                        (error :       0.01468237 eV)
     electrostatic embedding   =      -3.59449817 Ry
     cavitation energy         =       0.03350764 Ry
     electrolyte free energy   =      -0.06680409 Ry
     correction to one-el term =    -144.70683258 Ry

     iteration # 25     ecut=    80.00 Ry     beta= 0.20
     Davidson diagonalization with overlap

---- Real-time Memory Report at c_bands before calling an iterative solver
           702 MiB given to the printing process from OS
             0 MiB allocation reported by mallinfo(arena+hblkhd)
        213676 MiB available memory on the node where the printing process lives
------------------
     ethr =  1.94E-09,  avg # of iterations = 16.5

     negative rho (up, down):  9.927E-04 0.000E+00

     add environment contribution to local potential

     total cpu time spent up to now is     1437.2 secs

     total energy              =    -541.86944994 Ry
     estimated scf accuracy    <       0.00000077 Ry

     total charge of GC-SCF    =       5.01876762 e
     the Fermi energy          =      -5.41005410 eV
                        (error :       0.00605410 eV)
     electrostatic embedding   =      -3.57552747 Ry
     cavitation energy         =       0.03350764 Ry
     electrolyte free energy   =      -0.06642464 Ry
     correction to one-el term =    -144.34593646 Ry

     iteration # 26     ecut=    80.00 Ry     beta= 0.20
     Davidson diagonalization with overlap

---- Real-time Memory Report at c_bands before calling an iterative solver
           702 MiB given to the printing process from OS
             0 MiB allocation reported by mallinfo(arena+hblkhd)
        213643 MiB available memory on the node where the printing process lives
------------------
     ethr =  7.45E-10,  avg # of iterations = 17.6

     negative rho (up, down):  5.601E-04 0.000E+00

     add environment contribution to local potential

     total cpu time spent up to now is     1486.8 secs

     total energy              =    -541.86955794 Ry
     estimated scf accuracy    <       0.00000050 Ry

     total charge of GC-SCF    =       5.01851024 e
     the Fermi energy          =      -5.40397090 eV
                        (error :       0.00002910 eV)
     electrostatic embedding   =      -3.56348264 Ry
     cavitation energy         =       0.03350764 Ry
     electrolyte free energy   =      -0.06618400 Ry
     correction to one-el term =    -144.11490481 Ry

     iteration # 27     ecut=    80.00 Ry     beta= 0.20
     Davidson diagonalization with overlap

---- Real-time Memory Report at c_bands before calling an iterative solver
           702 MiB given to the printing process from OS
             0 MiB allocation reported by mallinfo(arena+hblkhd)
        213651 MiB available memory on the node where the printing process lives
------------------
     ethr =  4.84E-10,  avg # of iterations = 13.3

     negative rho (up, down):  4.871E-04 0.000E+00

     add environment contribution to local potential

     total cpu time spent up to now is     1535.2 secs

     total energy              =    -541.86957079 Ry
     estimated scf accuracy    <       0.00000023 Ry

     total charge of GC-SCF    =       5.01558044 e
     the Fermi energy          =      -5.40300740 eV
                        (error :       0.00099260 eV)
     electrostatic embedding   =      -3.56372791 Ry
     cavitation energy         =       0.03350764 Ry
     electrolyte free energy   =      -0.06617805 Ry
     correction to one-el term =    -144.11755463 Ry

     iteration # 28     ecut=    80.00 Ry     beta= 0.20
     Davidson diagonalization with overlap

---- Real-time Memory Report at c_bands before calling an iterative solver
           702 MiB given to the printing process from OS
             0 MiB allocation reported by mallinfo(arena+hblkhd)
        213635 MiB available memory on the node where the printing process lives
------------------
     ethr =  2.19E-10,  avg # of iterations = 20.2

     negative rho (up, down):  4.809E-04 0.000E+00

     add environment contribution to local potential

     total cpu time spent up to now is     1590.1 secs

     total energy              =    -541.86959898 Ry
     estimated scf accuracy    <       0.00000013 Ry

     total charge of GC-SCF    =       5.01392033 e
     the Fermi energy          =      -5.40143214 eV
                        (error :       0.00256786 eV)
     electrostatic embedding   =      -3.55991228 Ry
     cavitation energy         =       0.03350764 Ry
     electrolyte free energy   =      -0.06609451 Ry
     correction to one-el term =    -144.04348472 Ry

     iteration # 29     ecut=    80.00 Ry     beta= 0.20
     Davidson diagonalization with overlap

---- Real-time Memory Report at c_bands before calling an iterative solver
           702 MiB given to the printing process from OS
             0 MiB allocation reported by mallinfo(arena+hblkhd)
        213621 MiB available memory on the node where the printing process lives
------------------
     ethr =  1.29E-10,  avg # of iterations = 11.8

     negative rho (up, down):  4.823E-04 0.000E+00

     add environment contribution to local potential

     total cpu time spent up to now is     1634.6 secs

     total energy              =    -541.86961592 Ry
     estimated scf accuracy    <       0.00000010 Ry

     total charge of GC-SCF    =       5.01409564 e
     the Fermi energy          =      -5.40037745 eV
                        (error :       0.00362255 eV)
     electrostatic embedding   =      -3.55753000 Ry
     cavitation energy         =       0.03350764 Ry
     electrolyte free energy   =      -0.06604661 Ry
     correction to one-el term =    -143.99791051 Ry

     iteration # 30     ecut=    80.00 Ry     beta= 0.20
     Davidson diagonalization with overlap

---- Real-time Memory Report at c_bands before calling an iterative solver
           702 MiB given to the printing process from OS
             0 MiB allocation reported by mallinfo(arena+hblkhd)
        213627 MiB available memory on the node where the printing process lives
------------------
     ethr =  9.99E-11,  avg # of iterations = 12.7

     negative rho (up, down):  5.203E-04 0.000E+00

     add environment contribution to local potential

     total cpu time spent up to now is     1679.0 secs

     total energy              =    -541.86961287 Ry
     estimated scf accuracy    <       0.00000008 Ry

     total charge of GC-SCF    =       5.01745236 e
     the Fermi energy          =      -5.40044613 eV
                        (error :       0.00355387 eV)
     electrostatic embedding   =      -3.55769276 Ry
     cavitation energy         =       0.03350764 Ry
     electrolyte free energy   =      -0.06605151 Ry
     correction to one-el term =    -144.00142074 Ry

     iteration # 31     ecut=    80.00 Ry     beta= 0.20
     Davidson diagonalization with overlap

---- Real-time Memory Report at c_bands before calling an iterative solver
           702 MiB given to the printing process from OS
             0 MiB allocation reported by mallinfo(arena+hblkhd)
        213585 MiB available memory on the node where the printing process lives
------------------
     ethr =  7.63E-11,  avg # of iterations = 19.9

     negative rho (up, down):  5.287E-04 0.000E+00

     add environment contribution to local potential

     total cpu time spent up to now is     1735.2 secs

     total energy              =    -541.86957721 Ry
     estimated scf accuracy    <       0.00000002 Ry

     total charge of GC-SCF    =       5.01814952 e
     the Fermi energy          =      -5.40272688 eV
                        (error :       0.00127312 eV)
     electrostatic embedding   =      -3.56229906 Ry
     cavitation energy         =       0.03350764 Ry
     electrolyte free energy   =      -0.06614786 Ry
     correction to one-el term =    -144.08969015 Ry

     iteration # 32     ecut=    80.00 Ry     beta= 0.20
     Davidson diagonalization with overlap

---- Real-time Memory Report at c_bands before calling an iterative solver
           702 MiB given to the printing process from OS
             0 MiB allocation reported by mallinfo(arena+hblkhd)
        213593 MiB available memory on the node where the printing process lives
------------------
     ethr =  1.91E-11,  avg # of iterations = 12.0

     negative rho (up, down):  5.244E-04 0.000E+00

     add environment contribution to local potential

     total cpu time spent up to now is     1781.0 secs

     total energy              =    -541.86956894 Ry
     estimated scf accuracy    <       0.00000001 Ry

     total charge of GC-SCF    =       5.01966278 e
     the Fermi energy          =      -5.40318377 eV
                        (error :       0.00081623 eV)
     electrostatic embedding   =      -3.56330011 Ry
     cavitation energy         =       0.03350764 Ry
     electrolyte free energy   =      -0.06616801 Ry
     correction to one-el term =    -144.10900802 Ry

     iteration # 33     ecut=    80.00 Ry     beta= 0.20
     Davidson diagonalization with overlap

---- Real-time Memory Report at c_bands before calling an iterative solver
           702 MiB given to the printing process from OS
             0 MiB allocation reported by mallinfo(arena+hblkhd)
        213568 MiB available memory on the node where the printing process lives
------------------
     ethr =  1.27E-11,  avg # of iterations = 17.1

     negative rho (up, down):  5.192E-04 0.000E+00

     add environment contribution to local potential

     total cpu time spent up to now is     1830.9 secs

     total energy              =    -541.86954935 Ry
     estimated scf accuracy    <          4.2E-09 Ry

     total charge of GC-SCF    =       5.01975055 e
     the Fermi energy          =      -5.40427260 eV
                        (error :       0.00027260 eV)
     electrostatic embedding   =      -3.56563591 Ry
     cavitation energy         =       0.03350764 Ry
     electrolyte free energy   =      -0.06621236 Ry
     correction to one-el term =    -144.15473236 Ry

     iteration # 34     ecut=    80.00 Ry     beta= 0.20
     Davidson diagonalization with overlap

---- Real-time Memory Report at c_bands before calling an iterative solver
           702 MiB given to the printing process from OS
             0 MiB allocation reported by mallinfo(arena+hblkhd)
        213558 MiB available memory on the node where the printing process lives
------------------
     ethr =  4.03E-12,  avg # of iterations = 11.7

     negative rho (up, down):  5.110E-04 0.000E+00

     add environment contribution to local potential

     total cpu time spent up to now is     1873.5 secs

     total energy              =    -541.86954677 Ry
     estimated scf accuracy    <          3.1E-09 Ry

     total charge of GC-SCF    =       5.01943835 e
     the Fermi energy          =      -5.40445148 eV
                        (error :       0.00045148 eV)
     electrostatic embedding   =      -3.56579822 Ry
     cavitation energy         =       0.03350764 Ry
     electrolyte free energy   =      -0.06621509 Ry
     correction to one-el term =    -144.15820110 Ry

     iteration # 35     ecut=    80.00 Ry     beta= 0.20
     Davidson diagonalization with overlap

---- Real-time Memory Report at c_bands before calling an iterative solver
           702 MiB given to the printing process from OS
             0 MiB allocation reported by mallinfo(arena+hblkhd)
        213558 MiB available memory on the node where the printing process lives
------------------
     ethr =  2.99E-12,  avg # of iterations = 13.4

     negative rho (up, down):  5.093E-04 0.000E+00

     add environment contribution to local potential

     total cpu time spent up to now is     1920.5 secs

     total energy              =    -541.86954860 Ry
     estimated scf accuracy    <          1.7E-09 Ry

     total charge of GC-SCF    =       5.01942621 e
     the Fermi energy          =      -5.40435915 eV
                        (error :       0.00035915 eV)
     electrostatic embedding   =      -3.56537129 Ry
     cavitation energy         =       0.03350764 Ry
     electrolyte free energy   =      -0.06620621 Ry
     correction to one-el term =    -144.15036768 Ry

     iteration # 36     ecut=    80.00 Ry     beta= 0.20
     Davidson diagonalization with overlap

---- Real-time Memory Report at c_bands before calling an iterative solver
           702 MiB given to the printing process from OS
             0 MiB allocation reported by mallinfo(arena+hblkhd)
        213566 MiB available memory on the node where the printing process lives
------------------
     ethr =  1.61E-12,  avg # of iterations =  8.6

     negative rho (up, down):  5.062E-04 0.000E+00

     add environment contribution to local potential

     total cpu time spent up to now is     1957.6 secs

     total energy              =    -541.86954795 Ry
     estimated scf accuracy    <          1.0E-09 Ry

     total charge of GC-SCF    =       5.01908878 e
     the Fermi energy          =      -5.40440728 eV
                        (error :       0.00040728 eV)
     electrostatic embedding   =      -3.56535748 Ry
     cavitation energy         =       0.03350764 Ry
     electrolyte free energy   =      -0.06620589 Ry
     correction to one-el term =    -144.15022314 Ry

     iteration # 37     ecut=    80.00 Ry     beta= 0.20
     Davidson diagonalization with overlap

---- Real-time Memory Report at c_bands before calling an iterative solver
           702 MiB given to the printing process from OS
             0 MiB allocation reported by mallinfo(arena+hblkhd)
        213513 MiB available memory on the node where the printing process lives
------------------
     ethr =  1.01E-12,  avg # of iterations = 17.1

     negative rho (up, down):  5.073E-04 0.000E+00

     add environment contribution to local potential

     total cpu time spent up to now is     2010.3 secs

     total energy              =    -541.86955119 Ry
     estimated scf accuracy    <          3.4E-10 Ry

     total charge of GC-SCF    =       5.01896543 e
     the Fermi energy          =      -5.40424214 eV
                        (error :       0.00024214 eV)
     electrostatic embedding   =      -3.56487142 Ry
     cavitation energy         =       0.03350764 Ry
     electrolyte free energy   =      -0.06619613 Ry
     correction to one-el term =    -144.14092784 Ry

     iteration # 38     ecut=    80.00 Ry     beta= 0.20
     Davidson diagonalization with overlap

---- Real-time Memory Report at c_bands before calling an iterative solver
           702 MiB given to the printing process from OS
             0 MiB allocation reported by mallinfo(arena+hblkhd)
        213493 MiB available memory on the node where the printing process lives
------------------
     ethr =  3.34E-13,  avg # of iterations = 12.0

     negative rho (up, down):  5.101E-04 0.000E+00

     add environment contribution to local potential

     total cpu time spent up to now is     2056.7 secs

     total energy              =    -541.86955300 Ry
     estimated scf accuracy    <          2.3E-10 Ry

     total charge of GC-SCF    =       5.01881407 e
     the Fermi energy          =      -5.40412816 eV
                        (error :       0.00012816 eV)
     electrostatic embedding   =      -3.56468402 Ry
     cavitation energy         =       0.03350764 Ry
     electrolyte free energy   =      -0.06619252 Ry
     correction to one-el term =    -144.13727554 Ry

     iteration # 39     ecut=    80.00 Ry     beta= 0.20
     Davidson diagonalization with overlap

---- Real-time Memory Report at c_bands before calling an iterative solver
           702 MiB given to the printing process from OS
             0 MiB allocation reported by mallinfo(arena+hblkhd)
        213522 MiB available memory on the node where the printing process lives
------------------
     ethr =  2.21E-13,  avg # of iterations = 15.6

     negative rho (up, down):  5.109E-04 0.000E+00

     add environment contribution to local potential

     total cpu time spent up to now is     2107.1 secs

     total energy              =    -541.86955521 Ry
     estimated scf accuracy    <          5.8E-11 Ry

     total charge of GC-SCF    =       5.01881047 e
     the Fermi energy          =      -5.40399264 eV
                        (error :       0.00000736 eV)
     electrostatic embedding   =      -3.56444780 Ry
     cavitation energy         =       0.03350764 Ry
     electrolyte free energy   =      -0.06618805 Ry
     correction to one-el term =    -144.13263162 Ry

     iteration # 40     ecut=    80.00 Ry     beta= 0.20
     Davidson diagonalization with overlap

---- Real-time Memory Report at c_bands before calling an iterative solver
           702 MiB given to the printing process from OS
             0 MiB allocation reported by mallinfo(arena+hblkhd)
        213475 MiB available memory on the node where the printing process lives
------------------
     ethr =  1.00E-13,  avg # of iterations =  9.9

     negative rho (up, down):  5.096E-04 0.000E+00

     add environment contribution to local potential

     total cpu time spent up to now is     2145.9 secs

     total energy              =    -541.86955540 Ry
     estimated scf accuracy    <          3.7E-11 Ry

     total charge of GC-SCF    =       5.01883971 e
     the Fermi energy          =      -5.40397909 eV
                        (error :       0.00002091 eV)
     electrostatic embedding   =      -3.56443879 Ry
     cavitation energy         =       0.03350764 Ry
     electrolyte free energy   =      -0.06618793 Ry
     correction to one-el term =    -144.13242311 Ry

     iteration # 41     ecut=    80.00 Ry     beta= 0.20
     Davidson diagonalization with overlap

---- Real-time Memory Report at c_bands before calling an iterative solver
           702 MiB given to the printing process from OS
             0 MiB allocation reported by mallinfo(arena+hblkhd)
        213482 MiB available memory on the node where the printing process lives
------------------
     ethr =  1.00E-13,  avg # of iterations = 11.1

     negative rho (up, down):  5.090E-04 0.000E+00

     add environment contribution to local potential

     total cpu time spent up to now is     2189.1 secs

     total energy              =    -541.86955515 Ry
     estimated scf accuracy    <          2.1E-11 Ry

     total charge of GC-SCF    =       5.01883886 e
     the Fermi energy          =      -5.40399369 eV
                        (error :       0.00000631 eV)
     electrostatic embedding   =      -3.56448731 Ry
     cavitation energy         =       0.03350764 Ry
     electrolyte free energy   =      -0.06618879 Ry
     correction to one-el term =    -144.13334051 Ry

     iteration # 42     ecut=    80.00 Ry     beta= 0.20
     Davidson diagonalization with overlap

---- Real-time Memory Report at c_bands before calling an iterative solver
           702 MiB given to the printing process from OS
             0 MiB allocation reported by mallinfo(arena+hblkhd)
        213486 MiB available memory on the node where the printing process lives
------------------
     ethr =  1.00E-13,  avg # of iterations =  5.8

     negative rho (up, down):  5.093E-04 0.000E+00

     add environment contribution to local potential

     total cpu time spent up to now is     2223.1 secs

     total energy              =    -541.86955530 Ry
     estimated scf accuracy    <          1.4E-11 Ry

     total charge of GC-SCF    =       5.01885672 e
     the Fermi energy          =      -5.40398568 eV
                        (error :       0.00001432 eV)
     electrostatic embedding   =      -3.56448630 Ry
     cavitation energy         =       0.03350764 Ry
     electrolyte free energy   =      -0.06618877 Ry
     correction to one-el term =    -144.13329941 Ry

     iteration # 43     ecut=    80.00 Ry     beta= 0.20
     Davidson diagonalization with overlap

---- Real-time Memory Report at c_bands before calling an iterative solver
           702 MiB given to the printing process from OS
             0 MiB allocation reported by mallinfo(arena+hblkhd)
        213447 MiB available memory on the node where the printing process lives
------------------
     ethr =  1.00E-13,  avg # of iterations = 10.7

     negative rho (up, down):  5.092E-04 0.000E+00

     add environment contribution to local potential

     total cpu time spent up to now is     2263.7 secs

     total energy              =    -541.86955505 Ry
     estimated scf accuracy    <          9.0E-12 Ry

     total charge of GC-SCF    =       5.01885929 e
     the Fermi energy          =      -5.40400069 eV
                        (error :       0.00000069 eV)
     electrostatic embedding   =      -3.56451070 Ry
     cavitation energy         =       0.03350764 Ry
     electrolyte free energy   =      -0.06618928 Ry
     correction to one-el term =    -144.13378373 Ry

     iteration # 44     ecut=    80.00 Ry     beta= 0.20
     Davidson diagonalization with overlap

---- Real-time Memory Report at c_bands before calling an iterative solver
           702 MiB given to the printing process from OS
             0 MiB allocation reported by mallinfo(arena+hblkhd)
        213478 MiB available memory on the node where the printing process lives
------------------
     ethr =  1.00E-13,  avg # of iterations =  5.1

     negative rho (up, down):  5.094E-04 0.000E+00

     add environment contribution to local potential

     total cpu time spent up to now is     2296.1 secs

     total energy              =    -541.86955497 Ry
     estimated scf accuracy    <          7.1E-12 Ry

     total charge of GC-SCF    =       5.01884707 e
     the Fermi energy          =      -5.40400500 eV
                        (error :       0.00000500 eV)
     electrostatic embedding   =      -3.56451466 Ry
     cavitation energy         =       0.03350764 Ry
     electrolyte free energy   =      -0.06618936 Ry
     correction to one-el term =    -144.13387029 Ry

     iteration # 45     ecut=    80.00 Ry     beta= 0.20
     Davidson diagonalization with overlap

---- Real-time Memory Report at c_bands before calling an iterative solver
           702 MiB given to the printing process from OS
             0 MiB allocation reported by mallinfo(arena+hblkhd)
        213465 MiB available memory on the node where the printing process lives
------------------
     ethr =  1.00E-13,  avg # of iterations =  7.2

     negative rho (up, down):  5.094E-04 0.000E+00

     add environment contribution to local potential

     total cpu time spent up to now is     2332.0 secs

     total energy              =    -541.86955513 Ry
     estimated scf accuracy    <          2.9E-12 Ry

     total charge of GC-SCF    =       5.01884685 e
     the Fermi energy          =      -5.40399293 eV
                        (error :       0.00000707 eV)
     electrostatic embedding   =      -3.56449707 Ry
     cavitation energy         =       0.03350764 Ry
     electrolyte free energy   =      -0.06618900 Ry
     correction to one-el term =    -144.13352879 Ry

     iteration # 46     ecut=    80.00 Ry     beta= 0.20
     Davidson diagonalization with overlap

---- Real-time Memory Report at c_bands before calling an iterative solver
           702 MiB given to the printing process from OS
             0 MiB allocation reported by mallinfo(arena+hblkhd)
        213472 MiB available memory on the node where the printing process lives
------------------
     ethr =  1.00E-13,  avg # of iterations =  2.9

     negative rho (up, down):  5.093E-04 0.000E+00

     add environment contribution to local potential

     total cpu time spent up to now is     2361.9 secs

     total energy              =    -541.86955516 Ry
     estimated scf accuracy    <          2.5E-12 Ry

     total charge of GC-SCF    =       5.01885676 e
     the Fermi energy          =      -5.40399069 eV
                        (error :       0.00000931 eV)
     electrostatic embedding   =      -3.56449645 Ry
     cavitation energy         =       0.03350764 Ry
     electrolyte free energy   =      -0.06618900 Ry
     correction to one-el term =    -144.13351219 Ry

     iteration # 47     ecut=    80.00 Ry     beta= 0.20
     Davidson diagonalization with overlap

---- Real-time Memory Report at c_bands before calling an iterative solver
           702 MiB given to the printing process from OS
             0 MiB allocation reported by mallinfo(arena+hblkhd)
        213473 MiB available memory on the node where the printing process lives
------------------
     ethr =  1.00E-13,  avg # of iterations =  4.3

     negative rho (up, down):  5.092E-04 0.000E+00

     add environment contribution to local potential

     total cpu time spent up to now is     2393.6 secs

     total energy              =    -541.86955503 Ry
     estimated scf accuracy    <          1.7E-12 Ry

     total charge of GC-SCF    =       5.01885341 e
     the Fermi energy          =      -5.40399816 eV
                        (error :       0.00000184 eV)
     electrostatic embedding   =      -3.56451145 Ry
     cavitation energy         =       0.03350764 Ry
     electrolyte free energy   =      -0.06618929 Ry
     correction to one-el term =    -144.13380631 Ry

     iteration # 48     ecut=    80.00 Ry     beta= 0.20
     Davidson diagonalization with overlap

---- Real-time Memory Report at c_bands before calling an iterative solver
           702 MiB given to the printing process from OS
             0 MiB allocation reported by mallinfo(arena+hblkhd)
        213445 MiB available memory on the node where the printing process lives
------------------
     ethr =  1.00E-13,  avg # of iterations =  3.2

     negative rho (up, down):  5.092E-04 0.000E+00

     add environment contribution to local potential

     total cpu time spent up to now is     2423.8 secs

     total energy              =    -541.86955506 Ry
     estimated scf accuracy    <          1.2E-12 Ry

     total charge of GC-SCF    =       5.01884959 e
     the Fermi energy          =      -5.40399702 eV
                        (error :       0.00000298 eV)
     electrostatic embedding   =      -3.56450698 Ry
     cavitation energy         =       0.03350764 Ry
     electrolyte free energy   =      -0.06618919 Ry
     correction to one-el term =    -144.13372264 Ry

     iteration # 49     ecut=    80.00 Ry     beta= 0.20
     Davidson diagonalization with overlap

---- Real-time Memory Report at c_bands before calling an iterative solver
           702 MiB given to the printing process from OS
             0 MiB allocation reported by mallinfo(arena+hblkhd)
        213480 MiB available memory on the node where the printing process lives
------------------
     ethr =  1.00E-13,  avg # of iterations =  4.2

     negative rho (up, down):  5.092E-04 0.000E+00

     add environment contribution to local potential

     total cpu time spent up to now is     2455.0 secs

     total energy              =    -541.86955509 Ry
     estimated scf accuracy    <          8.2E-13 Ry

     total charge of GC-SCF    =       5.01885200 e
     the Fermi energy          =      -5.40399528 eV
                        (error :       0.00000472 eV)
     electrostatic embedding   =      -3.56450109 Ry
     cavitation energy         =       0.03350764 Ry
     electrolyte free energy   =      -0.06618908 Ry
     correction to one-el term =    -144.13361078 Ry

     iteration # 50     ecut=    80.00 Ry     beta= 0.20
     Davidson diagonalization with overlap

---- Real-time Memory Report at c_bands before calling an iterative solver
           702 MiB given to the printing process from OS
             0 MiB allocation reported by mallinfo(arena+hblkhd)
        213485 MiB available memory on the node where the printing process lives
------------------
     ethr =  1.00E-13,  avg # of iterations =  2.1

     negative rho (up, down):  5.091E-04 0.000E+00

     add environment contribution to local potential

     total cpu time spent up to now is     2484.2 secs

     total energy              =    -541.86955505 Ry
     estimated scf accuracy    <          4.9E-13 Ry

     total charge of GC-SCF    =       5.01885776 e
     the Fermi energy          =      -5.40399767 eV
                        (error :       0.00000233 eV)
     electrostatic embedding   =      -3.56450458 Ry
     cavitation energy         =       0.03350764 Ry
     electrolyte free energy   =      -0.06618915 Ry
     correction to one-el term =    -144.13367911 Ry

     iteration # 51     ecut=    80.00 Ry     beta= 0.20
     Davidson diagonalization with overlap

---- Real-time Memory Report at c_bands before calling an iterative solver
           702 MiB given to the printing process from OS
             0 MiB allocation reported by mallinfo(arena+hblkhd)
        213495 MiB available memory on the node where the printing process lives
------------------
     ethr =  1.00E-13,  avg # of iterations =  2.7

     negative rho (up, down):  5.091E-04 0.000E+00

     add environment contribution to local potential

     total cpu time spent up to now is     2513.8 secs

     total energy              =    -541.86955498 Ry
     estimated scf accuracy    <          2.3E-13 Ry

     total charge of GC-SCF    =       5.01885519 e
     the Fermi energy          =      -5.40400219 eV
                        (error :       0.00000219 eV)
     electrostatic embedding   =      -3.56451307 Ry
     cavitation energy         =       0.03350764 Ry
     electrolyte free energy   =      -0.06618932 Ry
     correction to one-el term =    -144.13384374 Ry

     iteration # 52     ecut=    80.00 Ry     beta= 0.20
     Davidson diagonalization with overlap

---- Real-time Memory Report at c_bands before calling an iterative solver
           702 MiB given to the printing process from OS
             0 MiB allocation reported by mallinfo(arena+hblkhd)
        213465 MiB available memory on the node where the printing process lives
------------------
     ethr =  1.00E-13,  avg # of iterations =  1.0

     negative rho (up, down):  5.092E-04 0.000E+00

     add environment contribution to local potential

     total cpu time spent up to now is     2542.4 secs

     total energy              =    -541.86955501 Ry
     estimated scf accuracy    <          7.4E-14 Ry

     total charge of GC-SCF    =       5.01885393 e
     the Fermi energy          =      -5.40400070 eV
                        (error :       0.00000070 eV)
     electrostatic embedding   =      -3.56450923 Ry
     cavitation energy         =       0.03350764 Ry
     electrolyte free energy   =      -0.06618924 Ry
     correction to one-el term =    -144.13376941 Ry

     iteration # 53     ecut=    80.00 Ry     beta= 0.20
     Davidson diagonalization with overlap

---- Real-time Memory Report at c_bands before calling an iterative solver
           702 MiB given to the printing process from OS
             0 MiB allocation reported by mallinfo(arena+hblkhd)
        213425 MiB available memory on the node where the printing process lives
------------------
     ethr =  1.00E-13,  avg # of iterations =  2.7

     negative rho (up, down):  5.092E-04 0.000E+00

     add environment contribution to local potential

     total cpu time spent up to now is     2572.1 secs

     total energy              =    -541.86955502 Ry
     estimated scf accuracy    <          2.6E-14 Ry

     total charge of GC-SCF    =       5.01885401 e
     the Fermi energy          =      -5.40399956 eV
                        (error :       0.00000044 eV)
     electrostatic embedding   =      -3.56450709 Ry
     cavitation energy         =       0.03350764 Ry
     electrolyte free energy   =      -0.06618920 Ry
     correction to one-el term =    -144.13372839 Ry

     iteration # 54     ecut=    80.00 Ry     beta= 0.20
     Davidson diagonalization with overlap

---- Real-time Memory Report at c_bands before calling an iterative solver
           702 MiB given to the printing process from OS
             0 MiB allocation reported by mallinfo(arena+hblkhd)
        213434 MiB available memory on the node where the printing process lives
------------------
     ethr =  1.00E-13,  avg # of iterations =  1.0

     negative rho (up, down):  5.092E-04 0.000E+00

     add environment contribution to local potential

     total cpu time spent up to now is     2600.6 secs

     total energy              =    -541.86955502 Ry
     estimated scf accuracy    <          1.9E-14 Ry

     total charge of GC-SCF    =       5.01885445 e
     the Fermi energy          =      -5.40399958 eV
                        (error :       0.00000042 eV)
     electrostatic embedding   =      -3.56450722 Ry
     cavitation energy         =       0.03350764 Ry
     electrolyte free energy   =      -0.06618921 Ry
     correction to one-el term =    -144.13373117 Ry

     iteration # 55     ecut=    80.00 Ry     beta= 0.20
     Davidson diagonalization with overlap

---- Real-time Memory Report at c_bands before calling an iterative solver
           702 MiB given to the printing process from OS
             0 MiB allocation reported by mallinfo(arena+hblkhd)
        213433 MiB available memory on the node where the printing process lives
------------------
     ethr =  1.00E-13,  avg # of iterations =  1.0

     negative rho (up, down):  5.092E-04 0.000E+00

     add environment contribution to local potential

     total cpu time spent up to now is     2629.1 secs

     total energy              =    -541.86955502 Ry
     estimated scf accuracy    <          1.0E-14 Ry

[...]
     atom    5 type  1   force =    -0.00007096    0.01295901    0.01131263
     atom    6 type  1   force =    -0.00005881    0.00477291    0.00310492
     atom    7 type  1   force =    -0.00000965    0.00414283   -0.00651333
     atom    8 type  1   force =     0.00005534    0.00093616    0.02390964
     atom    9 type  1   force =     0.00000637   -0.00772014    0.07375596
     atom   10 type  1   force =    -0.00005634   -0.00093190   -0.02393120
     atom   11 type  1   force =     0.00000893   -0.00414185    0.00651595
     atom   12 type  1   force =     0.00005730   -0.00477155   -0.00310830
     atom   13 type  1   force =     0.00007112   -0.01295915   -0.01131189
     atom   14 type  1   force =    -0.00003959    0.01087094    0.01061885
     atom   15 type  1   force =    -0.00002510   -0.01130303   -0.00175353
     atom   16 type  1   force =     0.00003270    0.00399742    0.07138694
     atom   17 type  1   force =    -0.00000373    0.00068199   -0.04387248
     atom   18 type  1   force =    -0.00000650    0.00771965   -0.07375694
     atom   19 type  1   force =     0.00000409   -0.00068220    0.04387109
     atom   20 type  1   force =    -0.00003259   -0.00399672   -0.07138885
     atom   21 type  1   force =     0.00002491    0.01130290    0.00175644
     atom   22 type  1   force =     0.00004070   -0.01087249   -0.01061926
     atom   23 type  1   force =    -0.00007189    0.01295848    0.01131201
     atom   24 type  1   force =    -0.00005725    0.00477219    0.00310888
     atom   25 type  1   force =    -0.00000911    0.00414167   -0.00651460
     atom   26 type  1   force =     0.00005672    0.00093075    0.02393220
     atom   27 type  1   force =     0.00001162   -0.00771381    0.07376104
     atom   28 type  1   force =    -0.00005579   -0.00093569   -0.02391145
     atom   29 type  1   force =     0.00000983   -0.00414376    0.00651511
     atom   30 type  1   force =     0.00005874   -0.00477257   -0.00310507
     atom   31 type  1   force =     0.00007171   -0.01295819   -0.01131232
     atom   32 type  1   force =    -0.00004001    0.01087151    0.01062047
     atom   33 type  1   force =    -0.00001954   -0.01130093   -0.00175652
     atom   34 type  1   force =     0.00003433    0.00398920    0.07138374
     atom   35 type  1   force =     0.00000484    0.00068234   -0.04387221
     atom   36 type  1   force =    -0.00001148    0.00771456   -0.07376138
     The ionic contribution  to forces
     atom    1 type  1   force =    -0.00014224   -0.03214004   10.95521428
     atom    2 type  1   force =    -0.00016946   -0.09463092  -10.30779612
     atom    3 type  1   force =     0.00017175    0.11767510   -6.28611338
     atom    4 type  1   force =     0.00021638   -0.16618077   -5.75207878
     atom    5 type  1   force =    -0.00034485    0.17741119   -1.62907901
     atom    6 type  1   force =    -0.00087176   -0.09243260   -0.25759489
     atom    7 type  1   force =     0.00007164    0.02424151    3.72824585
     atom    8 type  1   force =     0.00017206    0.04513410    7.07658383
     atom    9 type  1   force =    -0.00009636   -0.11204799    8.73417452
     atom   10 type  1   force =    -0.00023128   -0.04510219   -7.07671402
     atom   11 type  1   force =    -0.00012932   -0.02419341   -3.72849710
     atom   12 type  1   force =     0.00080462    0.09245235    0.25754980
     atom   13 type  1   force =     0.00034633   -0.17741377    1.62907915
     atom   14 type  1   force =    -0.00022650    0.16618609    5.75206300
     atom   15 type  1   force =    -0.00031161   -0.11768254    6.28615222
     atom   16 type  1   force =     0.00010351    0.09475435   10.30767278
     atom   17 type  1   force =    -0.00002190    0.03213251  -10.95525345
     atom   18 type  1   force =     0.00009205    0.11204318   -8.73421960
     atom   19 type  1   force =     0.00002683   -0.03214012   10.95524089
     atom   20 type  1   force =    -0.00010409   -0.09473576  -10.30768850
     atom   21 type  1   force =     0.00031042    0.11767769   -6.28608721
     atom   22 type  1   force =     0.00030784   -0.16619282   -5.75199679
     atom   23 type  1   force =    -0.00037794    0.17739908   -1.62916001
     atom   24 type  1   force =    -0.00080030   -0.09244071   -0.25756615
     atom   25 type  1   force =     0.00012571    0.02420705    3.72848861
     atom   26 type  1   force =     0.00023853    0.04508905    7.07674454
     atom   27 type  1   force =    -0.00003870   -0.11197372    8.73423830
     atom   28 type  1   force =    -0.00018050   -0.04513055   -7.07659936
     atom   29 type  1   force =    -0.00006833   -0.02425457   -3.72828156
     atom   30 type  1   force =     0.00086727    0.09243579    0.25765888
     atom   31 type  1   force =     0.00037642   -0.17739537    1.62917766
     atom   32 type  1   force =    -0.00029673    0.16618601    5.75200025
     atom   33 type  1   force =    -0.00016972   -0.11769434    6.28611842
     atom   34 type  1   force =     0.00016974    0.09464827   10.30781809
     atom   35 type  1   force =     0.00013748    0.03212968  -10.95522782
     atom   36 type  1   force =     0.00004301    0.11197914   -8.73426733
     The local contribution  to forces
     atom    1 type  1   force =     0.00015861    0.03506375  -10.91569194
     atom    2 type  1   force =     0.00021100    0.10353330   10.39736180
     atom    3 type  1   force =    -0.00019111   -0.13281440    6.35642215
     atom    4 type  1   force =    -0.00025951    0.18077956    5.83042836
     atom    5 type  1   force =     0.00040614   -0.19090504    1.63686375
     atom    6 type  1   force =     0.00089414    0.08793397    0.25705140
     atom    7 type  1   force =    -0.00006416   -0.02954182   -3.76469339
     atom    8 type  1   force =    -0.00023757   -0.04188263   -7.18045944
     atom    9 type  1   force =     0.00009326    0.11906497   -8.90070445
     atom   10 type  1   force =     0.00030040    0.04184206    7.18061941
     atom   11 type  1   force =     0.00012541    0.02949102    3.76494003
     atom   12 type  1   force =    -0.00082396   -0.08795480   -0.25700753
     atom   13 type  1   force =    -0.00040765    0.19090786   -1.63686952
     atom   14 type  1   force =     0.00026983   -0.18078442   -5.83041830
     atom   15 type  1   force =     0.00034664    0.13282398   -6.35647297
     atom   16 type  1   force =    -0.00013903   -0.10367790  -10.39725470
     atom   17 type  1   force =     0.00002854   -0.03505498   10.91573654
     atom   18 type  1   force =    -0.00008818   -0.11905918    8.90074434
     atom   19 type  1   force =    -0.00003437    0.03506320  -10.91572272
     atom   20 type  1   force =     0.00013970    0.10365780   10.39726828
     atom   21 type  1   force =    -0.00034468   -0.13281889    6.35639903
     atom   22 type  1   force =    -0.00035709    0.18079333    5.83034808
     atom   23 type  1   force =     0.00044084   -0.19089208    1.63694778
     atom   24 type  1   force =     0.00081993    0.08794354    0.25701850
     atom   25 type  1   force =    -0.00012175   -0.02950358   -3.76493728
     atom   26 type  1   force =    -0.00030796   -0.04182779   -7.18065656
     atom   27 type  1   force =     0.00002500    0.11897585   -8.90077692
     atom   28 type  1   force =     0.00024633    0.04187815    7.18047218
     atom   29 type  1   force =     0.00006081    0.02955501    3.76472256
     atom   30 type  1   force =    -0.00088994   -0.08793726   -0.25712208
     atom   31 type  1   force =    -0.00043926    0.19088845   -1.63697095
     atom   32 type  1   force =     0.00034574   -0.18078607   -5.83035825
     atom   33 type  1   force =     0.00018832    0.13283253   -6.35643355
     atom   34 type  1   force =    -0.00021135   -0.10355103  -10.39738171
     atom   35 type  1   force =    -0.00015296   -0.03505265   10.91571105
     atom   36 type  1   force =    -0.00003008   -0.11898252    8.90079989
     The core correction contribution to forces
     atom    1 type  1   force =     0.00000000    0.00000000    0.00000000
     atom    2 type  1   force =     0.00000000    0.00000000    0.00000000
     atom    3 type  1   force =     0.00000000    0.00000000    0.00000000
     atom    4 type  1   force =     0.00000000    0.00000000    0.00000000
     atom    5 type  1   force =     0.00000000    0.00000000    0.00000000
     atom    6 type  1   force =     0.00000000    0.00000000    0.00000000
     atom    7 type  1   force =     0.00000000    0.00000000    0.00000000
     atom    8 type  1   force =     0.00000000    0.00000000    0.00000000
     atom    9 type  1   force =     0.00000000    0.00000000    0.00000000
     atom   10 type  1   force =     0.00000000    0.00000000    0.00000000
     atom   11 type  1   force =     0.00000000    0.00000000    0.00000000
     atom   12 type  1   force =     0.00000000    0.00000000    0.00000000
     atom   13 type  1   force =     0.00000000    0.00000000    0.00000000
     atom   14 type  1   force =     0.00000000    0.00000000    0.00000000
     atom   15 type  1   force =     0.00000000    0.00000000    0.00000000
     atom   16 type  1   force =     0.00000000    0.00000000    0.00000000
     atom   17 type  1   force =     0.00000000    0.00000000    0.00000000
     atom   18 type  1   force =     0.00000000    0.00000000    0.00000000
     atom   19 type  1   force =     0.00000000    0.00000000    0.00000000
     atom   20 type  1   force =     0.00000000    0.00000000    0.00000000
     atom   21 type  1   force =     0.00000000    0.00000000    0.00000000
     atom   22 type  1   force =     0.00000000    0.00000000    0.00000000
     atom   23 type  1   force =     0.00000000    0.00000000    0.00000000
     atom   24 type  1   force =     0.00000000    0.00000000    0.00000000
     atom   25 type  1   force =     0.00000000    0.00000000    0.00000000
     atom   26 type  1   force =     0.00000000    0.00000000    0.00000000
     atom   27 type  1   force =     0.00000000    0.00000000    0.00000000
     atom   28 type  1   force =     0.00000000    0.00000000    0.00000000
     atom   29 type  1   force =     0.00000000    0.00000000    0.00000000
     atom   30 type  1   force =     0.00000000    0.00000000    0.00000000
     atom   31 type  1   force =     0.00000000    0.00000000    0.00000000
     atom   32 type  1   force =     0.00000000    0.00000000    0.00000000
     atom   33 type  1   force =     0.00000000    0.00000000    0.00000000
     atom   34 type  1   force =     0.00000000    0.00000000    0.00000000
     atom   35 type  1   force =     0.00000000    0.00000000    0.00000000
     atom   36 type  1   force =     0.00000000    0.00000000    0.00000000
     The Hubbard contrib.    to forces
     atom    1 type  1   force =     0.00000000    0.00000000    0.00000000
     atom    2 type  1   force =     0.00000000    0.00000000    0.00000000
     atom    3 type  1   force =     0.00000000    0.00000000    0.00000000
     atom    4 type  1   force =     0.00000000    0.00000000    0.00000000
     atom    5 type  1   force =     0.00000000    0.00000000    0.00000000
     atom    6 type  1   force =     0.00000000    0.00000000    0.00000000
     atom    7 type  1   force =     0.00000000    0.00000000    0.00000000
     atom    8 type  1   force =     0.00000000    0.00000000    0.00000000
     atom    9 type  1   force =     0.00000000    0.00000000    0.00000000
     atom   10 type  1   force =     0.00000000    0.00000000    0.00000000
     atom   11 type  1   force =     0.00000000    0.00000000    0.00000000
     atom   12 type  1   force =     0.00000000    0.00000000    0.00000000
     atom   13 type  1   force =     0.00000000    0.00000000    0.00000000
     atom   14 type  1   force =     0.00000000    0.00000000    0.00000000
     atom   15 type  1   force =     0.00000000    0.00000000    0.00000000
     atom   16 type  1   force =     0.00000000    0.00000000    0.00000000
     atom   17 type  1   force =     0.00000000    0.00000000    0.00000000
     atom   18 type  1   force =     0.00000000    0.00000000    0.00000000
     atom   19 type  1   force =     0.00000000    0.00000000    0.00000000
     atom   20 type  1   force =     0.00000000    0.00000000    0.00000000
     atom   21 type  1   force =     0.00000000    0.00000000    0.00000000
     atom   22 type  1   force =     0.00000000    0.00000000    0.00000000
     atom   23 type  1   force =     0.00000000    0.00000000    0.00000000
     atom   24 type  1   force =     0.00000000    0.00000000    0.00000000
     atom   25 type  1   force =     0.00000000    0.00000000    0.00000000
     atom   26 type  1   force =     0.00000000    0.00000000    0.00000000
     atom   27 type  1   force =     0.00000000    0.00000000    0.00000000
     atom   28 type  1   force =     0.00000000    0.00000000    0.00000000
     atom   29 type  1   force =     0.00000000    0.00000000    0.00000000
     atom   30 type  1   force =     0.00000000    0.00000000    0.00000000
     atom   31 type  1   force =     0.00000000    0.00000000    0.00000000
     atom   32 type  1   force =     0.00000000    0.00000000    0.00000000
     atom   33 type  1   force =     0.00000000    0.00000000    0.00000000
     atom   34 type  1   force =     0.00000000    0.00000000    0.00000000
     atom   35 type  1   force =     0.00000000    0.00000000    0.00000000
     atom   36 type  1   force =     0.00000000    0.00000000    0.00000000
     The SCF correction term to forces
     atom    1 type  1   force =     0.00000000   -0.00000000   -0.00000001
     atom    2 type  1   force =     0.00000000    0.00000000    0.00000001
     atom    3 type  1   force =     0.00000000    0.00000000    0.00000000
     atom    4 type  1   force =     0.00000000    0.00000000    0.00000000
     atom    5 type  1   force =    -0.00000000    0.00000000    0.00000000
     atom    6 type  1   force =     0.00000000   -0.00000000    0.00000000
     atom    7 type  1   force =    -0.00000000    0.00000000    0.00000000
     atom    8 type  1   force =     0.00000000    0.00000000    0.00000000
     atom    9 type  1   force =     0.00000000   -0.00000000    0.00000000
     atom   10 type  1   force =     0.00000000   -0.00000000   -0.00000000
     atom   11 type  1   force =     0.00000000   -0.00000000    0.00000000
     atom   12 type  1   force =     0.00000000    0.00000000    0.00000000
     atom   13 type  1   force =     0.00000000   -0.00000000    0.00000000
     atom   14 type  1   force =    -0.00000000   -0.00000000   -0.00000000
     atom   15 type  1   force =     0.00000000   -0.00000000    0.00000000
     atom   16 type  1   force =    -0.00000000    0.00000000   -0.00000001
     atom   17 type  1   force =     0.00000000   -0.00000000    0.00000001
     atom   18 type  1   force =    -0.00000000    0.00000000    0.00000000
     atom   19 type  1   force =    -0.00000000    0.00000000   -0.00000001
     atom   20 type  1   force =     0.00000000   -0.00000000    0.00000001
     atom   21 type  1   force =    -0.00000000    0.00000000    0.00000000
     atom   22 type  1   force =     0.00000000    0.00000000    0.00000000
     atom   23 type  1   force =     0.00000000    0.00000000    0.00000000
     atom   24 type  1   force =    -0.00000000   -0.00000000    0.00000000
     atom   25 type  1   force =    -0.00000000    0.00000000    0.00000000
     atom   26 type  1   force =    -0.00000000    0.00000000    0.00000000
     atom   27 type  1   force =     0.00000000   -0.00000000    0.00000000
     atom   28 type  1   force =    -0.00000000   -0.00000000   -0.00000000
     atom   29 type  1   force =     0.00000000   -0.00000000    0.00000000
     atom   30 type  1   force =    -0.00000000    0.00000000    0.00000000
     atom   31 type  1   force =    -0.00000000   -0.00000000    0.00000000
     atom   32 type  1   force =     0.00000000   -0.00000000    0.00000000
     atom   33 type  1   force =    -0.00000000   -0.00000000    0.00000000
     atom   34 type  1   force =    -0.00000000    0.00000000   -0.00000001
     atom   35 type  1   force =    -0.00000000    0.00000000    0.00000001
     atom   36 type  1   force =    -0.00000000    0.00000000    0.00000000

     Total force =     0.020069     Total SCF correction =     0.000000

     Writing all to output data dir ./Li/Lithium.save/ :
     XML data file
     init_run     :     22.67s CPU     30.53s WALL (       1 calls)
     electrons    :   2607.98s CPU   3179.02s WALL (       1 calls)
     forces       :     28.69s CPU     30.31s WALL (       1 calls)

     Called by init_run:
     wfcinit      :      3.28s CPU      4.03s WALL (       1 calls)
     wfcinit:wfcr :      2.95s CPU      3.69s WALL (      16 calls)
     potinit      :      0.96s CPU      1.07s WALL (       1 calls)
     hinit0       :      9.38s CPU     15.93s WALL (       1 calls)

     Called by electrons:
     c_bands      :   1381.53s CPU   1721.00s WALL (      76 calls)
     sum_band     :    110.62s CPU    147.51s WALL (      76 calls)
     v_of_rho     :      9.95s CPU     11.92s WALL (      77 calls)
     v_h          :      0.74s CPU      0.95s WALL (      77 calls)
     v_xc         :      9.21s CPU     10.96s WALL (      77 calls)
     newd         :      5.28s CPU      8.35s WALL (      77 calls)
     PAW_pot      :      0.75s CPU      1.09s WALL (      77 calls)
     mix_rho      :     25.42s CPU     31.88s WALL (      76 calls)

     Called by c_bands:
     init_us_2    :     29.22s CPU     29.40s WALL (    2464 calls)
     cegterg      :   1315.33s CPU   1589.71s WALL (    1427 calls)

     Called by sum_band:
     sum_band:wei :      0.13s CPU      0.16s WALL (      76 calls)
     sum_band:loo :    104.40s CPU    139.59s WALL (      76 calls)
     sum_band:buf :      2.25s CPU      2.40s WALL (    1216 calls)
     sum_band:ini :     14.48s CPU     14.51s WALL (    1216 calls)
     sum_band:cal :     17.62s CPU     19.71s WALL (    1216 calls)
     sum_band:bec :      0.17s CPU      0.19s WALL (    1216 calls)
     addusdens    :      3.91s CPU      3.95s WALL (      76 calls)
                                        0.00s GPU  (      76 calls)
     addusd:skk   :      0.78s CPU      0.79s WALL (      76 calls)
                                        0.00s GPU  (      76 calls)

     Called by *egterg:
     cdiaghg      :    286.61s CPU    298.00s WALL (   14297 calls)
     cegterg:over :     94.34s CPU    104.54s WALL (   12969 calls)
     cegterg:upda :     70.67s CPU     71.67s WALL (   12969 calls)
     cegterg:last :     30.92s CPU     31.10s WALL (    1866 calls)
     h_psi        :    717.79s CPU    964.39s WALL (   14412 calls)
     s_psi        :     78.23s CPU     78.69s WALL (   14412 calls)
     g_psi        :      1.22s CPU      1.28s WALL (   12969 calls)

     Called by h_psi:
     h_psi:calbec :     97.79s CPU    110.95s WALL (   14412 calls)
     vloc_psi     :    538.06s CPU    769.78s WALL (   14412 calls)
                                        0.00s GPU  (   14412 calls)
     add_vuspsi   :     78.02s CPU     79.30s WALL (   14412 calls)

     General routines
     calbec       :    116.17s CPU    131.50s WALL (   15692 calls)
     fft          :     13.05s CPU     22.09s WALL (    1001 calls)
     ffts         :     13.81s CPU     18.06s WALL (    9378 calls)
     fftw         :    575.27s CPU    827.93s WALL (  845736 calls)
     interpolate  :      1.45s CPU      1.68s WALL (      77 calls)

     Parallel routines

     PAW routines
     PAW_pot      :      0.75s CPU      1.09s WALL (      77 calls)

     Environ routines

     PWSCF        :  44m19.51s CPU  54m 0.30s WALL


   This run was terminated on:  11:47:49  21Jan2025            

=------------------------------------------------------------------------------=
   JOB DONE.
=------------------------------------------------------------------------------=
