
     Program PWSCF v.7.4 starts on 24Jan2025 at  1:57:13 

     This program is part of the open-source Quantum ESPRESSO suite
     for quantum simulation of materials; please cite
         "P. Giannozzi et al., J. Phys.:Condens. Matter 21 395502 (2009);
         "P. Giannozzi et al., J. Phys.:Condens. Matter 29 465901 (2017);
         "P. Giannozzi et al., J. Chem. Phys. 152 154105 (2020);
          URL http://www.quantum-espresso.org", 
     in publications or presentations arising from this work. More details at
     http://www.quantum-espresso.org/quote

     Parallel version (MPI & OpenMP), running on     512 processor cores
     Number of MPI processes:               512
     Threads/MPI process:                     1

     MPI processes distributed on     4 nodes
     232074 MiB available memory on the printing compute node when the environment starts

     Reading input from espresso.pwi
Warning: card &CELL ignored
Warning: card    PRESS_CONV_THR   = 0.1 ignored
Warning: card    CELL_DOFREE      = 'ALL' ignored
Warning: card / ignored
Warning: card &FCP ignored
Warning: card / ignored
Warning: card &RISM ignored
Warning: card / ignored

     Current dimensions of program PWSCF are:
     Max number of different atomic species (ntypx) = 10
     Max number of k-points (npk) =  40000
     Max angular momentum in pseudopotentials (lmaxx) =  4

     IMPORTANT: XC functional enforced from input :
     Exchange-correlation= PBE
                           (   1   4   3   4   0   0   0)
     Any further DFT definition will be discarded
     Please, verify this is what you really want


     Reading input from environ.in:
     * using ionic solvent mode
     * setting boundary derivatives method to SSCS default
     * setting electrolyte-boundary derivatives method to SSCS default

Environ Warning (1001): card EOF ignored

     

     K-points division:     npool     =       2
     R & G space division:  proc/nbgrp/npool/nimage =     256
     Subspace diagonalization in iterative solution of the eigenvalue problem:
     a serial algorithm will be used


     Parallelization info
     --------------------
     sticks:   dense  smooth     PW     G-vecs:    dense   smooth      PW
     Min          33      13      3                18746     4723     645
     Max          34      14      4                18791     4776     724
     Sum        8497    3389    941              4805333  1215433  176195

     Using Slab Decomposition



     bravais-lattice index     =           12
     lattice parameter (alat)  =      12.9830  a.u.
     unit-cell volume          =   12574.0527 (a.u.)^3
     number of atoms/cell      =           20
     number of atomic types    =            1
     number of electrons       =        60.00
     number of Kohn-Sham states=           45
     kinetic-energy cutoff     =      80.0000  Ry
     charge density cutoff     =     800.0000  Ry
     scf convergence threshold =      1.0E-06
     mixing beta               =       0.2000
     number of iterations used =            8  local-TF  mixing
     energy convergence thresh.=      1.0E-05
     force convergence thresh. =      3.9E-04
     Exchange-correlation= PBE
                           (   1   4   3   4   0   0   0)
     nstep                     =          999


     ================================================================================

                                  Environ Setup Summary

     ================================================================================

     Please cite

          O. Andreussi, I. Dabo and N. Marzari, J. Chem. Phys. 136, 064102 (2012)
          F. Nattino, M. Truscott, N. Marzari, and O. Andreussi, J. Chem. Phys. 150, 041722 (2019)

     in publications or presentations arising from this work.

     ================================================================================

     Parameters
     ==========

     compensation onset threshold      =               0.1000E+00
     static permittivity               =                    89.90
     surface tension in input (dyn/cm) =                    37.30
     surface tension in internal units =               0.4792E-04

     Solvent Boundary
     ================

     solvent mode                      =                    ionic
     derivatives method                =                   lowmem
     electrolyte derivatives method    =                   lowmem
     numerical core for derivatives    =                      fft
     switching function adopted        =                     SCCS
     density limit for vacuum region   =               0.5000E-02
     density limit for bulk solvent    =               0.1000E-03
     soft-sphere radius mode           =                    bondi
     soft-sphere softness              =                     0.50
     alpha                             =                     1.32

     Electrostatic Setup
     ===================

     electrostatic problem to solve    =                    modpb
     numerical solver adopted          =                   newton
     type of auxiliary density adopted =                     none
     numerical core for poisson        =                      fft
     adopting a nested solver scheme
     inner solver                      =                       cg
     inner core                        =                      fft
     type of pbc corrections           =                parabolic
     numerical core for corrections    =                      1da

     ================================================================================


     >>>>> Grand-Canonical SCF is activated <<<<<
     Initial Total Charge  =     0.000000 e
     Target Fermi Energy   =    -1.654000 eV
     Thr. of Fermi Energy  =     0.001000 eV
     Wave-shift of Kerker  =     0.400000 bohr^-1
     Wave-shift of Hartree =     1.500000 bohr^-1
     Mixing Rate of Fermi  =     0.050000

     celldm(1)=  12.983009  celldm(2)=   0.829156  celldm(3)=   7.267908
     celldm(4)=  -0.301511  celldm(5)=   0.000000  celldm(6)=   0.000000

     crystal axes: (cart. coord. in units of alat)
               a(1) = (   1.000000   0.000000   0.000000 )  
               a(2) = (  -0.250000   0.790569   0.000000 )  
               a(3) = (   0.000000   0.000000   7.267908 )  

     reciprocal axes: (cart. coord. in units 2 pi/alat)
               b(1) = (  1.000000  0.316228 -0.000000 )  
               b(2) = (  0.000000  1.264912  0.000000 )  
               b(3) = (  0.000000 -0.000000  0.137591 )  


     PseudoPot. # 1 for Li read from file:
     /work/e89/e89/ba3g18/Repos/Pseudopotentials/Pslibrary/Li.pbe-sl-kjpaw_psl.1.0.0.UPF
     MD5 check sum: 3f4d2cafebb47c6c3aa8ed472e6f074d
     Pseudo is Projector augmented-wave, Zval =  3.0
     Generated using 'atomic' code by A. Dal Corso  v.7.4
     Shape of augmentation charge: PSQ
     Using radial grid of 1017 points,  4 beta functions with: 
                l(1) =   0
                l(2) =   0
                l(3) =   1
                l(4) =   1
     Q(r) pseudized with 0 coefficients 


     atomic species   valence    mass     pseudopotential
     Li                3.00     6.94000     Li( 1.00)

     No symmetry found


                                    s                        frac. trans.

      isym =  1     identity                                     

 cryst.   s( 1) = (     1          0          0      )
                  (     0          1          0      )
                  (     0          0          1      )

 cart.    s( 1) = (  1.0000000 -0.0000000  0.0000000 )
                  (  0.0000000  1.0000000  0.0000000 )
                  (  0.0000000  0.0000000  1.0000000 )


     point group C_1 (1)    
     there are  1 classes
     the character table:

       E    
A      1.00

     the symmetry operations in each class and the name of the first element:

     E        1
          identity                                               

   Cartesian axes

     site n.     atom                  positions (alat units)
         1        Li     tau(   1) = (   0.2502412   0.3263062   3.0459274  )
         2        Li     tau(   2) = (   0.0003064   0.6235420   3.2612444  )
         3        Li     tau(   3) = (   0.0001245   0.1692446   3.3709853  )
         4        Li     tau(   4) = (   0.2501252   0.4635775   3.5710809  )
         5        Li     tau(   5) = (   0.2498645   0.0108509   3.6966413  )
         6        Li     tau(   6) = (  -0.0001153   0.3051332   3.8968640  )
         7        Li     tau(   7) = (   0.2496958   0.6414310   4.0066286  )
         8        Li     tau(   8) = (   0.2497629   0.1479460   4.2221314  )
         9        Li     tau(   9) = (  -0.0003816   0.5010153   4.3312482  )
        10        Li     tau(  10) = (   0.5003873  -0.0267771   2.9368104  )
        11        Li     tau(  11) = (   0.7502309   0.3263074   3.0459203  )
        12        Li     tau(  12) = (   0.5003092   0.6235213   3.2612353  )
        13        Li     tau(  13) = (   0.5001088   0.1692326   3.3709901  )
        14        Li     tau(  14) = (   0.7501423   0.4635873   3.5710989  )
        15        Li     tau(  15) = (   0.7498644   0.0108556   3.6966292  )
        16        Li     tau(  16) = (   0.4998826   0.3051484   3.8968721  )
        17        Li     tau(  17) = (   0.7496886   0.6414323   4.0066155  )
        18        Li     tau(  18) = (   0.7497702   0.1479504   4.2221143  )
        19        Li     tau(  19) = (   0.4996119   0.5010114   4.3312333  )
        20        Li     tau(  20) = (   1.0003804  -0.0267599   2.9368037  )

   Crystallographic axes

     site n.     atom                  positions (cryst. coord.)
         1        Li     tau(   1) = (  0.3534283  0.4127485  0.4190927  )
         2        Li     tau(   2) = (  0.1974878  0.7887256  0.4487184  )
         3        Li     tau(   3) = (  0.0536444  0.2140795  0.4638178  )
         4        Li     tau(   4) = (  0.3967214  0.5863847  0.4913492  )
         5        Li     tau(   5) = (  0.2532959  0.0137254  0.5086252  )
         6        Li     tau(   6) = (  0.0963763  0.3859665  0.5361741  )
         7        Li     tau(   7) = (  0.4525343  0.8113536  0.5512767  )
         8        Li     tau(   8) = (  0.2965476  0.1871386  0.5809280  )
         9        Li     tau(   9) = (  0.1580535  0.6337402  0.5959415  )
        10        Li     tau(  10) = (  0.4919197 -0.0338706  0.4040792  )
        11        Li     tau(  11) = (  0.8534184  0.4127500  0.4190918  )
        12        Li     tau(  12) = (  0.6974840  0.7886994  0.4487172  )
        13        Li     tau(  13) = (  0.5536248  0.2140643  0.4638185  )
        14        Li     tau(  14) = (  0.8967416  0.5863971  0.4913517  )
        15        Li     tau(  15) = (  0.7532973  0.0137314  0.5086236  )
        16        Li     tau(  16) = (  0.5963790  0.3859858  0.5361752  )
        17        Li     tau(  17) = (  0.9525274  0.8113552  0.5512749  )
        18        Li     tau(  18) = (  0.7965563  0.1871441  0.5809257  )
        19        Li     tau(  19) = (  0.6580457  0.6337352  0.5959395  )
        20        Li     tau(  20) = (  0.9919182 -0.0338489  0.4040783  )

     number of k points=    62  Marzari-Vanderbilt smearing, width (Ry)=  0.0100
                       cart. coord. in units 2pi/alat
        k(    1) = (   0.0000000   0.0000000   0.0000000), wk =   0.0166667
        k(    2) = (   0.0000000   0.1054093   0.0000000), wk =   0.0333333
        k(    3) = (   0.0000000   0.2108186   0.0000000), wk =   0.0333333
        k(    4) = (   0.0000000   0.3162279   0.0000000), wk =   0.0333333
        k(    5) = (   0.0000000   0.4216372   0.0000000), wk =   0.0333333
        k(    6) = (   0.0000000   0.5270466   0.0000000), wk =   0.0333333
        k(    7) = (   0.0000000  -0.6324559   0.0000000), wk =   0.0166667
        k(    8) = (   0.1000000   0.0316228   0.0000000), wk =   0.0333333
        k(    9) = (   0.1000000   0.1370321   0.0000000), wk =   0.0333333
        k(   10) = (   0.1000000   0.2424414   0.0000000), wk =   0.0333333
        k(   11) = (   0.1000000   0.3478507   0.0000000), wk =   0.0333333
        k(   12) = (   0.1000000   0.4532600   0.0000000), wk =   0.0333333
        k(   13) = (   0.1000000   0.5586693   0.0000000), wk =   0.0333333
        k(   14) = (   0.1000000  -0.6008331   0.0000000), wk =   0.0333333
        k(   15) = (   0.1000000  -0.4954238   0.0000000), wk =   0.0333333
        k(   16) = (   0.1000000  -0.3900144   0.0000000), wk =   0.0333333
        k(   17) = (   0.1000000  -0.2846051   0.0000000), wk =   0.0333333
        k(   18) = (   0.1000000  -0.1791958   0.0000000), wk =   0.0333333
        k(   19) = (   0.1000000  -0.0737865   0.0000000), wk =   0.0333333
        k(   20) = (   0.2000000   0.0632456   0.0000000), wk =   0.0333333
        k(   21) = (   0.2000000   0.1686549   0.0000000), wk =   0.0333333
        k(   22) = (   0.2000000   0.2740642   0.0000000), wk =   0.0333333
        k(   23) = (   0.2000000   0.3794735   0.0000000), wk =   0.0333333
        k(   24) = (   0.2000000   0.4848828   0.0000000), wk =   0.0333333
        k(   25) = (   0.2000000   0.5902921   0.0000000), wk =   0.0333333
        k(   26) = (   0.2000000  -0.5692103   0.0000000), wk =   0.0333333
        k(   27) = (   0.2000000  -0.4638010   0.0000000), wk =   0.0333333
        k(   28) = (   0.2000000  -0.3583917   0.0000000), wk =   0.0333333
        k(   29) = (   0.2000000  -0.2529823   0.0000000), wk =   0.0333333
        k(   30) = (   0.2000000  -0.1475730   0.0000000), wk =   0.0333333
        k(   31) = (   0.2000000  -0.0421637   0.0000000), wk =   0.0333333
        k(   32) = (   0.3000000   0.0948684   0.0000000), wk =   0.0333333
        k(   33) = (   0.3000000   0.2002777   0.0000000), wk =   0.0333333
        k(   34) = (   0.3000000   0.3056870   0.0000000), wk =   0.0333333
        k(   35) = (   0.3000000   0.4110963   0.0000000), wk =   0.0333333
        k(   36) = (   0.3000000   0.5165056   0.0000000), wk =   0.0333333
        k(   37) = (   0.3000000   0.6219149   0.0000000), wk =   0.0333333
        k(   38) = (   0.3000000  -0.5375875   0.0000000), wk =   0.0333333
        k(   39) = (   0.3000000  -0.4321782   0.0000000), wk =   0.0333333
        k(   40) = (   0.3000000  -0.3267689   0.0000000), wk =   0.0333333
        k(   41) = (   0.3000000  -0.2213596   0.0000000), wk =   0.0333333
        k(   42) = (   0.3000000  -0.1159502   0.0000000), wk =   0.0333333
        k(   43) = (   0.3000000  -0.0105409   0.0000000), wk =   0.0333333
        k(   44) = (   0.4000000   0.1264912   0.0000000), wk =   0.0333333
        k(   45) = (   0.4000000   0.2319005   0.0000000), wk =   0.0333333
        k(   46) = (   0.4000000   0.3373098   0.0000000), wk =   0.0333333
        k(   47) = (   0.4000000   0.4427191   0.0000000), wk =   0.0333333
        k(   48) = (   0.4000000   0.5481284   0.0000000), wk =   0.0333333
        k(   49) = (   0.4000000   0.6535377   0.0000000), wk =   0.0333333
        k(   50) = (   0.4000000  -0.5059647   0.0000000), wk =   0.0333333
        k(   51) = (   0.4000000  -0.4005554   0.0000000), wk =   0.0333333
        k(   52) = (   0.4000000  -0.2951461   0.0000000), wk =   0.0333333
        k(   53) = (   0.4000000  -0.1897368   0.0000000), wk =   0.0333333
        k(   54) = (   0.4000000  -0.0843274   0.0000000), wk =   0.0333333
        k(   55) = (   0.4000000   0.0210819   0.0000000), wk =   0.0333333
        k(   56) = (  -0.5000000  -0.1581140   0.0000000), wk =   0.0166667
        k(   57) = (  -0.5000000  -0.0527047   0.0000000), wk =   0.0333333
        k(   58) = (  -0.5000000   0.0527047   0.0000000), wk =   0.0333333
        k(   59) = (  -0.5000000   0.1581140   0.0000000), wk =   0.0333333
        k(   60) = (  -0.5000000   0.2635233   0.0000000), wk =   0.0333333
        k(   61) = (  -0.5000000   0.3689326   0.0000000), wk =   0.0333333
        k(   62) = (  -0.5000000  -0.7905698   0.0000000), wk =   0.0166667

                       cryst. coord.
        k(    1) = (   0.0000000   0.0000000   0.0000000), wk =   0.0166667
        k(    2) = (   0.0000000   0.0833333   0.0000000), wk =   0.0333333
        k(    3) = (   0.0000000   0.1666667   0.0000000), wk =   0.0333333
        k(    4) = (   0.0000000   0.2500000   0.0000000), wk =   0.0333333
        k(    5) = (   0.0000000   0.3333333   0.0000000), wk =   0.0333333
        k(    6) = (   0.0000000   0.4166667   0.0000000), wk =   0.0333333
        k(    7) = (   0.0000000  -0.5000000   0.0000000), wk =   0.0166667
        k(    8) = (   0.1000000  -0.0000000   0.0000000), wk =   0.0333333
        k(    9) = (   0.1000000   0.0833333   0.0000000), wk =   0.0333333
        k(   10) = (   0.1000000   0.1666667   0.0000000), wk =   0.0333333
        k(   11) = (   0.1000000   0.2500000   0.0000000), wk =   0.0333333
        k(   12) = (   0.1000000   0.3333333   0.0000000), wk =   0.0333333
        k(   13) = (   0.1000000   0.4166667   0.0000000), wk =   0.0333333
        k(   14) = (   0.1000000  -0.5000000   0.0000000), wk =   0.0333333
        k(   15) = (   0.1000000  -0.4166667   0.0000000), wk =   0.0333333
        k(   16) = (   0.1000000  -0.3333333   0.0000000), wk =   0.0333333
        k(   17) = (   0.1000000  -0.2500000   0.0000000), wk =   0.0333333
        k(   18) = (   0.1000000  -0.1666667   0.0000000), wk =   0.0333333
        k(   19) = (   0.1000000  -0.0833333   0.0000000), wk =   0.0333333
        k(   20) = (   0.2000000  -0.0000000   0.0000000), wk =   0.0333333
        k(   21) = (   0.2000000   0.0833333   0.0000000), wk =   0.0333333
        k(   22) = (   0.2000000   0.1666667   0.0000000), wk =   0.0333333
        k(   23) = (   0.2000000   0.2500000   0.0000000), wk =   0.0333333
        k(   24) = (   0.2000000   0.3333333   0.0000000), wk =   0.0333333
        k(   25) = (   0.2000000   0.4166667   0.0000000), wk =   0.0333333
        k(   26) = (   0.2000000  -0.5000000   0.0000000), wk =   0.0333333
        k(   27) = (   0.2000000  -0.4166667   0.0000000), wk =   0.0333333
        k(   28) = (   0.2000000  -0.3333333   0.0000000), wk =   0.0333333
        k(   29) = (   0.2000000  -0.2500000   0.0000000), wk =   0.0333333
        k(   30) = (   0.2000000  -0.1666667   0.0000000), wk =   0.0333333
        k(   31) = (   0.2000000  -0.0833333   0.0000000), wk =   0.0333333
        k(   32) = (   0.3000000  -0.0000000   0.0000000), wk =   0.0333333
        k(   33) = (   0.3000000   0.0833333   0.0000000), wk =   0.0333333
        k(   34) = (   0.3000000   0.1666667   0.0000000), wk =   0.0333333
        k(   35) = (   0.3000000   0.2500000   0.0000000), wk =   0.0333333
        k(   36) = (   0.3000000   0.3333333   0.0000000), wk =   0.0333333
        k(   37) = (   0.3000000   0.4166667   0.0000000), wk =   0.0333333
        k(   38) = (   0.3000000  -0.5000000   0.0000000), wk =   0.0333333
        k(   39) = (   0.3000000  -0.4166667   0.0000000), wk =   0.0333333
        k(   40) = (   0.3000000  -0.3333333   0.0000000), wk =   0.0333333
        k(   41) = (   0.3000000  -0.2500000   0.0000000), wk =   0.0333333
        k(   42) = (   0.3000000  -0.1666667   0.0000000), wk =   0.0333333
        k(   43) = (   0.3000000  -0.0833333   0.0000000), wk =   0.0333333
        k(   44) = (   0.4000000  -0.0000000   0.0000000), wk =   0.0333333
        k(   45) = (   0.4000000   0.0833333   0.0000000), wk =   0.0333333
        k(   46) = (   0.4000000   0.1666667   0.0000000), wk =   0.0333333
        k(   47) = (   0.4000000   0.2500000   0.0000000), wk =   0.0333333
        k(   48) = (   0.4000000   0.3333333   0.0000000), wk =   0.0333333
        k(   49) = (   0.4000000   0.4166667   0.0000000), wk =   0.0333333
        k(   50) = (   0.4000000  -0.5000000   0.0000000), wk =   0.0333333
        k(   51) = (   0.4000000  -0.4166667   0.0000000), wk =   0.0333333
        k(   52) = (   0.4000000  -0.3333333   0.0000000), wk =   0.0333333
        k(   53) = (   0.4000000  -0.2500000   0.0000000), wk =   0.0333333
        k(   54) = (   0.4000000  -0.1666667   0.0000000), wk =   0.0333333
        k(   55) = (   0.4000000  -0.0833333   0.0000000), wk =   0.0333333
        k(   56) = (  -0.5000000   0.0000000   0.0000000), wk =   0.0166667
        k(   57) = (  -0.5000000   0.0833333   0.0000000), wk =   0.0333333
        k(   58) = (  -0.5000000   0.1666667   0.0000000), wk =   0.0333333
        k(   59) = (  -0.5000000   0.2500000   0.0000000), wk =   0.0333333
        k(   60) = (  -0.5000000   0.3333333   0.0000000), wk =   0.0333333
        k(   61) = (  -0.5000000   0.4166667   0.0000000), wk =   0.0333333
        k(   62) = (  -0.5000000  -0.5000000   0.0000000), wk =   0.0166667

     Dense  grid:  4805333 G-vectors     FFT dimensions: ( 120, 100, 864)

     Smooth grid:  1215433 G-vectors     FFT dimensions: (  75,  64, 540)

     Dynamical RAM for                 wfc:       0.41 MB

     Dynamical RAM for     wfc (w. buffer):      13.03 MB

     Dynamical RAM for           str. fact:       0.29 MB

     Dynamical RAM for           local pot:       0.00 MB

     Dynamical RAM for          nlocal pot:       1.45 MB

     Dynamical RAM for                qrad:       0.65 MB

     Dynamical RAM for          rho,v,vnew:       1.96 MB

     Dynamical RAM for               rhoin:       0.65 MB

     Dynamical RAM for            rho*nmix:       4.59 MB

     Dynamical RAM for           G-vectors:       1.11 MB

     Dynamical RAM for          h,s,v(r/c):       1.48 MB

     Dynamical RAM for          <psi|beta>:       0.11 MB

     Dynamical RAM for                 psi:       1.63 MB

     Dynamical RAM for                hpsi:       1.63 MB

     Dynamical RAM for                spsi:       1.63 MB

     Dynamical RAM for      wfcinit/wfcrot:       0.86 MB

     Dynamical RAM for           addusdens:       9.17 MB

     Dynamical RAM for          addusforce:      14.64 MB

     Estimated static dynamical RAM per process >      21.54 MB

     Estimated max dynamical RAM per process >      73.32 MB

     Estimated total dynamical RAM >      19.24 GB

     Initial potential from superposition of free atoms

     starting charge      59.9078, renormalised to      60.0000

     negative rho (up, down):  2.172E-03 0.000E+00
     Starting wfcs are random
     Checking if some PAW data can be deallocated... 

     total cpu time spent up to now is       19.4 secs

     Self-consistent Calculation

     iteration #  1     ecut=    80.00 Ry     beta= 0.20
     Davidson diagonalization with overlap

---- Real-time Memory Report at c_bands before calling an iterative solver
           267 MiB given to the printing process from OS
             0 MiB allocation reported by mallinfo(arena+hblkhd)
        221892 MiB available memory on the node where the printing process lives
------------------
     c_bands:  1 eigenvalues not converged
     ethr =  1.00E-12,  avg # of iterations = 98.2

     negative rho (up, down):  1.612E-03 0.000E+00

     add environment contribution to local potential

     total cpu time spent up to now is      141.7 secs

     total energy              =    -300.81382555 Ry
     estimated scf accuracy    <       0.08263214 Ry

     total charge of GC-SCF    =      -0.01033640 e
     the Fermi energy          =      -4.43432474 eV
                        (error :       2.78032474 eV)
     electrostatic embedding   =       0.00000000 Ry
     cavitation energy         =       0.01492078 Ry
     electrolyte free energy   =       0.00541203 Ry
     correction to one-el term =      -0.00000000 Ry

     iteration #  2     ecut=    80.00 Ry     beta= 0.20
     Davidson diagonalization with overlap

---- Real-time Memory Report at c_bands before calling an iterative solver
           267 MiB given to the printing process from OS
             0 MiB allocation reported by mallinfo(arena+hblkhd)
        223019 MiB available memory on the node where the printing process lives
------------------
     ethr =  1.00E-05,  avg # of iterations = 15.1

     negative rho (up, down):  1.258E-03 0.000E+00

     add environment contribution to local potential

     total cpu time spent up to now is      162.3 secs

     total energy              =    -300.79572036 Ry
     estimated scf accuracy    <       0.02048445 Ry

     total charge of GC-SCF    =      -0.03102851 e
     the Fermi energy          =      -3.34221997 eV
                        (error :       1.68821997 eV)
     electrostatic embedding   =      -0.01966664 Ry
     cavitation energy         =       0.01492078 Ry
     electrolyte free energy   =      -0.00298217 Ry
     correction to one-el term =       0.01855564 Ry

     iteration #  3     ecut=    80.00 Ry     beta= 0.20
     Davidson diagonalization with overlap

---- Real-time Memory Report at c_bands before calling an iterative solver
           267 MiB given to the printing process from OS
             0 MiB allocation reported by mallinfo(arena+hblkhd)
        223066 MiB available memory on the node where the printing process lives
------------------
     ethr =  1.00E-05,  avg # of iterations = 10.3

     negative rho (up, down):  9.808E-04 0.000E+00

     add environment contribution to local potential

     total cpu time spent up to now is      177.4 secs

     total energy              =    -300.69684733 Ry
     estimated scf accuracy    <       0.01421440 Ry

     total charge of GC-SCF    =      -0.12410606 e
     the Fermi energy          =      -3.04375240 eV
                        (error :       1.38975240 eV)
     electrostatic embedding   =      -0.01838882 Ry
     cavitation energy         =       0.01492078 Ry
     electrolyte free energy   =      -0.00222548 Ry
     correction to one-el term =       0.77227558 Ry

     iteration #  4     ecut=    80.00 Ry     beta= 0.20
     Davidson diagonalization with overlap

---- Real-time Memory Report at c_bands before calling an iterative solver
           267 MiB given to the printing process from OS
             0 MiB allocation reported by mallinfo(arena+hblkhd)
        223102 MiB available memory on the node where the printing process lives
------------------
     ethr =  1.00E-05,  avg # of iterations = 13.7

     negative rho (up, down):  8.239E-04 0.000E+00

     add environment contribution to local potential

     total cpu time spent up to now is      197.0 secs

     total energy              =    -300.72435211 Ry
     estimated scf accuracy    <       0.00262758 Ry

     total charge of GC-SCF    =      -0.21013596 e
     the Fermi energy          =      -2.63731983 eV
                        (error :       0.98331983 eV)
     electrostatic embedding   =      -0.02213730 Ry
     cavitation energy         =       0.01492078 Ry
     electrolyte free energy   =      -0.00079799 Ry
     correction to one-el term =       4.95351541 Ry

     iteration #  5     ecut=    80.00 Ry     beta= 0.20
     Davidson diagonalization with overlap

---- Real-time Memory Report at c_bands before calling an iterative solver
           267 MiB given to the printing process from OS
             0 MiB allocation reported by mallinfo(arena+hblkhd)
        223113 MiB available memory on the node where the printing process lives
------------------
     ethr =  4.36E-06,  avg # of iterations = 14.0

     negative rho (up, down):  7.430E-04 0.000E+00

     add environment contribution to local potential

     total cpu time spent up to now is      216.1 secs

     total energy              =    -300.70685744 Ry
     estimated scf accuracy    <       0.00219206 Ry

     total charge of GC-SCF    =      -0.41474832 e
     the Fermi energy          =      -2.46414465 eV
                        (error :       0.81014465 eV)
     electrostatic embedding   =      -0.03352091 Ry
     cavitation energy         =       0.01492078 Ry
     electrolyte free energy   =      -0.00058966 Ry
     correction to one-el term =       8.53930160 Ry

     iteration #  6     ecut=    80.00 Ry     beta= 0.20
     Davidson diagonalization with overlap

---- Real-time Memory Report at c_bands before calling an iterative solver
           267 MiB given to the printing process from OS
             0 MiB allocation reported by mallinfo(arena+hblkhd)
        223104 MiB available memory on the node where the printing process lives
------------------
     ethr =  3.63E-06,  avg # of iterations = 11.7

     negative rho (up, down):  6.789E-04 0.000E+00

     add environment contribution to local potential

     total cpu time spent up to now is      233.3 secs

     total energy              =    -300.71912305 Ry
     estimated scf accuracy    <       0.00242808 Ry

     total charge of GC-SCF    =      -0.63077050 e
     the Fermi energy          =      -2.32041229 eV
                        (error :       0.66641229 eV)
     electrostatic embedding   =      -0.08135041 Ry
     cavitation energy         =       0.01492078 Ry
     electrolyte free energy   =      -0.00083954 Ry
     correction to one-el term =      16.14938671 Ry

     iteration #  7     ecut=    80.00 Ry     beta= 0.20
     Davidson diagonalization with overlap

---- Real-time Memory Report at c_bands before calling an iterative solver
           267 MiB given to the printing process from OS
             0 MiB allocation reported by mallinfo(arena+hblkhd)
        223083 MiB available memory on the node where the printing process lives
------------------
     ethr =  3.63E-06,  avg # of iterations =  8.2

     negative rho (up, down):  5.924E-04 0.000E+00

     add environment contribution to local potential

     total cpu time spent up to now is      247.1 secs

     total energy              =    -300.72272537 Ry
     estimated scf accuracy    <       0.00057246 Ry

     total charge of GC-SCF    =      -0.97124577 e
     the Fermi energy          =      -2.39456660 eV
                        (error :       0.74056660 eV)
     electrostatic embedding   =      -0.15993985 Ry
     cavitation energy         =       0.01492078 Ry
     electrolyte free energy   =      -0.00114649 Ry
     correction to one-el term =      23.29846607 Ry

     iteration #  8     ecut=    80.00 Ry     beta= 0.20
     Davidson diagonalization with overlap

---- Real-time Memory Report at c_bands before calling an iterative solver
           267 MiB given to the printing process from OS
             0 MiB allocation reported by mallinfo(arena+hblkhd)
        223088 MiB available memory on the node where the printing process lives
------------------
     ethr =  9.39E-07,  avg # of iterations = 14.0

     negative rho (up, down):  5.284E-04 0.000E+00

     add environment contribution to local potential

     total cpu time spent up to now is      265.7 secs

     total energy              =    -300.79185719 Ry
     estimated scf accuracy    <       0.00149336 Ry

     total charge of GC-SCF    =      -0.99058684 e
     the Fermi energy          =      -2.21001069 eV
                        (error :       0.55601069 eV)
     electrostatic embedding   =      -0.32936625 Ry
     cavitation energy         =       0.01492078 Ry
     electrolyte free energy   =      -0.00250092 Ry
     correction to one-el term =      34.51360841 Ry

     iteration #  9     ecut=    80.00 Ry     beta= 0.20
     Davidson diagonalization with overlap

---- Real-time Memory Report at c_bands before calling an iterative solver
           267 MiB given to the printing process from OS
             0 MiB allocation reported by mallinfo(arena+hblkhd)
        223080 MiB available memory on the node where the printing process lives
------------------
     ethr =  9.39E-07,  avg # of iterations =  2.7

     negative rho (up, down):  4.714E-04 0.000E+00

     add environment contribution to local potential

     total cpu time spent up to now is      274.5 secs

     total energy              =    -300.79656029 Ry
     estimated scf accuracy    <       0.00145743 Ry

     total charge of GC-SCF    =      -0.99201791 e
     the Fermi energy          =      -2.21082791 eV
                        (error :       0.55682791 eV)
     electrostatic embedding   =      -0.34090120 Ry
     cavitation energy         =       0.01492078 Ry
     electrolyte free energy   =      -0.00257854 Ry
     correction to one-el term =      35.11748430 Ry

     iteration # 10     ecut=    80.00 Ry     beta= 0.20
     Davidson diagonalization with overlap

---- Real-time Memory Report at c_bands before calling an iterative solver
           267 MiB given to the printing process from OS
             0 MiB allocation reported by mallinfo(arena+hblkhd)
        223071 MiB available memory on the node where the printing process lives
------------------
     ethr =  9.39E-07,  avg # of iterations =  2.1

     negative rho (up, down):  4.065E-04 0.000E+00

     add environment contribution to local potential

     total cpu time spent up to now is      283.1 secs

     total energy              =    -300.78901532 Ry
     estimated scf accuracy    <       0.00147778 Ry

     total charge of GC-SCF    =      -1.03654856 e
     the Fermi energy          =      -2.21236708 eV
                        (error :       0.55836708 eV)
     electrostatic embedding   =      -0.34163718 Ry
     cavitation energy         =       0.01492078 Ry
     electrolyte free energy   =      -0.00257602 Ry
     correction to one-el term =      35.14365376 Ry

     iteration # 11     ecut=    80.00 Ry     beta= 0.20
     Davidson diagonalization with overlap

---- Real-time Memory Report at c_bands before calling an iterative solver
           267 MiB given to the printing process from OS
             0 MiB allocation reported by mallinfo(arena+hblkhd)
        223062 MiB available memory on the node where the printing process lives
------------------
     ethr =  9.39E-07,  avg # of iterations =  7.1

     negative rho (up, down):  3.379E-04 0.000E+00

     add environment contribution to local potential

     total cpu time spent up to now is      295.2 secs

     total energy              =    -300.76092919 Ry
     estimated scf accuracy    <       0.00161752 Ry

     total charge of GC-SCF    =      -1.37347894 e
     the Fermi energy          =      -2.20883436 eV
                        (error :       0.55483436 eV)
     electrostatic embedding   =      -0.36831527 Ry
     cavitation energy         =       0.01492078 Ry
     electrolyte free energy   =      -0.00275898 Ry
     correction to one-el term =      36.46983417 Ry

     iteration # 12     ecut=    80.00 Ry     beta= 0.20
     Davidson diagonalization with overlap

---- Real-time Memory Report at c_bands before calling an iterative solver
           267 MiB given to the printing process from OS
             0 MiB allocation reported by mallinfo(arena+hblkhd)
        223058 MiB available memory on the node where the printing process lives
------------------
     ethr =  9.39E-07,  avg # of iterations = 10.9

     negative rho (up, down):  4.112E-04 0.000E+00

     add environment contribution to local potential

     total cpu time spent up to now is      312.1 secs

     total energy              =    -300.78250021 Ry
     estimated scf accuracy    <       0.00127791 Ry

     total charge of GC-SCF    =      -1.66683974 e
     the Fermi energy          =      -2.19180812 eV
                        (error :       0.53780812 eV)
     electrostatic embedding   =      -0.60904316 Ry
     cavitation energy         =       0.01492078 Ry
     electrolyte free energy   =      -0.00478146 Ry
     correction to one-el term =      46.91572802 Ry

     iteration # 13     ecut=    80.00 Ry     beta= 0.20
     Davidson diagonalization with overlap

---- Real-time Memory Report at c_bands before calling an iterative solver
           267 MiB given to the printing process from OS
             0 MiB allocation reported by mallinfo(arena+hblkhd)
        223060 MiB available memory on the node where the printing process lives
------------------
     ethr =  9.39E-07,  avg # of iterations = 11.4

     negative rho (up, down):  3.845E-04 0.000E+00

     add environment contribution to local potential

     total cpu time spent up to now is      329.5 secs

     total energy              =    -300.80735302 Ry
     estimated scf accuracy    <       0.00056175 Ry

     total charge of GC-SCF    =      -1.84925676 e
     the Fermi energy          =      -2.12798792 eV
                        (error :       0.47398792 eV)
     electrostatic embedding   =      -0.86499439 Ry
     cavitation energy         =       0.01492078 Ry
     electrolyte free energy   =      -0.00782320 Ry
     correction to one-el term =      56.17271659 Ry

     iteration # 14     ecut=    80.00 Ry     beta= 0.20
     Davidson diagonalization with overlap

---- Real-time Memory Report at c_bands before calling an iterative solver
           267 MiB given to the printing process from OS
             0 MiB allocation reported by mallinfo(arena+hblkhd)
        223059 MiB available memory on the node where the printing process lives
------------------
     ethr =  9.08E-07,  avg # of iterations =  8.3

     negative rho (up, down):  4.188E-04 0.000E+00

     add environment contribution to local potential

     total cpu time spent up to now is      343.8 secs

     total energy              =    -300.85272476 Ry
     estimated scf accuracy    <       0.00022730 Ry

     total charge of GC-SCF    =      -2.54518157 e
     the Fermi energy          =      -2.14364608 eV
                        (error :       0.48964608 eV)
     electrostatic embedding   =      -1.04301108 Ry
     cavitation energy         =       0.01492078 Ry
     electrolyte free energy   =      -0.01005002 Ry
     correction to one-el term =      61.47786067 Ry

     iteration # 15     ecut=    80.00 Ry     beta= 0.20
     Davidson diagonalization with overlap

---- Real-time Memory Report at c_bands before calling an iterative solver
           267 MiB given to the printing process from OS
             0 MiB allocation reported by mallinfo(arena+hblkhd)
        223061 MiB available memory on the node where the printing process lives
------------------
     ethr =  3.63E-07,  avg # of iterations = 17.0

     negative rho (up, down):  3.857E-04 0.000E+00

     add environment contribution to local potential

     total cpu time spent up to now is      365.9 secs

     total energy              =    -300.86813800 Ry
     estimated scf accuracy    <       0.00015958 Ry

     total charge of GC-SCF    =      -2.40779593 e
     the Fermi energy          =      -1.92060147 eV
                        (error :       0.26660147 eV)
     electrostatic embedding   =      -1.86634870 Ry
     cavitation energy         =       0.01492078 Ry
     electrolyte free energy   =      -0.02484370 Ry
     correction to one-el term =      82.36864891 Ry

     iteration # 16     ecut=    80.00 Ry     beta= 0.20
     Davidson diagonalization with overlap

---- Real-time Memory Report at c_bands before calling an iterative solver
           267 MiB given to the printing process from OS
             0 MiB allocation reported by mallinfo(arena+hblkhd)
        223014 MiB available memory on the node where the printing process lives
------------------
     ethr =  2.56E-07,  avg # of iterations =  8.9

     negative rho (up, down):  3.085E-04 0.000E+00

     add environment contribution to local potential

     total cpu time spent up to now is      381.9 secs

     total energy              =    -300.88556335 Ry
     estimated scf accuracy    <       0.00010786 Ry

     total charge of GC-SCF    =      -3.02739567 e
     the Fermi energy          =      -1.98447153 eV
                        (error :       0.33047153 eV)
     electrostatic embedding   =      -1.67418300 Ry
     cavitation energy         =       0.01492078 Ry
     electrolyte free energy   =      -0.02101333 Ry
     correction to one-el term =      77.72613716 Ry

     iteration # 17     ecut=    80.00 Ry     beta= 0.20
     Davidson diagonalization with overlap

---- Real-time Memory Report at c_bands before calling an iterative solver
           267 MiB given to the printing process from OS
             0 MiB allocation reported by mallinfo(arena+hblkhd)
        223017 MiB available memory on the node where the printing process lives
------------------
     ethr =  1.71E-07,  avg # of iterations = 17.7

     negative rho (up, down):  2.365E-04 0.000E+00

     add environment contribution to local potential

     total cpu time spent up to now is      405.4 secs

     total energy              =    -300.87636458 Ry
     estimated scf accuracy    <       0.00007747 Ry

     total charge of GC-SCF    =      -2.81574144 e
     the Fermi energy          =      -1.76798423 eV
                        (error :       0.11398423 eV)
     electrostatic embedding   =      -2.55143870 Ry
     cavitation energy         =       0.01492078 Ry
     electrolyte free energy   =      -0.04119605 Ry
     correction to one-el term =      96.00473239 Ry

     iteration # 18     ecut=    80.00 Ry     beta= 0.20
     Davidson diagonalization with overlap

---- Real-time Memory Report at c_bands before calling an iterative solver
           267 MiB given to the printing process from OS
             0 MiB allocation reported by mallinfo(arena+hblkhd)
        223017 MiB available memory on the node where the printing process lives
------------------
     ethr =  1.23E-07,  avg # of iterations = 11.7

     negative rho (up, down):  2.163E-04 0.000E+00

     add environment contribution to local potential

     total cpu time spent up to now is      423.5 secs

     total energy              =    -300.87990075 Ry
     estimated scf accuracy    <       0.00003346 Ry

     total charge of GC-SCF    =      -3.26811297 e
     the Fermi energy          =      -1.86245612 eV
                        (error :       0.20845612 eV)
     electrostatic embedding   =      -2.21936460 Ry
     cavitation energy         =       0.01492078 Ry
     electrolyte free energy   =      -0.03309313 Ry
     correction to one-el term =      89.23305777 Ry

     iteration # 19     ecut=    80.00 Ry     beta= 0.20
     Davidson diagonalization with overlap

---- Real-time Memory Report at c_bands before calling an iterative solver
           267 MiB given to the printing process from OS
             0 MiB allocation reported by mallinfo(arena+hblkhd)
        223000 MiB available memory on the node where the printing process lives
------------------
     ethr =  5.29E-08,  avg # of iterations = 21.5

     negative rho (up, down):  2.097E-04 0.000E+00

     add environment contribution to local potential

     total cpu time spent up to now is      452.5 secs

     total energy              =    -300.86490102 Ry
     estimated scf accuracy    <       0.00007458 Ry

     total charge of GC-SCF    =      -3.42260024 e
     the Fermi energy          =      -1.65316271 eV
                        (error :       0.00083729 eV)
     electrostatic embedding   =      -2.92047652 Ry
     cavitation energy         =       0.01492078 Ry
     electrolyte free energy   =      -0.05178446 Ry
     correction to one-el term =     102.52636376 Ry

     iteration # 20     ecut=    80.00 Ry     beta= 0.20
     Davidson diagonalization with overlap

---- Real-time Memory Report at c_bands before calling an iterative solver
           267 MiB given to the printing process from OS
             0 MiB allocation reported by mallinfo(arena+hblkhd)
        222983 MiB available memory on the node where the printing process lives
------------------
     ethr =  5.29E-08,  avg # of iterations = 11.7

     negative rho (up, down):  2.061E-04 0.000E+00

     add environment contribution to local potential

     total cpu time spent up to now is      471.2 secs

     total energy              =    -300.86021071 Ry
     estimated scf accuracy    <       0.00003663 Ry

     total charge of GC-SCF    =      -3.33659262 e
     the Fermi energy          =      -1.61058510 eV
                        (error :       0.04341490 eV)
     electrostatic embedding   =      -3.17278199 Ry
     cavitation energy         =       0.01492078 Ry
     electrolyte free energy   =      -0.05947762 Ry
     correction to one-el term =     106.72271867 Ry

     iteration # 21     ecut=    80.00 Ry     beta= 0.20
     Davidson diagonalization with overlap

---- Real-time Memory Report at c_bands before calling an iterative solver
           267 MiB given to the printing process from OS
             0 MiB allocation reported by mallinfo(arena+hblkhd)
        222983 MiB available memory on the node where the printing process lives
------------------
     ethr =  5.29E-08,  avg # of iterations =  9.7

     negative rho (up, down):  2.007E-04 0.000E+00

     add environment contribution to local potential

     total cpu time spent up to now is      488.0 secs

     total energy              =    -300.86002210 Ry
     estimated scf accuracy    <       0.00003020 Ry

     total charge of GC-SCF    =      -3.30979175 e
     the Fermi energy          =      -1.64633587 eV
                        (error :       0.00766413 eV)
     electrostatic embedding   =      -3.01506940 Ry
     cavitation energy         =       0.01492078 Ry
     electrolyte free energy   =      -0.05498224 Ry
     correction to one-el term =     103.84969249 Ry

     iteration # 22     ecut=    80.00 Ry     beta= 0.20
     Davidson diagonalization with overlap

---- Real-time Memory Report at c_bands before calling an iterative solver
           267 MiB given to the printing process from OS
             0 MiB allocation reported by mallinfo(arena+hblkhd)
        222986 MiB available memory on the node where the printing process lives
------------------
     ethr =  4.77E-08,  avg # of iterations =  8.2

     negative rho (up, down):  1.965E-04 0.000E+00

     add environment contribution to local potential

     total cpu time spent up to now is      503.1 secs

     total energy              =    -300.86038695 Ry
     estimated scf accuracy    <       0.00001534 Ry

     total charge of GC-SCF    =      -3.27314622 e
     the Fermi energy          =      -1.66586400 eV
                        (error :       0.01186400 eV)
     electrostatic embedding   =      -2.96656064 Ry
     cavitation energy         =       0.01492078 Ry
     electrolyte free energy   =      -0.05360973 Ry
     correction to one-el term =     102.92892212 Ry

     iteration # 23     ecut=    80.00 Ry     beta= 0.20
     Davidson diagonalization with overlap

---- Real-time Memory Report at c_bands before calling an iterative solver
           267 MiB given to the printing process from OS
             0 MiB allocation reported by mallinfo(arena+hblkhd)
        222984 MiB available memory on the node where the printing process lives
------------------
     ethr =  2.42E-08,  avg # of iterations = 12.8

     negative rho (up, down):  1.943E-04 0.000E+00

     add environment contribution to local potential

     total cpu time spent up to now is      522.1 secs

     total energy              =    -300.86030320 Ry
     estimated scf accuracy    <       0.00000288 Ry

     total charge of GC-SCF    =      -3.34128871 e
     the Fermi energy          =      -1.69774813 eV
                        (error :       0.04374813 eV)
     electrostatic embedding   =      -2.89275443 Ry
     cavitation energy         =       0.01492078 Ry
     electrolyte free energy   =      -0.05171885 Ry
     correction to one-el term =     101.40270863 Ry

     iteration # 24     ecut=    80.00 Ry     beta= 0.20
     Davidson diagonalization with overlap

---- Real-time Memory Report at c_bands before calling an iterative solver
           267 MiB given to the printing process from OS
             0 MiB allocation reported by mallinfo(arena+hblkhd)
        222991 MiB available memory on the node where the printing process lives
------------------
     ethr =  4.55E-09,  avg # of iterations = 16.3

     negative rho (up, down):  1.900E-04 0.000E+00

     add environment contribution to local potential

     total cpu time spent up to now is      543.5 secs

     total energy              =    -300.86014014 Ry
     estimated scf accuracy    <       0.00000168 Ry

     total charge of GC-SCF    =      -3.35259524 e
     the Fermi energy          =      -1.67127764 eV
                        (error :       0.01727764 eV)
     electrostatic embedding   =      -2.99876192 Ry
     cavitation energy         =       0.01492078 Ry
     electrolyte free energy   =      -0.05503048 Ry
     correction to one-el term =     103.15962676 Ry

     iteration # 25     ecut=    80.00 Ry     beta= 0.20
     Davidson diagonalization with overlap

---- Real-time Memory Report at c_bands before calling an iterative solver
           267 MiB given to the printing process from OS
             0 MiB allocation reported by mallinfo(arena+hblkhd)
        222990 MiB available memory on the node where the printing process lives
------------------
     ethr =  2.65E-09,  avg # of iterations = 11.9

     negative rho (up, down):  1.872E-04 0.000E+00

     add environment contribution to local potential

     total cpu time spent up to now is      562.2 secs

     total energy              =    -300.86024435 Ry
     estimated scf accuracy    <       0.00000050 Ry

     total charge of GC-SCF    =      -3.38210177 e
     the Fermi energy          =      -1.67086119 eV
                        (error :       0.01686119 eV)
     electrostatic embedding   =      -3.01230855 Ry
     cavitation energy         =       0.01492078 Ry
     electrolyte free energy   =      -0.05556246 Ry
     correction to one-el term =     103.30440835 Ry

     iteration # 26     ecut=    80.00 Ry     beta= 0.20
     Davidson diagonalization with overlap

---- Real-time Memory Report at c_bands before calling an iterative solver
           267 MiB given to the printing process from OS
             0 MiB allocation reported by mallinfo(arena+hblkhd)
        222998 MiB available memory on the node where the printing process lives
------------------
     ethr =  7.82E-10,  avg # of iterations = 17.0

     negative rho (up, down):  1.864E-04 0.000E+00

     add environment contribution to local potential

     total cpu time spent up to now is      585.1 secs

     total energy              =    -300.86020828 Ry
     estimated scf accuracy    <       0.00000020 Ry

     total charge of GC-SCF    =      -3.37727164 e
     the Fermi energy          =      -1.65920722 eV
                        (error :       0.00520722 eV)
     electrostatic embedding   =      -3.05953086 Ry
     cavitation energy         =       0.01492078 Ry
     electrolyte free energy   =      -0.05706155 Ry
     correction to one-el term =     104.08536254 Ry

     iteration # 27     ecut=    80.00 Ry     beta= 0.20
     Davidson diagonalization with overlap

---- Real-time Memory Report at c_bands before calling an iterative solver
           267 MiB given to the printing process from OS
             0 MiB allocation reported by mallinfo(arena+hblkhd)
        222972 MiB available memory on the node where the printing process lives
------------------
     ethr =  3.17E-10,  avg # of iterations = 10.7

     negative rho (up, down):  1.851E-04 0.000E+00

     add environment contribution to local potential

     total cpu time spent up to now is      603.6 secs

     total energy              =    -300.86019834 Ry
     estimated scf accuracy    <       0.00000009 Ry

     total charge of GC-SCF    =      -3.38838608 e
     the Fermi energy          =      -1.66214269 eV
                        (error :       0.00814269 eV)
     electrostatic embedding   =      -3.05023089 Ry
     cavitation energy         =       0.01492078 Ry
     electrolyte free energy   =      -0.05680432 Ry
     correction to one-el term =     103.90504064 Ry

     iteration # 28     ecut=    80.00 Ry     beta= 0.20
     Davidson diagonalization with overlap

---- Real-time Memory Report at c_bands before calling an iterative solver
           267 MiB given to the printing process from OS
             0 MiB allocation reported by mallinfo(arena+hblkhd)
        222967 MiB available memory on the node where the printing process lives
------------------
     ethr =  1.45E-10,  avg # of iterations = 16.7

     negative rho (up, down):  1.841E-04 0.000E+00

     add environment contribution to local potential

     total cpu time spent up to now is      625.8 secs

     total energy              =    -300.86019070 Ry
     estimated scf accuracy    <       0.00000005 Ry

     total charge of GC-SCF    =      -3.39186295 e
     the Fermi energy          =      -1.65707843 eV
                        (error :       0.00307843 eV)
     electrostatic embedding   =      -3.06870343 Ry
     cavitation energy         =       0.01492078 Ry
     electrolyte free energy   =      -0.05737978 Ry
     correction to one-el term =     104.21915095 Ry

     iteration # 29     ecut=    80.00 Ry     beta= 0.20
     Davidson diagonalization with overlap

---- Real-time Memory Report at c_bands before calling an iterative solver
           267 MiB given to the printing process from OS
             0 MiB allocation reported by mallinfo(arena+hblkhd)
        222963 MiB available memory on the node where the printing process lives
------------------
     ethr =  7.30E-11,  avg # of iterations = 10.9

     negative rho (up, down):  1.835E-04 0.000E+00

     add environment contribution to local potential

     total cpu time spent up to now is      644.2 secs

     total energy              =    -300.86019051 Ry
     estimated scf accuracy    <       0.00000002 Ry

     total charge of GC-SCF    =      -3.39456447 e
     the Fermi energy          =      -1.65618349 eV
                        (error :       0.00218349 eV)
     electrostatic embedding   =      -3.07395249 Ry
     cavitation energy         =       0.01492078 Ry
     electrolyte free energy   =      -0.05755632 Ry
     correction to one-el term =     104.29866230 Ry

     iteration # 30     ecut=    80.00 Ry     beta= 0.20
     Davidson diagonalization with overlap

---- Real-time Memory Report at c_bands before calling an iterative solver
           267 MiB given to the printing process from OS
             0 MiB allocation reported by mallinfo(arena+hblkhd)
        222967 MiB available memory on the node where the printing process lives
------------------
     ethr =  2.46E-11,  avg # of iterations = 13.0

     negative rho (up, down):  1.832E-04 0.000E+00

     add environment contribution to local potential

     total cpu time spent up to now is      663.4 secs

     total energy              =    -300.86018917 Ry
     estimated scf accuracy    <          7.5E-09 Ry

     total charge of GC-SCF    =      -3.39610058 e
     the Fermi energy          =      -1.65515062 eV
                        (error :       0.00115062 eV)
     electrostatic embedding   =      -3.07827464 Ry
     cavitation energy         =       0.01492078 Ry
     electrolyte free energy   =      -0.05769606 Ry
     correction to one-el term =     104.36985491 Ry

     iteration # 31     ecut=    80.00 Ry     beta= 0.20
     Davidson diagonalization with overlap

---- Real-time Memory Report at c_bands before calling an iterative solver
           267 MiB given to the printing process from OS
             0 MiB allocation reported by mallinfo(arena+hblkhd)
        222960 MiB available memory on the node where the printing process lives
------------------
     ethr =  1.19E-11,  avg # of iterations = 14.6

     negative rho (up, down):  1.819E-04 0.000E+00

     total cpu time spent up to now is      679.3 secs

     End of self-consistent calculation

          k = 0.0000 0.0000 0.0000 (152015 PWs)   bands (ev):

   -48.6339 -48.6335 -48.6323 -48.6320 -48.4179 -48.4172 -48.4164 -48.4157
   -48.2098 -48.1998 -48.1977 -48.1961 -48.1933 -48.1933 -48.1925 -48.1913
   -48.1913 -48.1905 -48.1885 -48.1874  -5.0879  -4.6640  -4.0568  -3.3735
    -2.6090  -2.4457  -2.4428  -2.0520  -2.0233  -1.6216  -1.6062  -1.4370
    -1.3800  -1.2308  -1.1376  -1.1175  -0.7831  -0.7130  -0.6941  -0.5189
    -0.3165  -0.3081  -0.1581  -0.0807   0.0932

     occupation numbers 
     1.0000   1.0000   1.0000   1.0000   1.0000   1.0000   1.0000   1.0000
     1.0000   1.0000   1.0000   1.0000   1.0000   1.0000   1.0000   1.0000
     1.0000   1.0000   1.0000   1.0000   1.0000   1.0000   1.0000   1.0000
     1.0000   1.0000   1.0000   1.0021   1.0049   0.2515   0.1951   0.0025
     0.0003   0.0000   0.0000   0.0000   0.0000   0.0000   0.0000   0.0000
     0.0000   0.0000   0.0000   0.0000   0.0000

          k = 0.0000 0.1054 0.0000 (152006 PWs)   bands (ev):

   -48.6339 -48.6335 -48.6323 -48.6320 -48.4179 -48.4172 -48.4164 -48.4157
   -48.2096 -48.1997 -48.1977 -48.1961 -48.1937 -48.1933 -48.1925 -48.1914
   -48.1913 -48.1905 -48.1887 -48.1870  -5.0612  -4.6366  -4.0278  -3.3429
    -2.5793  -2.5667  -2.2760  -2.1538  -1.9012  -1.8845  -1.6244  -1.5833
    -1.5264  -1.3157  -1.1208  -1.0601  -0.8568  -0.7133  -0.6088  -0.5877
    -0.2888  -0.1763  -0.0662  -0.0205   0.1351

     occupation numbers 
     1.0000   1.0000   1.0000   1.0000   1.0000   1.0000   1.0000   1.0000
     1.0000   1.0000   1.0000   1.0000   1.0000   1.0000   1.0000   1.0000
     1.0000   1.0000   1.0000   1.0000   1.0000   1.0000   1.0000   1.0000
     1.0000   1.0000   1.0000   1.0000   1.0586   1.0696   0.2626   0.1284
     0.0361   0.0000   0.0000   0.0000   0.0000   0.0000   0.0000   0.0000
     0.0000   0.0000   0.0000   0.0000   0.0000

          k = 0.0000 0.2108 0.0000 (151950 PWs)   bands (ev):

   -48.6339 -48.6335 -48.6323 -48.6320 -48.4179 -48.4172 -48.4164 -48.4157
   -48.2090 -48.1994 -48.1977 -48.1961 -48.1949 -48.1933 -48.1925 -48.1919
   -48.1913 -48.1905 -48.1888 -48.1863  -4.9813  -4.5543  -3.9407  -3.2512
    -2.6409  -2.4916  -2.4283  -2.2257  -2.0649  -1.9989  -1.7504  -1.5967
    -1.5239  -1.5195  -1.3401  -1.1069  -1.0829  -0.7419  -0.6032  -0.4901
    -0.1684  -0.1104   0.0499   0.1468   0.2023

     occupation numbers 
     1.0000   1.0000   1.0000   1.0000   1.0000   1.0000   1.0000   1.0000
     1.0000   1.0000   1.0000   1.0000   1.0000   1.0000   1.0000   1.0000
     1.0000   1.0000   1.0000   1.0000   1.0000   1.0000   1.0000   1.0000
     1.0000   1.0000   1.0000   1.0000   1.0014   1.0094   0.8971   0.1652
     0.0339   0.0302   0.0001   0.0000   0.0000   0.0000   0.0000   0.0000
     0.0000   0.0000   0.0000   0.0000   0.0000

          k = 0.0000 0.3162 0.0000 (151992 PWs)   bands (ev):

   -48.6338 -48.6335 -48.6323 -48.6320 -48.4179 -48.4172 -48.4164 -48.4157
   -48.2079 -48.1990 -48.1977 -48.1963 -48.1961 -48.1933 -48.1927 -48.1925
   -48.1913 -48.1905 -48.1887 -48.1856  -4.8479  -4.4173  -3.7961  -3.0994
    -2.9254  -2.6658  -2.4915  -2.3279  -2.2493  -1.8422  -1.8191  -1.8136
    -1.6958  -1.3898  -1.3892  -1.3480  -1.0606  -1.0111  -0.5925  -0.4251
    -0.1288  -0.1165   0.1288   0.2269   0.2336

     occupation numbers 
     1.0000   1.0000   1.0000   1.0000   1.0000   1.0000   1.0000   1.0000
     1.0000   1.0000   1.0000   1.0000   1.0000   1.0000   1.0000   1.0000
     1.0000   1.0000   1.0000   1.0000   1.0000   1.0000   1.0000   1.0000
     1.0000   1.0000   1.0000   1.0000   1.0000   1.0830   1.0711   1.0655
     0.6222   0.0004   0.0004   0.0001   0.0000   0.0000   0.0000   0.0000
     0.0000   0.0000   0.0000   0.0000   0.0000

          k = 0.0000 0.4216 0.0000 (151948 PWs)   bands (ev):

   -48.6338 -48.6335 -48.6323 -48.6320 -48.4179 -48.4172 -48.4164 -48.4157
   -48.2065 -48.1992 -48.1977 -48.1971 -48.1961 -48.1935 -48.1933 -48.1925
   -48.1913 -48.1905 -48.1886 -48.1851  -4.6610  -4.2257  -3.5947  -3.3772
    -2.9303  -2.8856  -2.6409  -2.2591  -2.2258  -2.1282  -2.0647  -1.7506
    -1.5981  -1.5208  -1.5179  -1.1789  -1.1061  -1.0809  -0.6028  -0.5482
    -0.1220  -0.1105   0.2024   0.2036   0.4644

     occupation numbers 
     1.0000   1.0000   1.0000   1.0000   1.0000   1.0000   1.0000   1.0000
     1.0000   1.0000   1.0000   1.0000   1.0000   1.0000   1.0000   1.0000
     1.0000   1.0000   1.0000   1.0000   1.0000   1.0000   1.0000   1.0000
     1.0000   1.0000   1.0000   1.0000   1.0000   1.0001   1.0014   0.8981
     0.1694   0.0313   0.0290   0.0000   0.0000   0.0000   0.0000   0.0000
     0.0000   0.0000   0.0000   0.0000   0.0000

          k = 0.0000 0.5270 0.0000 (152033 PWs)   bands (ev):

   -48.6338 -48.6334 -48.6323 -48.6320 -48.4179 -48.4173 -48.4164 -48.4157
   -48.2049 -48.2008 -48.1977 -48.1966 -48.1961 -48.1945 -48.1933 -48.1925
   -48.1913 -48.1905 -48.1885 -48.1848  -4.4205  -3.9803  -3.7776  -3.3378
    -3.3287  -2.6836  -2.5951  -2.5667  -2.2759  -2.1541  -1.9655  -1.8849
    -1.8165  -1.6266  -1.3174  -1.2440  -1.1180  -0.8564  -0.6892  -0.6074
    -0.1757  -0.0683   0.1751   0.2353   0.3797

     occupation numbers 
     1.0000   1.0000   1.0000   1.0000   1.0000   1.0000   1.0000   1.0000
     1.0000   1.0000   1.0000   1.0000   1.0000   1.0000   1.0000   1.0000
     1.0000   1.0000   1.0000   1.0000   1.0000   1.0000   1.0000   1.0000
     1.0000   1.0000   1.0000   1.0000   1.0000   1.0000   1.0203   1.0694
     1.0687   0.2717   0.0000   0.0000   0.0000   0.0000   0.0000   0.0000
     0.0000   0.0000   0.0000   0.0000   0.0000

          k = 0.0000-0.6325 0.0000 (151994 PWs)   bands (ev):

   -48.6338 -48.6334 -48.6323 -48.6320 -48.4179 -48.4173 -48.4164 -48.4157
   -48.2038 -48.2020 -48.1977 -48.1961 -48.1959 -48.1953 -48.1933 -48.1925
   -48.1913 -48.1905 -48.1885 -48.1847  -4.1356  -4.1166  -3.6859  -3.6749
    -3.0318  -3.0221  -2.4456  -2.4428  -2.3018  -2.2799  -2.0524  -2.0235
    -1.6478  -1.6241  -1.4343  -1.2321  -1.1149  -0.7835  -0.6467  -0.5169
    -0.3064  -0.1663   0.1732   0.3409   0.3711

     occupation numbers 
     1.0000   1.0000   1.0000   1.0000   1.0000   1.0000   1.0000   1.0000
     1.0000   1.0000   1.0000   1.0000   1.0000   1.0000   1.0000   1.0000
     1.0000   1.0000   1.0000   1.0000   1.0000   1.0000   1.0000   1.0000
     1.0000   1.0000   1.0000   1.0000   1.0000   1.0000   1.0021   1.0049
     0.3669   0.2615   0.0023   0.0000   0.0000   0.0000   0.0000   0.0000
     0.0000   0.0000   0.0000   0.0000   0.0000

          k = 0.1000 0.0316 0.0000 (152067 PWs)   bands (ev):

   -48.6338 -48.6335 -48.6324 -48.6320 -48.4178 -48.4172 -48.4164 -48.4158
   -48.2096 -48.1997 -48.1985 -48.1959 -48.1934 -48.1933 -48.1925 -48.1913
   -48.1911 -48.1903 -48.1886 -48.1874  -5.0615  -4.6369  -4.0282  -3.3431
    -2.9433  -2.5783  -2.5075  -1.9205  -1.8956  -1.5828  -1.5564  -1.5039
    -1.3193  -1.2500  -1.0945  -1.0846  -0.7967  -0.6867  -0.6575  -0.5459
    -0.2857  -0.2785  -0.1194  -0.0456   0.0925

     occupation numbers 
     1.0000   1.0000   1.0000   1.0000   1.0000   1.0000   1.0000   1.0000
     1.0000   1.0000   1.0000   1.0000   1.0000   1.0000   1.0000   1.0000
     1.0000   1.0000   1.0000   1.0000   1.0000   1.0000   1.0000   1.0000
     1.0000   1.0000   1.0000   1.0453   1.0624   0.1272   0.0734   0.0199
     0.0000   0.0000   0.0000   0.0000   0.0000   0.0000   0.0000   0.0000
     0.0000   0.0000   0.0000   0.0000   0.0000

          k = 0.1000 0.1370 0.0000 (152026 PWs)   bands (ev):

   -48.6338 -48.6335 -48.6324 -48.6320 -48.4179 -48.4172 -48.4164 -48.4157
   -48.2093 -48.1995 -48.1987 -48.1956 -48.1940 -48.1936 -48.1927 -48.1916
   -48.1909 -48.1901 -48.1887 -48.1868  -5.0189  -4.5930  -3.9817  -3.2942
    -3.0550  -2.6201  -2.5308  -2.0359  -2.0076  -1.7431  -1.6451  -1.5278
    -1.4594  -1.1648  -1.0857  -1.0646  -0.7206  -0.6778  -0.5357  -0.5126
    -0.2277  -0.1195  -0.0041   0.0560   0.0969

     occupation numbers 
     1.0000   1.0000   1.0000   1.0000   1.0000   1.0000   1.0000   1.0000
     1.0000   1.0000   1.0000   1.0000   1.0000   1.0000   1.0000   1.0000
     1.0000   1.0000   1.0000   1.0000   1.0000   1.0000   1.0000   1.0000
     1.0000   1.0000   1.0000   1.0034   1.0075   0.8659   0.3539   0.0374
     0.0053   0.0000   0.0000   0.0000   0.0000   0.0000   0.0000   0.0000
     0.0000   0.0000   0.0000   0.0000   0.0000

          k = 0.1000 0.2424 0.0000 (151998 PWs)   bands (ev):

   -48.6338 -48.6335 -48.6324 -48.6320 -48.4179 -48.4172 -48.4164 -48.4157
   -48.2085 -48.1992 -48.1989 -48.1955 -48.1952 -48.1937 -48.1927 -48.1921
   -48.1908 -48.1900 -48.1888 -48.1861  -4.9229  -4.4943  -3.8774  -3.1843
    -3.1162  -2.6817  -2.5580  -2.4268  -2.1165  -2.0619  -1.5787  -1.5243
    -1.3843  -1.3825  -1.2058  -1.0521  -0.8294  -0.7692  -0.4464  -0.4449
    -0.1078  -0.0648   0.1253   0.1300   0.1963

     occupation numbers 
     1.0000   1.0000   1.0000   1.0000   1.0000   1.0000   1.0000   1.0000
     1.0000   1.0000   1.0000   1.0000   1.0000   1.0000   1.0000   1.0000
     1.0000   1.0000   1.0000   1.0000   1.0000   1.0000   1.0000   1.0000
     1.0000   1.0000   1.0000   1.0000   1.0002   1.0015   0.1174   0.0342
     0.0004   0.0003   0.0000   0.0000   0.0000   0.0000   0.0000   0.0000
     0.0000   0.0000   0.0000   0.0000   0.0000

          k = 0.1000 0.3479 0.0000 (151987 PWs)   bands (ev):

   -48.6338 -48.6334 -48.6324 -48.6320 -48.4179 -48.4172 -48.4164 -48.4157
   -48.2074 -48.1989 -48.1988 -48.1966 -48.1955 -48.1937 -48.1929 -48.1928
   -48.1908 -48.1900 -48.1887 -48.1856  -4.7735  -4.3409  -3.7156  -3.1264
    -3.0445  -3.0121  -2.6921  -2.5980  -2.2515  -2.0712  -1.9230  -1.5355
    -1.3604  -1.3521  -1.2379  -1.0756  -1.0478  -0.8553  -0.4312  -0.3935
    -0.1249  -0.0570   0.1398   0.1721   0.3304

     occupation numbers 
     1.0000   1.0000   1.0000   1.0000   1.0000   1.0000   1.0000   1.0000
     1.0000   1.0000   1.0000   1.0000   1.0000   1.0000   1.0000   1.0000
     1.0000   1.0000   1.0000   1.0000   1.0000   1.0000   1.0000   1.0000
     1.0000   1.0000   1.0000   1.0000   1.0000   1.0011   1.0437   0.0452
     0.0001   0.0001   0.0000   0.0000   0.0000   0.0000   0.0000   0.0000
     0.0000   0.0000   0.0000   0.0000   0.0000

          k = 0.1000 0.4533 0.0000 (151932 PWs)   bands (ev):

   -48.6338 -48.6334 -48.6324 -48.6320 -48.4179 -48.4172 -48.4164 -48.4157
   -48.2059 -48.1996 -48.1988 -48.1969 -48.1956 -48.1938 -48.1936 -48.1927
   -48.1909 -48.1900 -48.1886 -48.1851  -4.5705  -4.1331  -3.4988  -3.4775
    -3.0856  -3.0291  -2.7855  -2.6510  -2.3548  -2.0349  -2.0347  -1.6740
    -1.5974  -1.4267  -1.1753  -1.1478  -1.0514  -0.7653  -0.5904  -0.4908
    -0.0880  -0.0545   0.1094   0.2397   0.4301

     occupation numbers 
     1.0000   1.0000   1.0000   1.0000   1.0000   1.0000   1.0000   1.0000
     1.0000   1.0000   1.0000   1.0000   1.0000   1.0000   1.0000   1.0000
     1.0000   1.0000   1.0000   1.0000   1.0000   1.0000   1.0000   1.0000
     1.0000   1.0000   1.0000   1.0000   1.0000   1.0035   1.0035   0.5025
     0.1672   0.0017   0.0000   0.0000   0.0000   0.0000   0.0000   0.0000
     0.0000   0.0000   0.0000   0.0000   0.0000

          k = 0.1000 0.5587 0.0000 (151966 PWs)   bands (ev):

   -48.6338 -48.6334 -48.6324 -48.6320 -48.4179 -48.4172 -48.4164 -48.4158
   -48.2043 -48.2012 -48.1986 -48.1962 -48.1957 -48.1947 -48.1935 -48.1926
   -48.1910 -48.1902 -48.1886 -48.1849  -4.3140  -3.8774  -3.8577  -3.4152
    -3.2237  -2.9940  -2.7559  -2.5588  -2.4911  -2.0189  -1.9558  -1.8423
    -1.7408  -1.5199  -1.2799  -1.1867  -1.0876  -0.7238  -0.6515  -0.5628
    -0.2038  -0.0783   0.0874   0.3099   0.3112

     occupation numbers 
     1.0000   1.0000   1.0000   1.0000   1.0000   1.0000   1.0000   1.0000
     1.0000   1.0000   1.0000   1.0000   1.0000   1.0000   1.0000   1.0000
     1.0000   1.0000   1.0000   1.0000   1.0000   1.0000   1.0000   1.0000
     1.0000   1.0000   1.0000   1.0000   1.0000   1.0056   1.0247   1.0830
     0.8554   0.0306   0.0000   0.0000   0.0000   0.0000   0.0000   0.0000
     0.0000   0.0000   0.0000   0.0000   0.0000

          k = 0.1000-0.6008 0.0000 (151997 PWs)   bands (ev):

   -48.6338 -48.6334 -48.6324 -48.6320 -48.4179 -48.4172 -48.4164 -48.4158
   -48.2038 -48.2017 -48.1983 -48.1960 -48.1959 -48.1951 -48.1933 -48.1925
   -48.1912 -48.1904 -48.1886 -48.1848  -4.1966  -4.0031  -3.7512  -3.5557
    -3.0996  -2.8981  -2.8523  -2.4162  -2.3647  -2.1581  -1.9865  -1.8404
    -1.6516  -1.6083  -1.3993  -1.3719  -1.0627  -0.9439  -0.6271  -0.5614
    -0.3486  -0.1266   0.1146   0.3732   0.3783

     occupation numbers 
     1.0000   1.0000   1.0000   1.0000   1.0000   1.0000   1.0000   1.0000
     1.0000   1.0000   1.0000   1.0000   1.0000   1.0000   1.0000   1.0000
     1.0000   1.0000   1.0000   1.0000   1.0000   1.0000   1.0000   1.0000
     1.0000   1.0000   1.0000   1.0000   1.0000   1.0000   1.0127   1.0827
     0.3854   0.2026   0.0006   0.0002   0.0000   0.0000   0.0000   0.0000
     0.0000   0.0000   0.0000   0.0000   0.0000

          k = 0.1000-0.4954 0.0000 (151985 PWs)   bands (ev):

   -48.6338 -48.6334 -48.6324 -48.6320 -48.4179 -48.4172 -48.4164 -48.4158
   -48.2053 -48.2002 -48.1979 -48.1967 -48.1964 -48.1942 -48.1931 -48.1923
   -48.1914 -48.1906 -48.1886 -48.1850  -4.4743  -4.0349  -3.6393  -3.3943
    -3.1893  -2.6827  -2.6618  -2.5116  -2.2251  -2.0871  -1.9491  -1.7658
    -1.7386  -1.7139  -1.5901  -1.2554  -1.1689  -1.0370  -0.7172  -0.6514
    -0.3284  -0.0245   0.1576   0.2382   0.4446

     occupation numbers 
     1.0000   1.0000   1.0000   1.0000   1.0000   1.0000   1.0000   1.0000
     1.0000   1.0000   1.0000   1.0000   1.0000   1.0000   1.0000   1.0000
     1.0000   1.0000   1.0000   1.0000   1.0000   1.0000   1.0000   1.0000
     1.0000   1.0000   1.0000   1.0000   1.0000   1.0007   1.0280   0.9561
     0.8450   0.7210   0.1462   0.0000   0.0000   0.0000   0.0000   0.0000
     0.0000   0.0000   0.0000   0.0000   0.0000

          k = 0.1000-0.3900 0.0000 (151942 PWs)   bands (ev):

   -48.6338 -48.6334 -48.6324 -48.6320 -48.4179 -48.4172 -48.4164 -48.4158
   -48.2068 -48.1989 -48.1975 -48.1969 -48.1967 -48.1932 -48.1929 -48.1921
   -48.1916 -48.1907 -48.1887 -48.1854  -4.6988  -4.2643  -3.6351  -3.2233
    -2.9297  -2.7742  -2.4257  -2.1787  -2.1445  -2.0910  -2.0288  -1.9861
    -1.7770  -1.5818  -1.4254  -1.3998  -1.1456  -1.1223  -0.8290  -0.4485
    -0.2574  -0.1247   0.1596   0.2099   0.4393

     occupation numbers 
     1.0000   1.0000   1.0000   1.0000   1.0000   1.0000   1.0000   1.0000
     1.0000   1.0000   1.0000   1.0000   1.0000   1.0000   1.0000   1.0000
     1.0000   1.0000   1.0000   1.0000   1.0000   1.0000   1.0000   1.0000
     1.0000   1.0000   1.0000   1.0000   1.0001   1.0006   1.0042   1.0128
     0.9918   0.1246   0.0017   0.0006   0.0000   0.0000   0.0000   0.0000
     0.0000   0.0000   0.0000   0.0000   0.0000

          k = 0.1000-0.2846 0.0000 (151938 PWs)   bands (ev):

   -48.6338 -48.6334 -48.6324 -48.6320 -48.4179 -48.4172 -48.4164 -48.4158
   -48.2081 -48.1990 -48.1973 -48.1969 -48.1958 -48.1929 -48.1924 -48.1921
   -48.1917 -48.1908 -48.1888 -48.1859  -4.8696  -4.4395  -3.8195  -3.1235
    -2.7571  -2.3862  -2.3205  -2.2895  -2.1541  -2.1454  -1.8851  -1.7868
    -1.6885  -1.6647  -1.3815  -1.3670  -1.1775  -0.8834  -0.8440  -0.4169
    -0.2366  -0.0870   0.1536   0.1633   0.2118

     occupation numbers 
     1.0000   1.0000   1.0000   1.0000   1.0000   1.0000   1.0000   1.0000
     1.0000   1.0000   1.0000   1.0000   1.0000   1.0000   1.0000   1.0000
     1.0000   1.0000   1.0000   1.0000   1.0000   1.0000   1.0000   1.0000
     1.0000   1.0000   1.0000   1.0000   1.0000   1.0001   1.0692   1.0179
     0.5817   0.4523   0.0003   0.0002   0.0000   0.0000   0.0000   0.0000
     0.0000   0.0000   0.0000   0.0000   0.0000

          k = 0.1000-0.1792 0.0000 (151999 PWs)   bands (ev):

   -48.6338 -48.6335 -48.6324 -48.6320 -48.4179 -48.4172 -48.4164 -48.4158
   -48.2090 -48.1994 -48.1977 -48.1965 -48.1944 -48.1930 -48.1922 -48.1917
   -48.1915 -48.1907 -48.1888 -48.1866  -4.9869  -4.5601  -3.9469  -3.2575
    -2.5728  -2.4955  -2.2479  -2.1385  -2.1120  -1.8417  -1.8302  -1.7623
    -1.5437  -1.5078  -1.3761  -1.2085  -1.0606  -0.7751  -0.6830  -0.4747
    -0.3015  -0.1752   0.0418   0.1295   0.1643

     occupation numbers 
     1.0000   1.0000   1.0000   1.0000   1.0000   1.0000   1.0000   1.0000
     1.0000   1.0000   1.0000   1.0000   1.0000   1.0000   1.0000   1.0000
     1.0000   1.0000   1.0000   1.0000   1.0000   1.0000   1.0000   1.0000
     1.0000   1.0000   1.0000   1.0001   1.0003   1.0829   1.0792   0.9437
     0.0549   0.0222   0.0003   0.0000   0.0000   0.0000   0.0000   0.0000
     0.0000   0.0000   0.0000   0.0000   0.0000

          k = 0.1000-0.0738 0.0000 (152043 PWs)   bands (ev):

   -48.6338 -48.6335 -48.6324 -48.6320 -48.4178 -48.4172 -48.4164 -48.4158
   -48.2095 -48.1997 -48.1981 -48.1962 -48.1935 -48.1932 -48.1924 -48.1914
   -48.1913 -48.1905 -48.1886 -48.1872  -5.0509  -4.6260  -4.0166  -3.3309
    -2.7819  -2.5664  -2.3452  -2.0319  -1.7959  -1.7198  -1.6282  -1.5584
    -1.5113  -1.3942  -1.0874  -1.0328  -1.0247  -0.6881  -0.6190  -0.6123
    -0.3533  -0.2779  -0.0740  -0.0258   0.1343

     occupation numbers 
     1.0000   1.0000   1.0000   1.0000   1.0000   1.0000   1.0000   1.0000
     1.0000   1.0000   1.0000   1.0000   1.0000   1.0000   1.0000   1.0000
     1.0000   1.0000   1.0000   1.0000   1.0000   1.0000   1.0000   1.0000
     1.0000   1.0000   1.0000   1.0039   1.0378   0.7525   0.2785   0.0767
     0.0244   0.0005   0.0000   0.0000   0.0000   0.0000   0.0000   0.0000
     0.0000   0.0000   0.0000   0.0000   0.0000

          k = 0.2000 0.0632 0.0000 (151969 PWs)   bands (ev):

   -48.6337 -48.6334 -48.6325 -48.6321 -48.4177 -48.4171 -48.4165 -48.4159
   -48.2090 -48.2000 -48.1994 -48.1957 -48.1938 -48.1934 -48.1924 -48.1914
   -48.1906 -48.1898 -48.1887 -48.1874  -4.9824  -4.5557  -3.9424  -3.3931
    -3.2522  -2.9491  -2.4865  -2.3023  -1.6201  -1.5938  -1.4775  -1.3414
    -1.2942  -1.2819  -0.9665  -0.9435  -0.8594  -0.6032  -0.5675  -0.5545
    -0.2106  -0.1906  -0.0249  -0.0088   0.0592

     occupation numbers 
     1.0000   1.0000   1.0000   1.0000   1.0000   1.0000   1.0000   1.0000
     1.0000   1.0000   1.0000   1.0000   1.0000   1.0000   1.0000   1.0000
     1.0000   1.0000   1.0000   1.0000   1.0000   1.0000   1.0000   1.0000
     1.0000   1.0000   1.0000   1.0000   0.2454   0.1565   0.0093   0.0001
     0.0000   0.0000   0.0000   0.0000   0.0000   0.0000   0.0000   0.0000
     0.0000   0.0000   0.0000   0.0000   0.0000

          k = 0.2000 0.1687 0.0000 (151968 PWs)   bands (ev):

   -48.6337 -48.6334 -48.6325 -48.6321 -48.4177 -48.4171 -48.4165 -48.4159
   -48.2086 -48.2003 -48.1991 -48.1954 -48.1943 -48.1939 -48.1925 -48.1917
   -48.1904 -48.1896 -48.1888 -48.1868  -4.9238  -4.4954  -3.8786  -3.4916
    -3.1850  -3.0496  -2.4211  -2.4035  -2.1228  -1.7063  -1.6958  -1.4319
    -1.1671  -1.0914  -1.0286  -0.9326  -0.6200  -0.5884  -0.4927  -0.3976
    -0.0998  -0.0805   0.0723   0.1237   0.1893

     occupation numbers 
     1.0000   1.0000   1.0000   1.0000   1.0000   1.0000   1.0000   1.0000
     1.0000   1.0000   1.0000   1.0000   1.0000   1.0000   1.0000   1.0000
     1.0000   1.0000   1.0000   1.0000   1.0000   1.0000   1.0000   1.0000
     1.0000   1.0000   1.0000   1.0000   1.0002   0.6800   0.6225   0.0021
     0.0000   0.0000   0.0000   0.0000   0.0000   0.0000   0.0000   0.0000
     0.0000   0.0000   0.0000   0.0000   0.0000

          k = 0.2000 0.2741 0.0000 (152020 PWs)   bands (ev):

   -48.6337 -48.6333 -48.6325 -48.6321 -48.4178 -48.4171 -48.4165 -48.4159
   -48.2077 -48.2005 -48.1988 -48.1956 -48.1954 -48.1940 -48.1925 -48.1923
   -48.1903 -48.1895 -48.1888 -48.1862  -4.8119  -4.3803  -3.7570  -3.5383
    -3.0973  -3.0569  -2.6365  -2.4517  -2.3074  -2.1775  -1.7353  -1.5436
    -1.3047  -1.0611  -0.9273  -0.9020  -0.7638  -0.5411  -0.3747  -0.3392
    -0.1118   0.0022   0.1867   0.2530   0.2940

     occupation numbers 
     1.0000   1.0000   1.0000   1.0000   1.0000   1.0000   1.0000   1.0000
     1.0000   1.0000   1.0000   1.0000   1.0000   1.0000   1.0000   1.0000
     1.0000   1.0000   1.0000   1.0000   1.0000   1.0000   1.0000   1.0000
     1.0000   1.0000   1.0000   1.0000   1.0000   1.0000   0.8297   0.0549
     0.0000   0.0000   0.0000   0.0000   0.0000   0.0000   0.0000   0.0000
     0.0000   0.0000   0.0000   0.0000   0.0000

          k = 0.2000 0.3795 0.0000 (151962 PWs)   bands (ev):

   -48.6337 -48.6333 -48.6325 -48.6321 -48.4178 -48.4171 -48.4165 -48.4159
   -48.2065 -48.2005 -48.1987 -48.1967 -48.1954 -48.1940 -48.1930 -48.1925
   -48.1904 -48.1895 -48.1888 -48.1857  -4.6465  -4.2106  -3.5783  -3.5331
    -3.1075  -3.0920  -2.8689  -2.6565  -2.4464  -2.1112  -1.9727  -1.7310
    -1.2928  -1.0758  -1.0538  -0.9290  -0.9125  -0.5505  -0.3879  -0.3420
    -0.1080  -0.0454   0.1694   0.2892   0.4978

     occupation numbers 
     1.0000   1.0000   1.0000   1.0000   1.0000   1.0000   1.0000   1.0000
     1.0000   1.0000   1.0000   1.0000   1.0000   1.0000   1.0000   1.0000
     1.0000   1.0000   1.0000   1.0000   1.0000   1.0000   1.0000   1.0000
     1.0000   1.0000   1.0000   1.0000   1.0000   1.0003   1.0174   0.8088
     0.0000   0.0000   0.0000   0.0000   0.0000   0.0000   0.0000   0.0000
     0.0000   0.0000   0.0000   0.0000   0.0000

          k = 0.2000 0.4849 0.0000 (151925 PWs)   bands (ev):

   -48.6337 -48.6333 -48.6325 -48.6321 -48.4178 -48.4171 -48.4165 -48.4159
   -48.2050 -48.2003 -48.1998 -48.1965 -48.1955 -48.1939 -48.1939 -48.1925
   -48.1905 -48.1896 -48.1887 -48.1853  -4.4275  -3.9866  -3.5286  -3.4760
    -3.3432  -3.0761  -3.0338  -2.6250  -2.3966  -2.3877  -1.8823  -1.6835
    -1.6226  -1.1960  -1.0799  -1.0721  -0.9305  -0.6497  -0.5612  -0.5216
    -0.0759   0.0430   0.0586   0.3199   0.3721

     occupation numbers 
     1.0000   1.0000   1.0000   1.0000   1.0000   1.0000   1.0000   1.0000
     1.0000   1.0000   1.0000   1.0000   1.0000   1.0000   1.0000   1.0000
     1.0000   1.0000   1.0000   1.0000   1.0000   1.0000   1.0000   1.0000
     1.0000   1.0000   1.0000   1.0000   1.0000   1.0000   1.0709   0.5544
     0.2553   0.0000   0.0000   0.0000   0.0000   0.0000   0.0000   0.0000
     0.0000   0.0000   0.0000   0.0000   0.0000

          k = 0.2000 0.5903 0.0000 (151971 PWs)   bands (ev):

   -48.6337 -48.6333 -48.6325 -48.6321 -48.4178 -48.4171 -48.4165 -48.4159
   -48.2036 -48.2013 -48.1999 -48.1958 -48.1957 -48.1948 -48.1938 -48.1923
   -48.1906 -48.1898 -48.1887 -48.1852  -4.1551  -3.8978  -3.7081  -3.4477
    -3.3672  -3.0537  -2.9228  -2.7849  -2.3148  -2.2760  -2.0398  -1.6033
    -1.5849  -1.4121  -1.3223  -1.2648  -0.9615  -0.9129  -0.5632  -0.5515
    -0.2751  -0.0380  -0.0296   0.3724   0.4475

     occupation numbers 
     1.0000   1.0000   1.0000   1.0000   1.0000   1.0000   1.0000   1.0000
     1.0000   1.0000   1.0000   1.0000   1.0000   1.0000   1.0000   1.0000
     1.0000   1.0000   1.0000   1.0000   1.0000   1.0000   1.0000   1.0000
     1.0000   1.0000   1.0000   1.0000   1.0000   1.0000   1.0030   0.1856
     0.1325   0.0010   0.0000   0.0000   0.0000   0.0000   0.0000   0.0000
     0.0000   0.0000   0.0000   0.0000   0.0000

          k = 0.2000-0.5692 0.0000 (151945 PWs)   bands (ev):

   -48.6337 -48.6333 -48.6325 -48.6321 -48.4178 -48.4171 -48.4165 -48.4159
   -48.2038 -48.2011 -48.1994 -48.1962 -48.1959 -48.1947 -48.1935 -48.1922
   -48.1909 -48.1901 -48.1887 -48.1852  -4.2137  -3.8295  -3.7669  -3.3775
    -3.2072  -3.1158  -2.7595  -2.7135  -2.3784  -2.1124  -1.9694  -1.7888
    -1.6316  -1.5389  -1.3979  -1.3049  -1.2169  -0.9618  -0.6417  -0.5650
    -0.5029  -0.0587  -0.0118   0.4051   0.4123

     occupation numbers 
     1.0000   1.0000   1.0000   1.0000   1.0000   1.0000   1.0000   1.0000
     1.0000   1.0000   1.0000   1.0000   1.0000   1.0000   1.0000   1.0000
[...]
     1.0000   1.0000   1.0000   1.0000   1.0000   1.0000   1.0000   1.0000
     1.0000   1.0000   1.0000   1.0000   1.0000   1.0000   1.0000   1.0000
     1.0000   1.0000   1.0000   1.0000   1.0000   1.0000   1.0007   1.0007
     1.0783   1.0783   0.0000   0.0000   0.0000   0.0000   0.0000   0.0000
     0.0000   0.0000   0.0000   0.0000   0.0000

     the Fermi energy is    -1.6540 ev

!    total energy              =    -300.86020378 Ry
     total all-electron energy =      -300.860366 Ry
     estimated scf accuracy    <          4.6E-13 Ry

!    total charge of GC-SCF    =      -3.39822466 e
     smearing contrib. (-TS)   =      -0.00090922 Ry
     internal energy E=F+TS    =    -300.85929456 Ry

     The total energy is F=E-TS. E is the sum of the following terms:
     one-electron contribution =   -3672.06868862 Ry
     hartree contribution      =    1806.19201367 Ry
     xc contribution           =     -72.64266911 Ry
     ewald contribution        =    1534.14407617 Ry
     one-center paw contrib.   =       1.76478284 Ry
      -> PAW hartree energy AE =       7.42270661 Ry
      -> PAW hartree energy PS =      -7.19966596 Ry
      -> PAW xc energy AE      =      -3.48330657 Ry
      -> PAW xc energy PS      =       3.34862698 Ry
      -> total E_H with PAW    =    1806.41505432 Ry
      -> total E_XC with PAW   =     -72.77734871 Ry
     pot.stat. contrib. (-muN) =       0.41311115 Ry
     electrostatic embedding   =      -3.08399547 Ry
     cavitation energy         =       0.01491982 Ry
     electrolyte free energy   =      -0.05788247 Ry
     correction to one-el term =     104.46503745 Ry

     WARNING: you are using the parabolic pbc correction;
              the potential shift above must be added to 
              band and Fermi energies.

     convergence has been achieved in  13 iterations
     The dielectric solvent contribution to forces
     atom    1 type  1   force =     0.00000586   -0.01307050    0.15628508
     atom    2 type  1   force =     0.00000014    0.00451430    0.09484294
     atom    3 type  1   force =     0.00000068   -0.00159808    0.06536366
     atom    4 type  1   force =    -0.00000010    0.00010568    0.01638919
     atom    5 type  1   force =    -0.00000041   -0.00010469   -0.01632769
     atom    6 type  1   force =    -0.00000017    0.00159407   -0.06532702
     atom    7 type  1   force =    -0.00000050   -0.00450575   -0.09480772
     atom    8 type  1   force =    -0.00000625    0.01306301   -0.15628369
     atom    9 type  1   force =     0.00000446   -0.00838036   -0.11487874
     atom   10 type  1   force =    -0.00000206    0.00840109    0.11489352
     atom   11 type  1   force =     0.00000441   -0.01307146    0.15628419
     atom   12 type  1   force =     0.00000008    0.00451391    0.09484365
     atom   13 type  1   force =    -0.00000008   -0.00159799    0.06536216
     atom   14 type  1   force =     0.00000058    0.00010595    0.01638583
     atom   15 type  1   force =    -0.00000009   -0.00010456   -0.01632486
     atom   16 type  1   force =    -0.00000042    0.00159427   -0.06532836
     atom   17 type  1   force =     0.00000026   -0.00450486   -0.09480541
     atom   18 type  1   force =    -0.00000404    0.01306375   -0.15628487
     atom   19 type  1   force =     0.00000294   -0.00838110   -0.11488595
     atom   20 type  1   force =    -0.00000529    0.00839776    0.11488874


     Forces acting on atoms (cartesian axes, Ry/au):

     atom    1 type  1   force =    -0.00000013   -0.00017020   -0.00014257
     atom    2 type  1   force =    -0.00000446    0.00024512    0.00014079
     atom    3 type  1   force =     0.00000155   -0.00011414    0.00007550
     atom    4 type  1   force =     0.00000163   -0.00027509    0.00027798
     atom    5 type  1   force =     0.00000255    0.00026309   -0.00023731
     atom    6 type  1   force =    -0.00000435    0.00010868   -0.00005679
     atom    7 type  1   force =     0.00000145   -0.00025147   -0.00013814
     atom    8 type  1   force =    -0.00000104    0.00018242    0.00011278
     atom    9 type  1   force =     0.00000404   -0.00036874   -0.00022640
     atom   10 type  1   force =    -0.00000556    0.00038279    0.00018798
     atom   11 type  1   force =     0.00000210   -0.00016946   -0.00014069
     atom   12 type  1   force =    -0.00000260    0.00025089    0.00014555
     atom   13 type  1   force =     0.00000872   -0.00011095    0.00007508
     atom   14 type  1   force =    -0.00000390   -0.00027856    0.00027273
     atom   15 type  1   force =     0.00000048    0.00026168   -0.00023534
     atom   16 type  1   force =    -0.00000619    0.00010369   -0.00006033
     atom   17 type  1   force =     0.00000557   -0.00025337   -0.00013298
     atom   18 type  1   force =    -0.00000197    0.00018189    0.00011587
     atom   19 type  1   force =     0.00000634   -0.00036813   -0.00022268
     atom   20 type  1   force =    -0.00000421    0.00037986    0.00018898
     The non-local contrib.  to forces
     atom    1 type  1   force =     0.00002640    0.00621342   -0.02616253
     atom    2 type  1   force =     0.00004342    0.00060437    0.00479088
     atom    3 type  1   force =     0.00002933    0.00098845    0.00155888
     atom    4 type  1   force =     0.00001065   -0.00146893   -0.00184775
     atom    5 type  1   force =    -0.00000465    0.00147433    0.00189633
     atom    6 type  1   force =    -0.00003283   -0.00096955   -0.00152540
     atom    7 type  1   force =    -0.00004848   -0.00062200   -0.00480390
     atom    8 type  1   force =    -0.00002782   -0.00620767    0.02611811
     atom    9 type  1   force =     0.00000271    0.00638725    0.03335782
     atom   10 type  1   force =    -0.00000732   -0.00639353   -0.03338895
     atom   11 type  1   force =     0.00003136    0.00621262   -0.02615707
     atom   12 type  1   force =     0.00004747    0.00060638    0.00479498
     atom   13 type  1   force =     0.00003948    0.00098891    0.00156107
     atom   14 type  1   force =     0.00000203   -0.00146939   -0.00185174
     atom   15 type  1   force =    -0.00000901    0.00147474    0.00188881
     atom   16 type  1   force =    -0.00003587   -0.00097190   -0.00153052
     atom   17 type  1   force =    -0.00004268   -0.00062422   -0.00479941
     atom   18 type  1   force =    -0.00002898   -0.00620642    0.02611789
     atom   19 type  1   force =     0.00000813    0.00638722    0.03336243
     atom   20 type  1   force =    -0.00000319   -0.00639396   -0.03339054
     The ionic contribution  to forces
     atom    1 type  1   force =    -0.00000057    0.06971859   -9.69419463
     atom    2 type  1   force =    -0.00023350   -0.03641802   -6.19705906
     atom    3 type  1   force =    -0.00009730    0.01623112   -4.34457218
     atom    4 type  1   force =    -0.00006912   -0.01413435   -1.02801775
     atom    5 type  1   force =     0.00019080    0.01400223    1.02838954
     atom    6 type  1   force =     0.00001045   -0.01607393    4.34527098
     atom    7 type  1   force =     0.00015288    0.03609697    6.19671706
     atom    8 type  1   force =    -0.00002715   -0.06952270    9.69431368
     atom    9 type  1   force =     0.00006048    0.04618609   11.04692778
     atom   10 type  1   force =    -0.00011097   -0.04606271  -11.04762121
     atom   11 type  1   force =     0.00006114    0.06973190   -9.69421026
     atom   12 type  1   force =    -0.00014836   -0.03632216   -6.19705455
     atom   13 type  1   force =     0.00011258    0.01628527   -4.34445254
     atom   14 type  1   force =    -0.00021607   -0.01420775   -1.02788663
     atom   15 type  1   force =     0.00010248    0.01397550    1.02815938
     atom   16 type  1   force =    -0.00002761   -0.01615367    4.34529055
     atom   17 type  1   force =     0.00022840    0.03606411    6.19663848
     atom   18 type  1   force =    -0.00004304   -0.06950723    9.69415453
     atom   19 type  1   force =     0.00012931    0.04619372   11.04686239
     atom   20 type  1   force =    -0.00007482   -0.04608299  -11.04765556
     The local contribution  to forces
     atom    1 type  1   force =    -0.00003182   -0.06303189    9.56392870
     atom    2 type  1   force =     0.00018548    0.03154448    6.09756563
     atom    3 type  1   force =     0.00006886   -0.01573563    4.27772473
     atom    4 type  1   force =     0.00006019    0.01522257    1.01375414
     atom    5 type  1   force =    -0.00018319   -0.01510883   -1.01419533
     atom    6 type  1   force =     0.00001820    0.01555809   -4.27847497
     atom    7 type  1   force =    -0.00010245   -0.03122068   -6.09724320
     atom    8 type  1   force =     0.00006017    0.06285000   -9.56403441
     atom    9 type  1   force =    -0.00006360   -0.04456249  -10.96563199
     atom   10 type  1   force =     0.00011477    0.04443872   10.96630335
     atom   11 type  1   force =    -0.00009478   -0.06304268    9.56394166
     atom   12 type  1   force =     0.00009820    0.03145277    6.09756107
     atom   13 type  1   force =    -0.00014327   -0.01578715    4.27760397
     atom   14 type  1   force =     0.00020957    0.01529270    1.01362510
     atom   15 type  1   force =    -0.00009288   -0.01508405   -1.01395851
     atom   16 type  1   force =     0.00005770    0.01563499   -4.27849161
     atom   17 type  1   force =    -0.00018040   -0.03118839   -6.09716626
     atom   18 type  1   force =     0.00007408    0.06283203   -9.56387077
     atom   19 type  1   force =    -0.00013403   -0.04456875  -10.96556026
     atom   20 type  1   force =     0.00007908    0.04445982   10.96634508
     The core correction contribution to forces
     atom    1 type  1   force =     0.00000000    0.00000000    0.00000000
     atom    2 type  1   force =     0.00000000    0.00000000    0.00000000
     atom    3 type  1   force =     0.00000000    0.00000000    0.00000000
     atom    4 type  1   force =     0.00000000    0.00000000    0.00000000
     atom    5 type  1   force =     0.00000000    0.00000000    0.00000000
     atom    6 type  1   force =     0.00000000    0.00000000    0.00000000
     atom    7 type  1   force =     0.00000000    0.00000000    0.00000000
     atom    8 type  1   force =     0.00000000    0.00000000    0.00000000
     atom    9 type  1   force =     0.00000000    0.00000000    0.00000000
     atom   10 type  1   force =     0.00000000    0.00000000    0.00000000
     atom   11 type  1   force =     0.00000000    0.00000000    0.00000000
     atom   12 type  1   force =     0.00000000    0.00000000    0.00000000
     atom   13 type  1   force =     0.00000000    0.00000000    0.00000000
     atom   14 type  1   force =     0.00000000    0.00000000    0.00000000
     atom   15 type  1   force =     0.00000000    0.00000000    0.00000000
     atom   16 type  1   force =     0.00000000    0.00000000    0.00000000
     atom   17 type  1   force =     0.00000000    0.00000000    0.00000000
     atom   18 type  1   force =     0.00000000    0.00000000    0.00000000
     atom   19 type  1   force =     0.00000000    0.00000000    0.00000000
     atom   20 type  1   force =     0.00000000    0.00000000    0.00000000
     The Hubbard contrib.    to forces
     atom    1 type  1   force =     0.00000000    0.00000000    0.00000000
     atom    2 type  1   force =     0.00000000    0.00000000    0.00000000
     atom    3 type  1   force =     0.00000000    0.00000000    0.00000000
     atom    4 type  1   force =     0.00000000    0.00000000    0.00000000
     atom    5 type  1   force =     0.00000000    0.00000000    0.00000000
     atom    6 type  1   force =     0.00000000    0.00000000    0.00000000
     atom    7 type  1   force =     0.00000000    0.00000000    0.00000000
     atom    8 type  1   force =     0.00000000    0.00000000    0.00000000
     atom    9 type  1   force =     0.00000000    0.00000000    0.00000000
     atom   10 type  1   force =     0.00000000    0.00000000    0.00000000
     atom   11 type  1   force =     0.00000000    0.00000000    0.00000000
     atom   12 type  1   force =     0.00000000    0.00000000    0.00000000
     atom   13 type  1   force =     0.00000000    0.00000000    0.00000000
     atom   14 type  1   force =     0.00000000    0.00000000    0.00000000
     atom   15 type  1   force =     0.00000000    0.00000000    0.00000000
     atom   16 type  1   force =     0.00000000    0.00000000    0.00000000
     atom   17 type  1   force =     0.00000000    0.00000000    0.00000000
     atom   18 type  1   force =     0.00000000    0.00000000    0.00000000
     atom   19 type  1   force =     0.00000000    0.00000000    0.00000000
     atom   20 type  1   force =     0.00000000    0.00000000    0.00000000
     The SCF correction term to forces
     atom    1 type  1   force =    -0.00000001    0.00000019    0.00000082
     atom    2 type  1   force =     0.00000000    0.00000001    0.00000041
     atom    3 type  1   force =    -0.00000001    0.00000001    0.00000041
     atom    4 type  1   force =     0.00000000   -0.00000005    0.00000018
     atom    5 type  1   force =     0.00000000    0.00000005   -0.00000016
     atom    6 type  1   force =     0.00000000   -0.00000000   -0.00000037
     atom    7 type  1   force =    -0.00000001    0.00000001   -0.00000036
     atom    8 type  1   force =     0.00000002   -0.00000021   -0.00000090
     atom    9 type  1   force =    -0.00000001    0.00000079   -0.00000125
     atom   10 type  1   force =     0.00000002   -0.00000078    0.00000127
     atom   11 type  1   force =    -0.00000002    0.00000018    0.00000081
     atom   12 type  1   force =     0.00000001    0.00000001    0.00000041
     atom   13 type  1   force =     0.00000001    0.00000003    0.00000043
     atom   14 type  1   force =    -0.00000002   -0.00000006    0.00000018
     atom   15 type  1   force =    -0.00000001    0.00000006   -0.00000016
     atom   16 type  1   force =     0.00000001    0.00000000   -0.00000038
     atom   17 type  1   force =    -0.00000001    0.00000001   -0.00000038
     atom   18 type  1   force =     0.00000001   -0.00000023   -0.00000089
     atom   19 type  1   force =    -0.00000002    0.00000078   -0.00000127
     atom   20 type  1   force =     0.00000001   -0.00000076    0.00000127

     Total force =     0.001369     Total SCF correction =     0.000004
     Energy error            =      5.9E-06 Ry
     Gradient error          =      3.8E-04 Ry/Bohr

     bfgs converged in   5 scf cycles and   4 bfgs steps
     (criteria: energy <  1.0E-05 Ry, force <  3.9E-04 Ry/Bohr)

     End of BFGS Geometry Optimization

     Final energy             =    -300.8602037823 Ry

     File ./Li/Lithium.bfgs deleted, as requested
Begin final coordinates

ATOMIC_POSITIONS (angstrom)
Li               1.7192341777        2.2410629812       20.9260629072
Li               0.0020868743        4.2849424516       22.4063225989
Li               0.0008605589        1.1622047175       23.1600808801
Li               1.7184458636        3.1838405094       24.5354373295
Li               1.7166573021        0.0755914358       25.3960561712
Li              -0.0008085936        2.0969009408       26.7722806873
Li               1.7154942490        4.4057935359       27.5262028443
Li               1.7159455897        1.0172347290       29.0077953226
Li              -0.0026086663        3.4407581349       29.7562016464
Li               3.4377981191       -0.1825392118       20.1776801329
Li               5.1543287908        2.2410742812       20.9260220720
Li               3.4372709985        4.2848223640       22.4062808016
Li               3.4359375886        1.1621343842       23.1601124817
Li               5.1536977949        3.1838937894       24.5355395296
Li               5.1518032112        0.0756184520       25.3959803902
Li               3.4343251706        2.0969854942       26.7723227363
Li               5.1506169336        4.4057947416       27.5261344720
Li               5.1511486627        1.0172627568       29.0076894460
Li               3.4325112040        3.4407329383       29.7561142712
Li               6.8729127739       -0.1824316517       20.1776381632
End final coordinates



     Writing all to output data dir ./Li/Lithium.save/ :
     XML data file
     init_run     :     10.41s CPU     19.21s WALL (       1 calls)
     electrons    :   1009.45s CPU   1350.92s WALL (       5 calls)
     update_pot   :      0.23s CPU      0.28s WALL (       4 calls)
     forces       :     14.55s CPU     15.66s WALL (       5 calls)

     Called by init_run:
     wfcinit      :      1.50s CPU      2.20s WALL (       1 calls)
     wfcinit:wfcr :      1.44s CPU      2.13s WALL (      31 calls)
     potinit      :      0.70s CPU      0.76s WALL (       1 calls)
     hinit0       :      4.46s CPU     12.35s WALL (       1 calls)

     Called by electrons:
     c_bands      :    746.56s CPU   1026.44s WALL (      76 calls)
     sum_band     :     54.99s CPU     77.10s WALL (      76 calls)
     v_of_rho     :      3.05s CPU      3.69s WALL (      77 calls)
     v_h          :      0.30s CPU      0.35s WALL (      77 calls)
     v_xc         :      2.75s CPU      3.33s WALL (      77 calls)
     newd         :      2.22s CPU      4.07s WALL (      77 calls)
     PAW_pot      :      0.62s CPU      0.86s WALL (      81 calls)
     mix_rho      :      8.74s CPU     11.44s WALL (      76 calls)

     Called by c_bands:
     init_us_2    :      3.10s CPU      3.61s WALL (    5022 calls)
     cegterg      :    693.24s CPU    888.51s WALL (    2564 calls)

     Called by sum_band:
     sum_band:wei :      0.14s CPU      0.17s WALL (      76 calls)
     sum_band:loo :     53.16s CPU     74.71s WALL (      76 calls)
     sum_band:buf :      0.44s CPU      0.52s WALL (    2356 calls)
     sum_band:ini :      1.06s CPU      1.17s WALL (    2356 calls)
     sum_band:cal :      6.16s CPU      7.72s WALL (    2480 calls)
     sum_band:bec :      0.13s CPU      0.15s WALL (    2480 calls)
     addusdens    :      1.16s CPU      1.23s WALL (      76 calls)
                                        0.00s GPU  (      76 calls)
     addusd:skk   :      0.18s CPU      0.18s WALL (      76 calls)
                                        0.00s GPU  (      76 calls)

     Called by *egterg:
     cdiaghg      :    149.97s CPU    157.44s WALL (   25894 calls)
     cegterg:over :     35.40s CPU     39.73s WALL (   23699 calls)
     cegterg:upda :     28.76s CPU     30.09s WALL (   23699 calls)
     cegterg:last :      8.48s CPU      8.68s WALL (    3438 calls)
     h_psi        :    435.12s CPU    614.53s WALL (   26294 calls)
     s_psi        :     21.56s CPU     23.05s WALL (   26294 calls)
     g_psi        :      0.52s CPU      0.56s WALL (   23699 calls)

     Called by h_psi:
     h_psi:calbec :     35.51s CPU     44.80s WALL (   26294 calls)
     vloc_psi     :    375.03s CPU    541.67s WALL (   26294 calls)
                                        0.00s GPU  (   26294 calls)
     add_vuspsi   :     22.69s CPU     25.96s WALL (   26294 calls)

     General routines
     calbec       :     42.92s CPU     53.91s WALL (   29394 calls)
     fft          :      6.28s CPU     14.79s WALL (    1009 calls)
     ffts         :      7.44s CPU      9.59s WALL (    8394 calls)
     fftw         :    404.32s CPU    584.80s WALL (  977696 calls)
     interpolate  :      0.91s CPU      0.96s WALL (      77 calls)

     Parallel routines

     PAW routines
     PAW_pot      :      0.62s CPU      0.86s WALL (      81 calls)

     Environ routines

     PWSCF        :  17m30.63s CPU  23m25.23s WALL


   This run was terminated on:   2:20:38  24Jan2025            

=------------------------------------------------------------------------------=
   JOB DONE.
=------------------------------------------------------------------------------=
