
     Program PWSCF v.7.4 starts on 25Dec2024 at 22:21:52 

     This program is part of the open-source Quantum ESPRESSO suite
     for quantum simulation of materials; please cite
         "P. Giannozzi et al., J. Phys.:Condens. Matter 21 395502 (2009);
         "P. Giannozzi et al., J. Phys.:Condens. Matter 29 465901 (2017);
         "P. Giannozzi et al., J. Chem. Phys. 152 154105 (2020);
          URL http://www.quantum-espresso.org", 
     in publications or presentations arising from this work. More details at
     http://www.quantum-espresso.org/quote

     Parallel version (MPI & OpenMP), running on     192 processor cores
     Number of MPI processes:               192
     Threads/MPI process:                     1

     MPI processes distributed on     1 nodes
     642974 MiB available memory on the printing compute node when the environment starts
 
     Reading input from espresso.pwi
Warning: card &FCP ignored
Warning: card / ignored
Warning: card &RISM ignored
Warning: card / ignored

     Current dimensions of program PWSCF are:
     Max number of different atomic species (ntypx) = 10
     Max number of k-points (npk) =  40000
     Max angular momentum in pseudopotentials (lmaxx) =  4

     IMPORTANT: XC functional enforced from input :
     Exchange-correlation= PBE
                           (   1   4   3   4   0   0   0)
     Any further DFT definition will be discarded
     Please, verify this is what you really want

     Found identity + ( -0.5000 -0.5000 -0.5000) symmetry
     This is a supercell, fractional translations are disabled
     Message from routine setup:
     using ibrav=0 with symmetry is DISCOURAGED, use correct ibrav instead
 
     K-points division:     npool     =      12
     R & G space division:  proc/nbgrp/npool/nimage =      16
     Subspace diagonalization in iterative solution of the eigenvalue problem:
     a serial algorithm will be used

 
     Parallelization info
     --------------------
     sticks:   dense  smooth     PW     G-vecs:    dense   smooth      PW
     Min         168      67     20                 6562     1669     270
     Max         169      68     21                 6565     1672     272
     Sum        2701    1085    325               105015    26745    4337
 
     Using Slab Decomposition
 


     bravais-lattice index     =            0
     lattice parameter (alat)  =       6.5007  a.u.
     unit-cell volume          =     274.7084 (a.u.)^3
     number of atoms/cell      =            2
     number of atomic types    =            1
     number of electrons       =         6.00
     number of Kohn-Sham states=            7
     kinetic-energy cutoff     =      80.0000  Ry
     charge density cutoff     =     800.0000  Ry
     scf convergence threshold =      1.0E-14
     mixing beta               =       0.8000
     number of iterations used =            8  plain     mixing
     energy convergence thresh.=      1.0E-10
     force convergence thresh. =      1.0E-10
     press convergence thresh. =      1.0E-01
     Exchange-correlation= PBE
                           (   1   4   3   4   0   0   0)
     nstep                     =          999


     celldm(1)=   6.500658  celldm(2)=   0.000000  celldm(3)=   0.000000
     celldm(4)=   0.000000  celldm(5)=   0.000000  celldm(6)=   0.000000

     crystal axes: (cart. coord. in units of alat)
               a(1) = (   1.000000   0.000000   0.000000 )  
               a(2) = (   0.000000   1.000000   0.000000 )  
               a(3) = (   0.000000   0.000000   1.000000 )  

     reciprocal axes: (cart. coord. in units 2 pi/alat)
               b(1) = (  1.000000  0.000000  0.000000 )  
               b(2) = (  0.000000  1.000000  0.000000 )  
               b(3) = (  0.000000  0.000000  1.000000 )  


     PseudoPot. # 1 for Li read from file:
     /home/ba3g18/Repos/Pseudopotentials/pslibrary.1.0.0/pbe/PSEUDOPOTENTIALS/Li.pbe-sl-kjpaw_psl.1.0.0.UPF
     MD5 check sum: 3f4d2cafebb47c6c3aa8ed472e6f074d
     Pseudo is Projector augmented-wave, Zval =  3.0
     Generated using 'atomic' code by A. Dal Corso  v.7.4
     Shape of augmentation charge: PSQ
     Using radial grid of 1017 points,  4 beta functions with: 
                l(1) =   0
                l(2) =   0
                l(3) =   1
                l(4) =   1
     Q(r) pseudized with 0 coefficients 


     atomic species   valence    mass     pseudopotential
     Li                3.00     6.94000     Li( 1.00)

     48 Sym. Ops., with inversion, found


                                    s                        frac. trans.

      isym =  1     identity                                     

 cryst.   s( 1) = (     1          0          0      )
                  (     0          1          0      )
                  (     0          0          1      )

 cart.    s( 1) = (  1.0000000  0.0000000  0.0000000 )
                  (  0.0000000  1.0000000  0.0000000 )
                  (  0.0000000  0.0000000  1.0000000 )


      isym =  2     180 deg rotation - cart. axis [0,0,1]        

 cryst.   s( 2) = (    -1          0          0      )
                  (     0         -1          0      )
                  (     0          0          1      )

 cart.    s( 2) = ( -1.0000000  0.0000000  0.0000000 )
                  (  0.0000000 -1.0000000  0.0000000 )
                  (  0.0000000  0.0000000  1.0000000 )


      isym =  3     180 deg rotation - cart. axis [0,1,0]        

 cryst.   s( 3) = (    -1          0          0      )
                  (     0          1          0      )
                  (     0          0         -1      )

 cart.    s( 3) = ( -1.0000000  0.0000000  0.0000000 )
                  (  0.0000000  1.0000000  0.0000000 )
                  (  0.0000000  0.0000000 -1.0000000 )


      isym =  4     180 deg rotation - cart. axis [1,0,0]        

 cryst.   s( 4) = (     1          0          0      )
                  (     0         -1          0      )
                  (     0          0         -1      )

 cart.    s( 4) = (  1.0000000  0.0000000  0.0000000 )
                  (  0.0000000 -1.0000000  0.0000000 )
                  (  0.0000000  0.0000000 -1.0000000 )


      isym =  5     180 deg rotation - cart. axis [1,1,0]        

 cryst.   s( 5) = (     0          1          0      )
                  (     1          0          0      )
                  (     0          0         -1      )

 cart.    s( 5) = (  0.0000000  1.0000000  0.0000000 )
                  (  1.0000000  0.0000000  0.0000000 )
                  (  0.0000000  0.0000000 -1.0000000 )


      isym =  6     180 deg rotation - cart. axis [1,-1,0]       

 cryst.   s( 6) = (     0         -1          0      )
                  (    -1          0          0      )
                  (     0          0         -1      )

 cart.    s( 6) = (  0.0000000 -1.0000000  0.0000000 )
                  ( -1.0000000  0.0000000  0.0000000 )
                  (  0.0000000  0.0000000 -1.0000000 )


      isym =  7      90 deg rotation - cart. axis [0,0,-1]       

 cryst.   s( 7) = (     0         -1          0      )
                  (     1          0          0      )
                  (     0          0          1      )

 cart.    s( 7) = (  0.0000000  1.0000000  0.0000000 )
                  ( -1.0000000  0.0000000  0.0000000 )
                  (  0.0000000  0.0000000  1.0000000 )


      isym =  8      90 deg rotation - cart. axis [0,0,1]        

 cryst.   s( 8) = (     0          1          0      )
                  (    -1          0          0      )
                  (     0          0          1      )

 cart.    s( 8) = (  0.0000000 -1.0000000  0.0000000 )
                  (  1.0000000  0.0000000  0.0000000 )
                  (  0.0000000  0.0000000  1.0000000 )


      isym =  9     180 deg rotation - cart. axis [1,0,1]        

 cryst.   s( 9) = (     0          0          1      )
                  (     0         -1          0      )
                  (     1          0          0      )

 cart.    s( 9) = (  0.0000000  0.0000000  1.0000000 )
                  (  0.0000000 -1.0000000  0.0000000 )
                  (  1.0000000  0.0000000  0.0000000 )


      isym = 10     180 deg rotation - cart. axis [-1,0,1]       

 cryst.   s(10) = (     0          0         -1      )
                  (     0         -1          0      )
                  (    -1          0          0      )

 cart.    s(10) = (  0.0000000  0.0000000 -1.0000000 )
                  (  0.0000000 -1.0000000  0.0000000 )
                  ( -1.0000000  0.0000000  0.0000000 )


      isym = 11      90 deg rotation - cart. axis [0,1,0]        

 cryst.   s(11) = (     0          0         -1      )
                  (     0          1          0      )
                  (     1          0          0      )

 cart.    s(11) = (  0.0000000  0.0000000  1.0000000 )
                  (  0.0000000  1.0000000  0.0000000 )
                  ( -1.0000000  0.0000000  0.0000000 )


      isym = 12      90 deg rotation - cart. axis [0,-1,0]       

 cryst.   s(12) = (     0          0          1      )
                  (     0          1          0      )
                  (    -1          0          0      )

 cart.    s(12) = (  0.0000000  0.0000000 -1.0000000 )
                  (  0.0000000  1.0000000  0.0000000 )
                  (  1.0000000  0.0000000  0.0000000 )


      isym = 13     180 deg rotation - cart. axis [0,1,1]        

 cryst.   s(13) = (    -1          0          0      )
                  (     0          0          1      )
                  (     0          1          0      )

 cart.    s(13) = ( -1.0000000  0.0000000  0.0000000 )
                  (  0.0000000  0.0000000  1.0000000 )
                  (  0.0000000  1.0000000  0.0000000 )


      isym = 14     180 deg rotation - cart. axis [0,1,-1]       

 cryst.   s(14) = (    -1          0          0      )
                  (     0          0         -1      )
                  (     0         -1          0      )

 cart.    s(14) = ( -1.0000000  0.0000000  0.0000000 )
                  (  0.0000000  0.0000000 -1.0000000 )
                  (  0.0000000 -1.0000000  0.0000000 )


      isym = 15      90 deg rotation - cart. axis [-1,0,0]       

 cryst.   s(15) = (     1          0          0      )
                  (     0          0         -1      )
                  (     0          1          0      )

 cart.    s(15) = (  1.0000000  0.0000000  0.0000000 )
                  (  0.0000000  0.0000000  1.0000000 )
                  (  0.0000000 -1.0000000  0.0000000 )


      isym = 16      90 deg rotation - cart. axis [1,0,0]        

 cryst.   s(16) = (     1          0          0      )
                  (     0          0          1      )
                  (     0         -1          0      )

 cart.    s(16) = (  1.0000000  0.0000000  0.0000000 )
                  (  0.0000000  0.0000000 -1.0000000 )
                  (  0.0000000  1.0000000  0.0000000 )


      isym = 17     120 deg rotation - cart. axis [-1,-1,-1]     

 cryst.   s(17) = (     0          0          1      )
                  (     1          0          0      )
                  (     0          1          0      )

 cart.    s(17) = (  0.0000000  1.0000000  0.0000000 )
                  (  0.0000000  0.0000000  1.0000000 )
                  (  1.0000000  0.0000000  0.0000000 )


      isym = 18     120 deg rotation - cart. axis [-1,1,1]       

 cryst.   s(18) = (     0          0         -1      )
                  (    -1          0          0      )
                  (     0          1          0      )

 cart.    s(18) = (  0.0000000 -1.0000000  0.0000000 )
                  (  0.0000000  0.0000000  1.0000000 )
                  ( -1.0000000  0.0000000  0.0000000 )


      isym = 19     120 deg rotation - cart. axis [1,1,-1]       

 cryst.   s(19) = (     0          0         -1      )
                  (     1          0          0      )
                  (     0         -1          0      )

 cart.    s(19) = (  0.0000000  1.0000000  0.0000000 )
                  (  0.0000000  0.0000000 -1.0000000 )
                  ( -1.0000000  0.0000000  0.0000000 )


      isym = 20     120 deg rotation - cart. axis [1,-1,1]       

 cryst.   s(20) = (     0          0          1      )
                  (    -1          0          0      )
                  (     0         -1          0      )

 cart.    s(20) = (  0.0000000 -1.0000000  0.0000000 )
                  (  0.0000000  0.0000000 -1.0000000 )
                  (  1.0000000  0.0000000  0.0000000 )


      isym = 21     120 deg rotation - cart. axis [1,1,1]        

 cryst.   s(21) = (     0          1          0      )
                  (     0          0          1      )
                  (     1          0          0      )

 cart.    s(21) = (  0.0000000  0.0000000  1.0000000 )
                  (  1.0000000  0.0000000  0.0000000 )
                  (  0.0000000  1.0000000  0.0000000 )


      isym = 22     120 deg rotation - cart. axis [-1,1,-1]      

 cryst.   s(22) = (     0         -1          0      )
                  (     0          0         -1      )
                  (     1          0          0      )

 cart.    s(22) = (  0.0000000  0.0000000  1.0000000 )
                  ( -1.0000000  0.0000000  0.0000000 )
                  (  0.0000000 -1.0000000  0.0000000 )


      isym = 23     120 deg rotation - cart. axis [1,-1,-1]      

 cryst.   s(23) = (     0         -1          0      )
                  (     0          0          1      )
                  (    -1          0          0      )

 cart.    s(23) = (  0.0000000  0.0000000 -1.0000000 )
                  ( -1.0000000  0.0000000  0.0000000 )
                  (  0.0000000  1.0000000  0.0000000 )


      isym = 24     120 deg rotation - cart. axis [-1,-1,1]      

 cryst.   s(24) = (     0          1          0      )
                  (     0          0         -1      )
                  (    -1          0          0      )

 cart.    s(24) = (  0.0000000  0.0000000 -1.0000000 )
                  (  1.0000000  0.0000000  0.0000000 )
                  (  0.0000000 -1.0000000  0.0000000 )


      isym = 25     inversion                                    

 cryst.   s(25) = (    -1          0          0      )
                  (     0         -1          0      )
                  (     0          0         -1      )

 cart.    s(25) = ( -1.0000000  0.0000000  0.0000000 )
                  (  0.0000000 -1.0000000  0.0000000 )
                  (  0.0000000  0.0000000 -1.0000000 )


      isym = 26     inv. 180 deg rotation - cart. axis [0,0,1]   

 cryst.   s(26) = (     1          0          0      )
                  (     0          1          0      )
                  (     0          0         -1      )

 cart.    s(26) = (  1.0000000  0.0000000  0.0000000 )
                  (  0.0000000  1.0000000  0.0000000 )
                  (  0.0000000  0.0000000 -1.0000000 )


      isym = 27     inv. 180 deg rotation - cart. axis [0,1,0]   

 cryst.   s(27) = (     1          0          0      )
                  (     0         -1          0      )
                  (     0          0          1      )

 cart.    s(27) = (  1.0000000  0.0000000  0.0000000 )
                  (  0.0000000 -1.0000000  0.0000000 )
                  (  0.0000000  0.0000000  1.0000000 )


      isym = 28     inv. 180 deg rotation - cart. axis [1,0,0]   

 cryst.   s(28) = (    -1          0          0      )
                  (     0          1          0      )
                  (     0          0          1      )

 cart.    s(28) = ( -1.0000000  0.0000000  0.0000000 )
                  (  0.0000000  1.0000000  0.0000000 )
                  (  0.0000000  0.0000000  1.0000000 )


      isym = 29     inv. 180 deg rotation - cart. axis [1,1,0]   

 cryst.   s(29) = (     0         -1          0      )
                  (    -1          0          0      )
                  (     0          0          1      )

 cart.    s(29) = (  0.0000000 -1.0000000  0.0000000 )
                  ( -1.0000000  0.0000000  0.0000000 )
                  (  0.0000000  0.0000000  1.0000000 )


      isym = 30     inv. 180 deg rotation - cart. axis [1,-1,0]  

 cryst.   s(30) = (     0          1          0      )
                  (     1          0          0      )
                  (     0          0          1      )

 cart.    s(30) = (  0.0000000  1.0000000  0.0000000 )
                  (  1.0000000  0.0000000  0.0000000 )
                  (  0.0000000  0.0000000  1.0000000 )


      isym = 31     inv.  90 deg rotation - cart. axis [0,0,-1]  

 cryst.   s(31) = (     0          1          0      )
                  (    -1          0          0      )
                  (     0          0         -1      )

 cart.    s(31) = (  0.0000000 -1.0000000  0.0000000 )
                  (  1.0000000  0.0000000  0.0000000 )
                  (  0.0000000  0.0000000 -1.0000000 )


      isym = 32     inv.  90 deg rotation - cart. axis [0,0,1]   

 cryst.   s(32) = (     0         -1          0      )
                  (     1          0          0      )
                  (     0          0         -1      )

 cart.    s(32) = (  0.0000000  1.0000000  0.0000000 )
                  ( -1.0000000  0.0000000  0.0000000 )
                  (  0.0000000  0.0000000 -1.0000000 )


      isym = 33     inv. 180 deg rotation - cart. axis [1,0,1]   

 cryst.   s(33) = (     0          0         -1      )
                  (     0          1          0      )
                  (    -1          0          0      )

 cart.    s(33) = (  0.0000000  0.0000000 -1.0000000 )
                  (  0.0000000  1.0000000  0.0000000 )
                  ( -1.0000000  0.0000000  0.0000000 )


      isym = 34     inv. 180 deg rotation - cart. axis [-1,0,1]  

 cryst.   s(34) = (     0          0          1      )
                  (     0          1          0      )
                  (     1          0          0      )

 cart.    s(34) = (  0.0000000  0.0000000  1.0000000 )
                  (  0.0000000  1.0000000  0.0000000 )
                  (  1.0000000  0.0000000  0.0000000 )


      isym = 35     inv.  90 deg rotation - cart. axis [0,1,0]   

 cryst.   s(35) = (     0          0          1      )
                  (     0         -1          0      )
                  (    -1          0          0      )

 cart.    s(35) = (  0.0000000  0.0000000 -1.0000000 )
                  (  0.0000000 -1.0000000  0.0000000 )
                  (  1.0000000  0.0000000  0.0000000 )


      isym = 36     inv.  90 deg rotation - cart. axis [0,-1,0]  

 cryst.   s(36) = (     0          0         -1      )
                  (     0         -1          0      )
                  (     1          0          0      )

 cart.    s(36) = (  0.0000000  0.0000000  1.0000000 )
                  (  0.0000000 -1.0000000  0.0000000 )
                  ( -1.0000000  0.0000000  0.0000000 )


      isym = 37     inv. 180 deg rotation - cart. axis [0,1,1]   

 cryst.   s(37) = (     1          0          0      )
                  (     0          0         -1      )
                  (     0         -1          0      )

 cart.    s(37) = (  1.0000000  0.0000000  0.0000000 )
                  (  0.0000000  0.0000000 -1.0000000 )
                  (  0.0000000 -1.0000000  0.0000000 )


      isym = 38     inv. 180 deg rotation - cart. axis [0,1,-1]  

 cryst.   s(38) = (     1          0          0      )
                  (     0          0          1      )
                  (     0          1          0      )

 cart.    s(38) = (  1.0000000  0.0000000  0.0000000 )
                  (  0.0000000  0.0000000  1.0000000 )
                  (  0.0000000  1.0000000  0.0000000 )


      isym = 39     inv.  90 deg rotation - cart. axis [-1,0,0]  

 cryst.   s(39) = (    -1          0          0      )
                  (     0          0          1      )
                  (     0         -1          0      )

 cart.    s(39) = ( -1.0000000  0.0000000  0.0000000 )
                  (  0.0000000  0.0000000 -1.0000000 )
                  (  0.0000000  1.0000000  0.0000000 )


      isym = 40     inv.  90 deg rotation - cart. axis [1,0,0]   

 cryst.   s(40) = (    -1          0          0      )
                  (     0          0         -1      )
                  (     0          1          0      )

 cart.    s(40) = ( -1.0000000  0.0000000  0.0000000 )
                  (  0.0000000  0.0000000  1.0000000 )
                  (  0.0000000 -1.0000000  0.0000000 )


      isym = 41     inv. 120 deg rotation - cart. axis [-1,-1,-1]

 cryst.   s(41) = (     0          0         -1      )
                  (    -1          0          0      )
                  (     0         -1          0      )

 cart.    s(41) = (  0.0000000 -1.0000000  0.0000000 )
                  (  0.0000000  0.0000000 -1.0000000 )
                  ( -1.0000000  0.0000000  0.0000000 )


      isym = 42     inv. 120 deg rotation - cart. axis [-1,1,1]  

 cryst.   s(42) = (     0          0          1      )
                  (     1          0          0      )
                  (     0         -1          0      )

 cart.    s(42) = (  0.0000000  1.0000000  0.0000000 )
                  (  0.0000000  0.0000000 -1.0000000 )
                  (  1.0000000  0.0000000  0.0000000 )


      isym = 43     inv. 120 deg rotation - cart. axis [1,1,-1]  

 cryst.   s(43) = (     0          0          1      )
                  (    -1          0          0      )
                  (     0          1          0      )

 cart.    s(43) = (  0.0000000 -1.0000000  0.0000000 )
                  (  0.0000000  0.0000000  1.0000000 )
                  (  1.0000000  0.0000000  0.0000000 )


      isym = 44     inv. 120 deg rotation - cart. axis [1,-1,1]  

 cryst.   s(44) = (     0          0         -1      )
                  (     1          0          0      )
                  (     0          1          0      )

 cart.    s(44) = (  0.0000000  1.0000000  0.0000000 )
                  (  0.0000000  0.0000000  1.0000000 )
                  ( -1.0000000  0.0000000  0.0000000 )


      isym = 45     inv. 120 deg rotation - cart. axis [1,1,1]   

 cryst.   s(45) = (     0         -1          0      )
                  (     0          0         -1      )
                  (    -1          0          0      )

 cart.    s(45) = (  0.0000000  0.0000000 -1.0000000 )
                  ( -1.0000000  0.0000000  0.0000000 )
                  (  0.0000000 -1.0000000  0.0000000 )


      isym = 46     inv. 120 deg rotation - cart. axis [-1,1,-1] 

 cryst.   s(46) = (     0          1          0      )
                  (     0          0          1      )
                  (    -1          0          0      )

 cart.    s(46) = (  0.0000000  0.0000000 -1.0000000 )
                  (  1.0000000  0.0000000  0.0000000 )
                  (  0.0000000  1.0000000  0.0000000 )


      isym = 47     inv. 120 deg rotation - cart. axis [1,-1,-1] 

 cryst.   s(47) = (     0          1          0      )
                  (     0          0         -1      )
                  (     1          0          0      )

 cart.    s(47) = (  0.0000000  0.0000000  1.0000000 )
                  (  1.0000000  0.0000000  0.0000000 )
                  (  0.0000000 -1.0000000  0.0000000 )


      isym = 48     inv. 120 deg rotation - cart. axis [-1,-1,1] 

 cryst.   s(48) = (     0         -1          0      )
                  (     0          0          1      )
                  (     1          0          0      )

 cart.    s(48) = (  0.0000000  0.0000000  1.0000000 )
                  ( -1.0000000  0.0000000  0.0000000 )
                  (  0.0000000  1.0000000  0.0000000 )


   Cartesian axes

     site n.     atom                  positions (alat units)
         1        Li     tau(   1) = (   0.0000000   0.0000000   0.0000000  )
         2        Li     tau(   2) = (   0.5000000   0.5000000   0.5000000  )

   Crystallographic axes

     site n.     atom                  positions (cryst. coord.)
         1        Li     tau(   1) = (  0.0000000  0.0000000  0.0000000  )
         2        Li     tau(   2) = (  0.5000000  0.5000000  0.5000000  )

     number of k points=   220  Marzari-Vanderbilt smearing, width (Ry)=  0.0100
                       cart. coord. in units 2pi/alat
        k(    1) = (   0.0000000   0.0000000   0.0000000), wk =   0.0002916
        k(    2) = (   0.0000000   0.0000000   0.0526316), wk =   0.0017495
        k(    3) = (   0.0000000   0.0000000   0.1052632), wk =   0.0017495
        k(    4) = (   0.0000000   0.0000000   0.1578947), wk =   0.0017495
        k(    5) = (   0.0000000   0.0000000   0.2105263), wk =   0.0017495
        k(    6) = (   0.0000000   0.0000000   0.2631579), wk =   0.0017495
        k(    7) = (   0.0000000   0.0000000   0.3157895), wk =   0.0017495
        k(    8) = (   0.0000000   0.0000000   0.3684211), wk =   0.0017495
        k(    9) = (   0.0000000   0.0000000   0.4210526), wk =   0.0017495
        k(   10) = (   0.0000000   0.0000000   0.4736842), wk =   0.0017495
        k(   11) = (   0.0000000   0.0526316   0.0526316), wk =   0.0034991
        k(   12) = (   0.0000000   0.0526316   0.1052632), wk =   0.0069981
        k(   13) = (   0.0000000   0.0526316   0.1578947), wk =   0.0069981
        k(   14) = (   0.0000000   0.0526316   0.2105263), wk =   0.0069981
        k(   15) = (   0.0000000   0.0526316   0.2631579), wk =   0.0069981
        k(   16) = (   0.0000000   0.0526316   0.3157895), wk =   0.0069981
        k(   17) = (   0.0000000   0.0526316   0.3684211), wk =   0.0069981
        k(   18) = (   0.0000000   0.0526316   0.4210526), wk =   0.0069981
        k(   19) = (   0.0000000   0.0526316   0.4736842), wk =   0.0069981
        k(   20) = (   0.0000000   0.1052632   0.1052632), wk =   0.0034991
        k(   21) = (   0.0000000   0.1052632   0.1578947), wk =   0.0069981
        k(   22) = (   0.0000000   0.1052632   0.2105263), wk =   0.0069981
        k(   23) = (   0.0000000   0.1052632   0.2631579), wk =   0.0069981
        k(   24) = (   0.0000000   0.1052632   0.3157895), wk =   0.0069981
        k(   25) = (   0.0000000   0.1052632   0.3684211), wk =   0.0069981
        k(   26) = (   0.0000000   0.1052632   0.4210526), wk =   0.0069981
        k(   27) = (   0.0000000   0.1052632   0.4736842), wk =   0.0069981
        k(   28) = (   0.0000000   0.1578947   0.1578947), wk =   0.0034991
        k(   29) = (   0.0000000   0.1578947   0.2105263), wk =   0.0069981
        k(   30) = (   0.0000000   0.1578947   0.2631579), wk =   0.0069981
        k(   31) = (   0.0000000   0.1578947   0.3157895), wk =   0.0069981
        k(   32) = (   0.0000000   0.1578947   0.3684211), wk =   0.0069981
        k(   33) = (   0.0000000   0.1578947   0.4210526), wk =   0.0069981
        k(   34) = (   0.0000000   0.1578947   0.4736842), wk =   0.0069981
        k(   35) = (   0.0000000   0.2105263   0.2105263), wk =   0.0034991
        k(   36) = (   0.0000000   0.2105263   0.2631579), wk =   0.0069981
        k(   37) = (   0.0000000   0.2105263   0.3157895), wk =   0.0069981
        k(   38) = (   0.0000000   0.2105263   0.3684211), wk =   0.0069981
        k(   39) = (   0.0000000   0.2105263   0.4210526), wk =   0.0069981
        k(   40) = (   0.0000000   0.2105263   0.4736842), wk =   0.0069981
        k(   41) = (   0.0000000   0.2631579   0.2631579), wk =   0.0034991
        k(   42) = (   0.0000000   0.2631579   0.3157895), wk =   0.0069981
        k(   43) = (   0.0000000   0.2631579   0.3684211), wk =   0.0069981
        k(   44) = (   0.0000000   0.2631579   0.4210526), wk =   0.0069981
        k(   45) = (   0.0000000   0.2631579   0.4736842), wk =   0.0069981
        k(   46) = (   0.0000000   0.3157895   0.3157895), wk =   0.0034991
        k(   47) = (   0.0000000   0.3157895   0.3684211), wk =   0.0069981
        k(   48) = (   0.0000000   0.3157895   0.4210526), wk =   0.0069981
        k(   49) = (   0.0000000   0.3157895   0.4736842), wk =   0.0069981
        k(   50) = (   0.0000000   0.3684211   0.3684211), wk =   0.0034991
        k(   51) = (   0.0000000   0.3684211   0.4210526), wk =   0.0069981
        k(   52) = (   0.0000000   0.3684211   0.4736842), wk =   0.0069981
        k(   53) = (   0.0000000   0.4210526   0.4210526), wk =   0.0034991
        k(   54) = (   0.0000000   0.4210526   0.4736842), wk =   0.0069981
        k(   55) = (   0.0000000   0.4736842   0.4736842), wk =   0.0034991
        k(   56) = (   0.0526316   0.0526316   0.0526316), wk =   0.0023327
        k(   57) = (   0.0526316   0.0526316   0.1052632), wk =   0.0069981
        k(   58) = (   0.0526316   0.0526316   0.1578947), wk =   0.0069981
        k(   59) = (   0.0526316   0.0526316   0.2105263), wk =   0.0069981
        k(   60) = (   0.0526316   0.0526316   0.2631579), wk =   0.0069981
        k(   61) = (   0.0526316   0.0526316   0.3157895), wk =   0.0069981
        k(   62) = (   0.0526316   0.0526316   0.3684211), wk =   0.0069981
        k(   63) = (   0.0526316   0.0526316   0.4210526), wk =   0.0069981
        k(   64) = (   0.0526316   0.0526316   0.4736842), wk =   0.0069981
        k(   65) = (   0.0526316   0.1052632   0.1052632), wk =   0.0069981
        k(   66) = (   0.0526316   0.1052632   0.1578947), wk =   0.0139962
        k(   67) = (   0.0526316   0.1052632   0.2105263), wk =   0.0139962
        k(   68) = (   0.0526316   0.1052632   0.2631579), wk =   0.0139962
        k(   69) = (   0.0526316   0.1052632   0.3157895), wk =   0.0139962
        k(   70) = (   0.0526316   0.1052632   0.3684211), wk =   0.0139962
        k(   71) = (   0.0526316   0.1052632   0.4210526), wk =   0.0139962
        k(   72) = (   0.0526316   0.1052632   0.4736842), wk =   0.0139962
        k(   73) = (   0.0526316   0.1578947   0.1578947), wk =   0.0069981
        k(   74) = (   0.0526316   0.1578947   0.2105263), wk =   0.0139962
        k(   75) = (   0.0526316   0.1578947   0.2631579), wk =   0.0139962
        k(   76) = (   0.0526316   0.1578947   0.3157895), wk =   0.0139962
        k(   77) = (   0.0526316   0.1578947   0.3684211), wk =   0.0139962
        k(   78) = (   0.0526316   0.1578947   0.4210526), wk =   0.0139962
        k(   79) = (   0.0526316   0.1578947   0.4736842), wk =   0.0139962
        k(   80) = (   0.0526316   0.2105263   0.2105263), wk =   0.0069981
        k(   81) = (   0.0526316   0.2105263   0.2631579), wk =   0.0139962
        k(   82) = (   0.0526316   0.2105263   0.3157895), wk =   0.0139962
        k(   83) = (   0.0526316   0.2105263   0.3684211), wk =   0.0139962
        k(   84) = (   0.0526316   0.2105263   0.4210526), wk =   0.0139962
        k(   85) = (   0.0526316   0.2105263   0.4736842), wk =   0.0139962
        k(   86) = (   0.0526316   0.2631579   0.2631579), wk =   0.0069981
        k(   87) = (   0.0526316   0.2631579   0.3157895), wk =   0.0139962
        k(   88) = (   0.0526316   0.2631579   0.3684211), wk =   0.0139962
        k(   89) = (   0.0526316   0.2631579   0.4210526), wk =   0.0139962
        k(   90) = (   0.0526316   0.2631579   0.4736842), wk =   0.0139962
        k(   91) = (   0.0526316   0.3157895   0.3157895), wk =   0.0069981
        k(   92) = (   0.0526316   0.3157895   0.3684211), wk =   0.0139962
        k(   93) = (   0.0526316   0.3157895   0.4210526), wk =   0.0139962
        k(   94) = (   0.0526316   0.3157895   0.4736842), wk =   0.0139962
        k(   95) = (   0.0526316   0.3684211   0.3684211), wk =   0.0069981
        k(   96) = (   0.0526316   0.3684211   0.4210526), wk =   0.0139962
        k(   97) = (   0.0526316   0.3684211   0.4736842), wk =   0.0139962
        k(   98) = (   0.0526316   0.4210526   0.4210526), wk =   0.0069981
        k(   99) = (   0.0526316   0.4210526   0.4736842), wk =   0.0139962
        k(  100) = (   0.0526316   0.4736842   0.4736842), wk =   0.0069981
        k(  101) = (   0.1052632   0.1052632   0.1052632), wk =   0.0023327
        k(  102) = (   0.1052632   0.1052632   0.1578947), wk =   0.0069981
        k(  103) = (   0.1052632   0.1052632   0.2105263), wk =   0.0069981
        k(  104) = (   0.1052632   0.1052632   0.2631579), wk =   0.0069981
        k(  105) = (   0.1052632   0.1052632   0.3157895), wk =   0.0069981
        k(  106) = (   0.1052632   0.1052632   0.3684211), wk =   0.0069981
        k(  107) = (   0.1052632   0.1052632   0.4210526), wk =   0.0069981
        k(  108) = (   0.1052632   0.1052632   0.4736842), wk =   0.0069981
        k(  109) = (   0.1052632   0.1578947   0.1578947), wk =   0.0069981
        k(  110) = (   0.1052632   0.1578947   0.2105263), wk =   0.0139962
        k(  111) = (   0.1052632   0.1578947   0.2631579), wk =   0.0139962
        k(  112) = (   0.1052632   0.1578947   0.3157895), wk =   0.0139962
        k(  113) = (   0.1052632   0.1578947   0.3684211), wk =   0.0139962
        k(  114) = (   0.1052632   0.1578947   0.4210526), wk =   0.0139962
        k(  115) = (   0.1052632   0.1578947   0.4736842), wk =   0.0139962
        k(  116) = (   0.1052632   0.2105263   0.2105263), wk =   0.0069981
        k(  117) = (   0.1052632   0.2105263   0.2631579), wk =   0.0139962
        k(  118) = (   0.1052632   0.2105263   0.3157895), wk =   0.0139962
        k(  119) = (   0.1052632   0.2105263   0.3684211), wk =   0.0139962
        k(  120) = (   0.1052632   0.2105263   0.4210526), wk =   0.0139962
        k(  121) = (   0.1052632   0.2105263   0.4736842), wk =   0.0139962
        k(  122) = (   0.1052632   0.2631579   0.2631579), wk =   0.0069981
        k(  123) = (   0.1052632   0.2631579   0.3157895), wk =   0.0139962
        k(  124) = (   0.1052632   0.2631579   0.3684211), wk =   0.0139962
        k(  125) = (   0.1052632   0.2631579   0.4210526), wk =   0.0139962
        k(  126) = (   0.1052632   0.2631579   0.4736842), wk =   0.0139962
        k(  127) = (   0.1052632   0.3157895   0.3157895), wk =   0.0069981
        k(  128) = (   0.1052632   0.3157895   0.3684211), wk =   0.0139962
        k(  129) = (   0.1052632   0.3157895   0.4210526), wk =   0.0139962
        k(  130) = (   0.1052632   0.3157895   0.4736842), wk =   0.0139962
        k(  131) = (   0.1052632   0.3684211   0.3684211), wk =   0.0069981
        k(  132) = (   0.1052632   0.3684211   0.4210526), wk =   0.0139962
        k(  133) = (   0.1052632   0.3684211   0.4736842), wk =   0.0139962
        k(  134) = (   0.1052632   0.4210526   0.4210526), wk =   0.0069981
        k(  135) = (   0.1052632   0.4210526   0.4736842), wk =   0.0139962
        k(  136) = (   0.1052632   0.4736842   0.4736842), wk =   0.0069981
        k(  137) = (   0.1578947   0.1578947   0.1578947), wk =   0.0023327
        k(  138) = (   0.1578947   0.1578947   0.2105263), wk =   0.0069981
        k(  139) = (   0.1578947   0.1578947   0.2631579), wk =   0.0069981
        k(  140) = (   0.1578947   0.1578947   0.3157895), wk =   0.0069981
        k(  141) = (   0.1578947   0.1578947   0.3684211), wk =   0.0069981
        k(  142) = (   0.1578947   0.1578947   0.4210526), wk =   0.0069981
        k(  143) = (   0.1578947   0.1578947   0.4736842), wk =   0.0069981
        k(  144) = (   0.1578947   0.2105263   0.2105263), wk =   0.0069981
        k(  145) = (   0.1578947   0.2105263   0.2631579), wk =   0.0139962
        k(  146) = (   0.1578947   0.2105263   0.3157895), wk =   0.0139962
        k(  147) = (   0.1578947   0.2105263   0.3684211), wk =   0.0139962
        k(  148) = (   0.1578947   0.2105263   0.4210526), wk =   0.0139962
        k(  149) = (   0.1578947   0.2105263   0.4736842), wk =   0.0139962
        k(  150) = (   0.1578947   0.2631579   0.2631579), wk =   0.0069981
        k(  151) = (   0.1578947   0.2631579   0.3157895), wk =   0.0139962
        k(  152) = (   0.1578947   0.2631579   0.3684211), wk =   0.0139962
        k(  153) = (   0.1578947   0.2631579   0.4210526), wk =   0.0139962
        k(  154) = (   0.1578947   0.2631579   0.4736842), wk =   0.0139962
        k(  155) = (   0.1578947   0.3157895   0.3157895), wk =   0.0069981
        k(  156) = (   0.1578947   0.3157895   0.3684211), wk =   0.0139962
        k(  157) = (   0.1578947   0.3157895   0.4210526), wk =   0.0139962
        k(  158) = (   0.1578947   0.3157895   0.4736842), wk =   0.0139962
        k(  159) = (   0.1578947   0.3684211   0.3684211), wk =   0.0069981
        k(  160) = (   0.1578947   0.3684211   0.4210526), wk =   0.0139962
        k(  161) = (   0.1578947   0.3684211   0.4736842), wk =   0.0139962
        k(  162) = (   0.1578947   0.4210526   0.4210526), wk =   0.0069981
        k(  163) = (   0.1578947   0.4210526   0.4736842), wk =   0.0139962
        k(  164) = (   0.1578947   0.4736842   0.4736842), wk =   0.0069981
        k(  165) = (   0.2105263   0.2105263   0.2105263), wk =   0.0023327
        k(  166) = (   0.2105263   0.2105263   0.2631579), wk =   0.0069981
        k(  167) = (   0.2105263   0.2105263   0.3157895), wk =   0.0069981
        k(  168) = (   0.2105263   0.2105263   0.3684211), wk =   0.0069981
        k(  169) = (   0.2105263   0.2105263   0.4210526), wk =   0.0069981
        k(  170) = (   0.2105263   0.2105263   0.4736842), wk =   0.0069981
        k(  171) = (   0.2105263   0.2631579   0.2631579), wk =   0.0069981
        k(  172) = (   0.2105263   0.2631579   0.3157895), wk =   0.0139962
        k(  173) = (   0.2105263   0.2631579   0.3684211), wk =   0.0139962
        k(  174) = (   0.2105263   0.2631579   0.4210526), wk =   0.0139962
        k(  175) = (   0.2105263   0.2631579   0.4736842), wk =   0.0139962
        k(  176) = (   0.2105263   0.3157895   0.3157895), wk =   0.0069981
        k(  177) = (   0.2105263   0.3157895   0.3684211), wk =   0.0139962
        k(  178) = (   0.2105263   0.3157895   0.4210526), wk =   0.0139962
        k(  179) = (   0.2105263   0.3157895   0.4736842), wk =   0.0139962
        k(  180) = (   0.2105263   0.3684211   0.3684211), wk =   0.0069981
        k(  181) = (   0.2105263   0.3684211   0.4210526), wk =   0.0139962
        k(  182) = (   0.2105263   0.3684211   0.4736842), wk =   0.0139962
        k(  183) = (   0.2105263   0.4210526   0.4210526), wk =   0.0069981
        k(  184) = (   0.2105263   0.4210526   0.4736842), wk =   0.0139962
        k(  185) = (   0.2105263   0.4736842   0.4736842), wk =   0.0069981
        k(  186) = (   0.2631579   0.2631579   0.2631579), wk =   0.0023327
        k(  187) = (   0.2631579   0.2631579   0.3157895), wk =   0.0069981
        k(  188) = (   0.2631579   0.2631579   0.3684211), wk =   0.0069981
        k(  189) = (   0.2631579   0.2631579   0.4210526), wk =   0.0069981
        k(  190) = (   0.2631579   0.2631579   0.4736842), wk =   0.0069981
        k(  191) = (   0.2631579   0.3157895   0.3157895), wk =   0.0069981
        k(  192) = (   0.2631579   0.3157895   0.3684211), wk =   0.0139962
        k(  193) = (   0.2631579   0.3157895   0.4210526), wk =   0.0139962
        k(  194) = (   0.2631579   0.3157895   0.4736842), wk =   0.0139962
        k(  195) = (   0.2631579   0.3684211   0.3684211), wk =   0.0069981
        k(  196) = (   0.2631579   0.3684211   0.4210526), wk =   0.0139962
        k(  197) = (   0.2631579   0.3684211   0.4736842), wk =   0.0139962
        k(  198) = (   0.2631579   0.4210526   0.4210526), wk =   0.0069981
        k(  199) = (   0.2631579   0.4210526   0.4736842), wk =   0.0139962
        k(  200) = (   0.2631579   0.4736842   0.4736842), wk =   0.0069981
        k(  201) = (   0.3157895   0.3157895   0.3157895), wk =   0.0023327
        k(  202) = (   0.3157895   0.3157895   0.3684211), wk =   0.0069981
        k(  203) = (   0.3157895   0.3157895   0.4210526), wk =   0.0069981
        k(  204) = (   0.3157895   0.3157895   0.4736842), wk =   0.0069981
        k(  205) = (   0.3157895   0.3684211   0.3684211), wk =   0.0069981
        k(  206) = (   0.3157895   0.3684211   0.4210526), wk =   0.0139962
        k(  207) = (   0.3157895   0.3684211   0.4736842), wk =   0.0139962
        k(  208) = (   0.3157895   0.4210526   0.4210526), wk =   0.0069981
        k(  209) = (   0.3157895   0.4210526   0.4736842), wk =   0.0139962
        k(  210) = (   0.3157895   0.4736842   0.4736842), wk =   0.0069981
        k(  211) = (   0.3684211   0.3684211   0.3684211), wk =   0.0023327
        k(  212) = (   0.3684211   0.3684211   0.4210526), wk =   0.0069981
        k(  213) = (   0.3684211   0.3684211   0.4736842), wk =   0.0069981
        k(  214) = (   0.3684211   0.4210526   0.4210526), wk =   0.0069981
        k(  215) = (   0.3684211   0.4210526   0.4736842), wk =   0.0139962
        k(  216) = (   0.3684211   0.4736842   0.4736842), wk =   0.0069981
        k(  217) = (   0.4210526   0.4210526   0.4210526), wk =   0.0023327
        k(  218) = (   0.4210526   0.4210526   0.4736842), wk =   0.0069981
        k(  219) = (   0.4210526   0.4736842   0.4736842), wk =   0.0069981
        k(  220) = (   0.4736842   0.4736842   0.4736842), wk =   0.0023327

                       cryst. coord.
        k(    1) = (   0.0000000   0.0000000   0.0000000), wk =   0.0002916
        k(    2) = (   0.0000000   0.0000000   0.0526316), wk =   0.0017495
        k(    3) = (   0.0000000   0.0000000   0.1052632), wk =   0.0017495
        k(    4) = (   0.0000000   0.0000000   0.1578947), wk =   0.0017495
        k(    5) = (   0.0000000   0.0000000   0.2105263), wk =   0.0017495
        k(    6) = (   0.0000000   0.0000000   0.2631579), wk =   0.0017495
        k(    7) = (   0.0000000   0.0000000   0.3157895), wk =   0.0017495
        k(    8) = (   0.0000000   0.0000000   0.3684211), wk =   0.0017495
        k(    9) = (   0.0000000   0.0000000   0.4210526), wk =   0.0017495
        k(   10) = (   0.0000000   0.0000000   0.4736842), wk =   0.0017495
        k(   11) = (   0.0000000   0.0526316   0.0526316), wk =   0.0034991
        k(   12) = (   0.0000000   0.0526316   0.1052632), wk =   0.0069981
        k(   13) = (   0.0000000   0.0526316   0.1578947), wk =   0.0069981
        k(   14) = (   0.0000000   0.0526316   0.2105263), wk =   0.0069981
        k(   15) = (   0.0000000   0.0526316   0.2631579), wk =   0.0069981
        k(   16) = (   0.0000000   0.0526316   0.3157895), wk =   0.0069981
        k(   17) = (   0.0000000   0.0526316   0.3684211), wk =   0.0069981
        k(   18) = (   0.0000000   0.0526316   0.4210526), wk =   0.0069981
        k(   19) = (   0.0000000   0.0526316   0.4736842), wk =   0.0069981
        k(   20) = (   0.0000000   0.1052632   0.1052632), wk =   0.0034991
        k(   21) = (   0.0000000   0.1052632   0.1578947), wk =   0.0069981
        k(   22) = (   0.0000000   0.1052632   0.2105263), wk =   0.0069981
        k(   23) = (   0.0000000   0.1052632   0.2631579), wk =   0.0069981
        k(   24) = (   0.0000000   0.1052632   0.3157895), wk =   0.0069981
        k(   25) = (   0.0000000   0.1052632   0.3684211), wk =   0.0069981
        k(   26) = (   0.0000000   0.1052632   0.4210526), wk =   0.0069981
        k(   27) = (   0.0000000   0.1052632   0.4736842), wk =   0.0069981
        k(   28) = (   0.0000000   0.1578947   0.1578947), wk =   0.0034991
        k(   29) = (   0.0000000   0.1578947   0.2105263), wk =   0.0069981
        k(   30) = (   0.0000000   0.1578947   0.2631579), wk =   0.0069981
        k(   31) = (   0.0000000   0.1578947   0.3157895), wk =   0.0069981
        k(   32) = (   0.0000000   0.1578947   0.3684211), wk =   0.0069981
        k(   33) = (   0.0000000   0.1578947   0.4210526), wk =   0.0069981
        k(   34) = (   0.0000000   0.1578947   0.4736842), wk =   0.0069981
        k(   35) = (   0.0000000   0.2105263   0.2105263), wk =   0.0034991
        k(   36) = (   0.0000000   0.2105263   0.2631579), wk =   0.0069981
        k(   37) = (   0.0000000   0.2105263   0.3157895), wk =   0.0069981
        k(   38) = (   0.0000000   0.2105263   0.3684211), wk =   0.0069981
        k(   39) = (   0.0000000   0.2105263   0.4210526), wk =   0.0069981
        k(   40) = (   0.0000000   0.2105263   0.4736842), wk =   0.0069981
        k(   41) = (   0.0000000   0.2631579   0.2631579), wk =   0.0034991
        k(   42) = (   0.0000000   0.2631579   0.3157895), wk =   0.0069981
        k(   43) = (   0.0000000   0.2631579   0.3684211), wk =   0.0069981
        k(   44) = (   0.0000000   0.2631579   0.4210526), wk =   0.0069981
        k(   45) = (   0.0000000   0.2631579   0.4736842), wk =   0.0069981
        k(   46) = (   0.0000000   0.3157895   0.3157895), wk =   0.0034991
        k(   47) = (   0.0000000   0.3157895   0.3684211), wk =   0.0069981
        k(   48) = (   0.0000000   0.3157895   0.4210526), wk =   0.0069981
        k(   49) = (   0.0000000   0.3157895   0.4736842), wk =   0.0069981
        k(   50) = (   0.0000000   0.3684211   0.3684211), wk =   0.0034991
        k(   51) = (   0.0000000   0.3684211   0.4210526), wk =   0.0069981
        k(   52) = (   0.0000000   0.3684211   0.4736842), wk =   0.0069981
        k(   53) = (   0.0000000   0.4210526   0.4210526), wk =   0.0034991
        k(   54) = (   0.0000000   0.4210526   0.4736842), wk =   0.0069981
        k(   55) = (   0.0000000   0.4736842   0.4736842), wk =   0.0034991
        k(   56) = (   0.0526316   0.0526316   0.0526316), wk =   0.0023327
        k(   57) = (   0.0526316   0.0526316   0.1052632), wk =   0.0069981
        k(   58) = (   0.0526316   0.0526316   0.1578947), wk =   0.0069981
        k(   59) = (   0.0526316   0.0526316   0.2105263), wk =   0.0069981
        k(   60) = (   0.0526316   0.0526316   0.2631579), wk =   0.0069981
        k(   61) = (   0.0526316   0.0526316   0.3157895), wk =   0.0069981
        k(   62) = (   0.0526316   0.0526316   0.3684211), wk =   0.0069981
        k(   63) = (   0.0526316   0.0526316   0.4210526), wk =   0.0069981
        k(   64) = (   0.0526316   0.0526316   0.4736842), wk =   0.0069981
        k(   65) = (   0.0526316   0.1052632   0.1052632), wk =   0.0069981
        k(   66) = (   0.0526316   0.1052632   0.1578947), wk =   0.0139962
        k(   67) = (   0.0526316   0.1052632   0.2105263), wk =   0.0139962
        k(   68) = (   0.0526316   0.1052632   0.2631579), wk =   0.0139962
        k(   69) = (   0.0526316   0.1052632   0.3157895), wk =   0.0139962
        k(   70) = (   0.0526316   0.1052632   0.3684211), wk =   0.0139962
        k(   71) = (   0.0526316   0.1052632   0.4210526), wk =   0.0139962
        k(   72) = (   0.0526316   0.1052632   0.4736842), wk =   0.0139962
        k(   73) = (   0.0526316   0.1578947   0.1578947), wk =   0.0069981
        k(   74) = (   0.0526316   0.1578947   0.2105263), wk =   0.0139962
        k(   75) = (   0.0526316   0.1578947   0.2631579), wk =   0.0139962
        k(   76) = (   0.0526316   0.1578947   0.3157895), wk =   0.0139962
        k(   77) = (   0.0526316   0.1578947   0.3684211), wk =   0.0139962
        k(   78) = (   0.0526316   0.1578947   0.4210526), wk =   0.0139962
        k(   79) = (   0.0526316   0.1578947   0.4736842), wk =   0.0139962
        k(   80) = (   0.0526316   0.2105263   0.2105263), wk =   0.0069981
        k(   81) = (   0.0526316   0.2105263   0.2631579), wk =   0.0139962
        k(   82) = (   0.0526316   0.2105263   0.3157895), wk =   0.0139962
        k(   83) = (   0.0526316   0.2105263   0.3684211), wk =   0.0139962
        k(   84) = (   0.0526316   0.2105263   0.4210526), wk =   0.0139962
        k(   85) = (   0.0526316   0.2105263   0.4736842), wk =   0.0139962
        k(   86) = (   0.0526316   0.2631579   0.2631579), wk =   0.0069981
        k(   87) = (   0.0526316   0.2631579   0.3157895), wk =   0.0139962
        k(   88) = (   0.0526316   0.2631579   0.3684211), wk =   0.0139962
        k(   89) = (   0.0526316   0.2631579   0.4210526), wk =   0.0139962
        k(   90) = (   0.0526316   0.2631579   0.4736842), wk =   0.0139962
        k(   91) = (   0.0526316   0.3157895   0.3157895), wk =   0.0069981
        k(   92) = (   0.0526316   0.3157895   0.3684211), wk =   0.0139962
        k(   93) = (   0.0526316   0.3157895   0.4210526), wk =   0.0139962
        k(   94) = (   0.0526316   0.3157895   0.4736842), wk =   0.0139962
        k(   95) = (   0.0526316   0.3684211   0.3684211), wk =   0.0069981
        k(   96) = (   0.0526316   0.3684211   0.4210526), wk =   0.0139962
        k(   97) = (   0.0526316   0.3684211   0.4736842), wk =   0.0139962
        k(   98) = (   0.0526316   0.4210526   0.4210526), wk =   0.0069981
        k(   99) = (   0.0526316   0.4210526   0.4736842), wk =   0.0139962
        k(  100) = (   0.0526316   0.4736842   0.4736842), wk =   0.0069981
        k(  101) = (   0.1052632   0.1052632   0.1052632), wk =   0.0023327
        k(  102) = (   0.1052632   0.1052632   0.1578947), wk =   0.0069981
        k(  103) = (   0.1052632   0.1052632   0.2105263), wk =   0.0069981
        k(  104) = (   0.1052632   0.1052632   0.2631579), wk =   0.0069981
        k(  105) = (   0.1052632   0.1052632   0.3157895), wk =   0.0069981
        k(  106) = (   0.1052632   0.1052632   0.3684211), wk =   0.0069981
        k(  107) = (   0.1052632   0.1052632   0.4210526), wk =   0.0069981
        k(  108) = (   0.1052632   0.1052632   0.4736842), wk =   0.0069981
        k(  109) = (   0.1052632   0.1578947   0.1578947), wk =   0.0069981
        k(  110) = (   0.1052632   0.1578947   0.2105263), wk =   0.0139962
        k(  111) = (   0.1052632   0.1578947   0.2631579), wk =   0.0139962
        k(  112) = (   0.1052632   0.1578947   0.3157895), wk =   0.0139962
        k(  113) = (   0.1052632   0.1578947   0.3684211), wk =   0.0139962
        k(  114) = (   0.1052632   0.1578947   0.4210526), wk =   0.0139962
        k(  115) = (   0.1052632   0.1578947   0.4736842), wk =   0.0139962
        k(  116) = (   0.1052632   0.2105263   0.2105263), wk =   0.0069981
        k(  117) = (   0.1052632   0.2105263   0.2631579), wk =   0.0139962
        k(  118) = (   0.1052632   0.2105263   0.3157895), wk =   0.0139962
        k(  119) = (   0.1052632   0.2105263   0.3684211), wk =   0.0139962
        k(  120) = (   0.1052632   0.2105263   0.4210526), wk =   0.0139962
        k(  121) = (   0.1052632   0.2105263   0.4736842), wk =   0.0139962
        k(  122) = (   0.1052632   0.2631579   0.2631579), wk =   0.0069981
        k(  123) = (   0.1052632   0.2631579   0.3157895), wk =   0.0139962
        k(  124) = (   0.1052632   0.2631579   0.3684211), wk =   0.0139962
        k(  125) = (   0.1052632   0.2631579   0.4210526), wk =   0.0139962
        k(  126) = (   0.1052632   0.2631579   0.4736842), wk =   0.0139962
        k(  127) = (   0.1052632   0.3157895   0.3157895), wk =   0.0069981
        k(  128) = (   0.1052632   0.3157895   0.3684211), wk =   0.0139962
        k(  129) = (   0.1052632   0.3157895   0.4210526), wk =   0.0139962
        k(  130) = (   0.1052632   0.3157895   0.4736842), wk =   0.0139962
        k(  131) = (   0.1052632   0.3684211   0.3684211), wk =   0.0069981
        k(  132) = (   0.1052632   0.3684211   0.4210526), wk =   0.0139962
        k(  133) = (   0.1052632   0.3684211   0.4736842), wk =   0.0139962
        k(  134) = (   0.1052632   0.4210526   0.4210526), wk =   0.0069981
        k(  135) = (   0.1052632   0.4210526   0.4736842), wk =   0.0139962
        k(  136) = (   0.1052632   0.4736842   0.4736842), wk =   0.0069981
        k(  137) = (   0.1578947   0.1578947   0.1578947), wk =   0.0023327
        k(  138) = (   0.1578947   0.1578947   0.2105263), wk =   0.0069981
        k(  139) = (   0.1578947   0.1578947   0.2631579), wk =   0.0069981
        k(  140) = (   0.1578947   0.1578947   0.3157895), wk =   0.0069981
        k(  141) = (   0.1578947   0.1578947   0.3684211), wk =   0.0069981
        k(  142) = (   0.1578947   0.1578947   0.4210526), wk =   0.0069981
        k(  143) = (   0.1578947   0.1578947   0.4736842), wk =   0.0069981
        k(  144) = (   0.1578947   0.2105263   0.2105263), wk =   0.0069981
        k(  145) = (   0.1578947   0.2105263   0.2631579), wk =   0.0139962
        k(  146) = (   0.1578947   0.2105263   0.3157895), wk =   0.0139962
        k(  147) = (   0.1578947   0.2105263   0.3684211), wk =   0.0139962
        k(  148) = (   0.1578947   0.2105263   0.4210526), wk =   0.0139962
        k(  149) = (   0.1578947   0.2105263   0.4736842), wk =   0.0139962
        k(  150) = (   0.1578947   0.2631579   0.2631579), wk =   0.0069981
        k(  151) = (   0.1578947   0.2631579   0.3157895), wk =   0.0139962
        k(  152) = (   0.1578947   0.2631579   0.3684211), wk =   0.0139962
        k(  153) = (   0.1578947   0.2631579   0.4210526), wk =   0.0139962
        k(  154) = (   0.1578947   0.2631579   0.4736842), wk =   0.0139962
        k(  155) = (   0.1578947   0.3157895   0.3157895), wk =   0.0069981
        k(  156) = (   0.1578947   0.3157895   0.3684211), wk =   0.0139962
        k(  157) = (   0.1578947   0.3157895   0.4210526), wk =   0.0139962
        k(  158) = (   0.1578947   0.3157895   0.4736842), wk =   0.0139962
        k(  159) = (   0.1578947   0.3684211   0.3684211), wk =   0.0069981
        k(  160) = (   0.1578947   0.3684211   0.4210526), wk =   0.0139962
        k(  161) = (   0.1578947   0.3684211   0.4736842), wk =   0.0139962
        k(  162) = (   0.1578947   0.4210526   0.4210526), wk =   0.0069981
        k(  163) = (   0.1578947   0.4210526   0.4736842), wk =   0.0139962
        k(  164) = (   0.1578947   0.4736842   0.4736842), wk =   0.0069981
        k(  165) = (   0.2105263   0.2105263   0.2105263), wk =   0.0023327
        k(  166) = (   0.2105263   0.2105263   0.2631579), wk =   0.0069981
        k(  167) = (   0.2105263   0.2105263   0.3157895), wk =   0.0069981
        k(  168) = (   0.2105263   0.2105263   0.3684211), wk =   0.0069981
        k(  169) = (   0.2105263   0.2105263   0.4210526), wk =   0.0069981
        k(  170) = (   0.2105263   0.2105263   0.4736842), wk =   0.0069981
        k(  171) = (   0.2105263   0.2631579   0.2631579), wk =   0.0069981
        k(  172) = (   0.2105263   0.2631579   0.3157895), wk =   0.0139962
        k(  173) = (   0.2105263   0.2631579   0.3684211), wk =   0.0139962
        k(  174) = (   0.2105263   0.2631579   0.4210526), wk =   0.0139962
        k(  175) = (   0.2105263   0.2631579   0.4736842), wk =   0.0139962
        k(  176) = (   0.2105263   0.3157895   0.3157895), wk =   0.0069981
        k(  177) = (   0.2105263   0.3157895   0.3684211), wk =   0.0139962
        k(  178) = (   0.2105263   0.3157895   0.4210526), wk =   0.0139962
        k(  179) = (   0.2105263   0.3157895   0.4736842), wk =   0.0139962
        k(  180) = (   0.2105263   0.3684211   0.3684211), wk =   0.0069981
        k(  181) = (   0.2105263   0.3684211   0.4210526), wk =   0.0139962
        k(  182) = (   0.2105263   0.3684211   0.4736842), wk =   0.0139962
        k(  183) = (   0.2105263   0.4210526   0.4210526), wk =   0.0069981
        k(  184) = (   0.2105263   0.4210526   0.4736842), wk =   0.0139962
        k(  185) = (   0.2105263   0.4736842   0.4736842), wk =   0.0069981
        k(  186) = (   0.2631579   0.2631579   0.2631579), wk =   0.0023327
        k(  187) = (   0.2631579   0.2631579   0.3157895), wk =   0.0069981
        k(  188) = (   0.2631579   0.2631579   0.3684211), wk =   0.0069981
        k(  189) = (   0.2631579   0.2631579   0.4210526), wk =   0.0069981
        k(  190) = (   0.2631579   0.2631579   0.4736842), wk =   0.0069981
        k(  191) = (   0.2631579   0.3157895   0.3157895), wk =   0.0069981
        k(  192) = (   0.2631579   0.3157895   0.3684211), wk =   0.0139962
        k(  193) = (   0.2631579   0.3157895   0.4210526), wk =   0.0139962
        k(  194) = (   0.2631579   0.3157895   0.4736842), wk =   0.0139962
        k(  195) = (   0.2631579   0.3684211   0.3684211), wk =   0.0069981
        k(  196) = (   0.2631579   0.3684211   0.4210526), wk =   0.0139962
        k(  197) = (   0.2631579   0.3684211   0.4736842), wk =   0.0139962
        k(  198) = (   0.2631579   0.4210526   0.4210526), wk =   0.0069981
        k(  199) = (   0.2631579   0.4210526   0.4736842), wk =   0.0139962
        k(  200) = (   0.2631579   0.4736842   0.4736842), wk =   0.0069981
        k(  201) = (   0.3157895   0.3157895   0.3157895), wk =   0.0023327
        k(  202) = (   0.3157895   0.3157895   0.3684211), wk =   0.0069981
        k(  203) = (   0.3157895   0.3157895   0.4210526), wk =   0.0069981
        k(  204) = (   0.3157895   0.3157895   0.4736842), wk =   0.0069981
        k(  205) = (   0.3157895   0.3684211   0.3684211), wk =   0.0069981
        k(  206) = (   0.3157895   0.3684211   0.4210526), wk =   0.0139962
        k(  207) = (   0.3157895   0.3684211   0.4736842), wk =   0.0139962
        k(  208) = (   0.3157895   0.4210526   0.4210526), wk =   0.0069981
        k(  209) = (   0.3157895   0.4210526   0.4736842), wk =   0.0139962
        k(  210) = (   0.3157895   0.4736842   0.4736842), wk =   0.0069981
        k(  211) = (   0.3684211   0.3684211   0.3684211), wk =   0.0023327
        k(  212) = (   0.3684211   0.3684211   0.4210526), wk =   0.0069981
        k(  213) = (   0.3684211   0.3684211   0.4736842), wk =   0.0069981
        k(  214) = (   0.3684211   0.4210526   0.4210526), wk =   0.0069981
        k(  215) = (   0.3684211   0.4210526   0.4736842), wk =   0.0139962
        k(  216) = (   0.3684211   0.4736842   0.4736842), wk =   0.0069981
        k(  217) = (   0.4210526   0.4210526   0.4210526), wk =   0.0023327
        k(  218) = (   0.4210526   0.4210526   0.4736842), wk =   0.0069981
        k(  219) = (   0.4210526   0.4736842   0.4736842), wk =   0.0069981
        k(  220) = (   0.4736842   0.4736842   0.4736842), wk =   0.0023327

     Dense  grid:   105015 G-vectors     FFT dimensions: (  60,  60,  60)

     Smooth grid:    26745 G-vectors     FFT dimensions: (  40,  40,  40)

     Dynamical RAM for                 wfc:       0.02 MB

     Dynamical RAM for     wfc (w. buffer):       0.44 MB

     Dynamical RAM for           str. fact:       0.10 MB

     Dynamical RAM for           local pot:       0.00 MB

     Dynamical RAM for          nlocal pot:       0.05 MB

     Dynamical RAM for                qrad:       1.30 MB

     Dynamical RAM for          rho,v,vnew:       0.63 MB

     Dynamical RAM for               rhoin:       0.21 MB

     Dynamical RAM for            rho*nmix:       1.60 MB

     Dynamical RAM for           G-vectors:       0.39 MB

     Dynamical RAM for          h,s,v(r/c):       0.01 MB

     Dynamical RAM for          <psi|beta>:       0.00 MB

     Dynamical RAM for                 psi:       0.04 MB

     Dynamical RAM for                hpsi:       0.04 MB

     Dynamical RAM for                spsi:       0.04 MB

     Dynamical RAM for      wfcinit/wfcrot:       0.05 MB

     Dynamical RAM for           addusdens:       0.47 MB

     Dynamical RAM for          addusforce:       0.44 MB

     Dynamical RAM for         addusstress:       0.46 MB

     Estimated static dynamical RAM per process >       3.87 MB

     Estimated max dynamical RAM per process >       5.94 MB

     Estimated total dynamical RAM >     857.71 MB

     Initial potential from superposition of free atoms

     starting charge       5.9908, renormalised to       6.0000
     Starting wfcs are random
     Checking if some PAW data can be deallocated... 

     total cpu time spent up to now is        2.4 secs

     Self-consistent Calculation

     iteration #  1     ecut=    80.00 Ry     beta= 0.80
     Davidson diagonalization with overlap

---- Real-time Memory Report at c_bands before calling an iterative solver
           219 MiB given to the printing process from OS
             0 MiB allocation reported by mallinfo(arena+hblkhd)
        636757 MiB available memory on the node where the printing process lives
------------------
     ethr =  1.00E-02,  avg # of iterations =  8.5

     Threshold (ethr) on eigenvalues was too large:
     Diagonalizing with lowered threshold

     Davidson diagonalization with overlap

---- Real-time Memory Report at c_bands before calling an iterative solver
           226 MiB given to the printing process from OS
             0 MiB allocation reported by mallinfo(arena+hblkhd)
        636678 MiB available memory on the node where the printing process lives
------------------
     ethr =  2.87E-04,  avg # of iterations =  7.9

     total cpu time spent up to now is        3.7 secs

     total energy              =     -30.08766617 Ry
     estimated scf accuracy    <       0.00084219 Ry

     iteration #  2     ecut=    80.00 Ry     beta= 0.80
     Davidson diagonalization with overlap

---- Real-time Memory Report at c_bands before calling an iterative solver
           229 MiB given to the printing process from OS
             0 MiB allocation reported by mallinfo(arena+hblkhd)
        636438 MiB available memory on the node where the printing process lives
------------------
     ethr =  1.40E-05,  avg # of iterations =  6.9

     total cpu time spent up to now is        4.0 secs

     total energy              =     -30.08820872 Ry
     estimated scf accuracy    <       0.00002585 Ry

     iteration #  3     ecut=    80.00 Ry     beta= 0.80
     Davidson diagonalization with overlap

---- Real-time Memory Report at c_bands before calling an iterative solver
           231 MiB given to the printing process from OS
             0 MiB allocation reported by mallinfo(arena+hblkhd)
        636370 MiB available memory on the node where the printing process lives
------------------
     ethr =  4.31E-07,  avg # of iterations =  5.4

     total cpu time spent up to now is        4.2 secs

     total energy              =     -30.08823694 Ry
     estimated scf accuracy    <       0.00000523 Ry

     iteration #  4     ecut=    80.00 Ry     beta= 0.80
     Davidson diagonalization with overlap

---- Real-time Memory Report at c_bands before calling an iterative solver
           234 MiB given to the printing process from OS
             0 MiB allocation reported by mallinfo(arena+hblkhd)
        636292 MiB available memory on the node where the printing process lives
------------------
     ethr =  8.72E-08,  avg # of iterations =  1.7

     total cpu time spent up to now is        4.3 secs

     total energy              =     -30.08823729 Ry
     estimated scf accuracy    <       0.00000033 Ry

     iteration #  5     ecut=    80.00 Ry     beta= 0.80
     Davidson diagonalization with overlap

---- Real-time Memory Report at c_bands before calling an iterative solver
           237 MiB given to the printing process from OS
             0 MiB allocation reported by mallinfo(arena+hblkhd)
        636223 MiB available memory on the node where the printing process lives
------------------
     ethr =  5.45E-09,  avg # of iterations =  3.1

     total cpu time spent up to now is        4.4 secs

     total energy              =     -30.08823742 Ry
     estimated scf accuracy    <          7.1E-10 Ry

     iteration #  6     ecut=    80.00 Ry     beta= 0.80
     Davidson diagonalization with overlap

---- Real-time Memory Report at c_bands before calling an iterative solver
           239 MiB given to the printing process from OS
             0 MiB allocation reported by mallinfo(arena+hblkhd)
        636155 MiB available memory on the node where the printing process lives
------------------
     ethr =  1.19E-11,  avg # of iterations =  6.0

     total cpu time spent up to now is        4.6 secs

     total energy              =     -30.08823743 Ry
     estimated scf accuracy    <          4.8E-10 Ry

     iteration #  7     ecut=    80.00 Ry     beta= 0.80
     Davidson diagonalization with overlap

---- Real-time Memory Report at c_bands before calling an iterative solver
           242 MiB given to the printing process from OS
             0 MiB allocation reported by mallinfo(arena+hblkhd)
        636083 MiB available memory on the node where the printing process lives
------------------
     ethr =  8.06E-12,  avg # of iterations =  2.6

     total cpu time spent up to now is        4.7 secs

     total energy              =     -30.08823743 Ry
     estimated scf accuracy    <          2.8E-10 Ry

     iteration #  8     ecut=    80.00 Ry     beta= 0.80
     Davidson diagonalization with overlap

---- Real-time Memory Report at c_bands before calling an iterative solver
           245 MiB given to the printing process from OS
             0 MiB allocation reported by mallinfo(arena+hblkhd)
        636028 MiB available memory on the node where the printing process lives
------------------
     ethr =  4.71E-12,  avg # of iterations =  1.0

     total cpu time spent up to now is        4.8 secs

     total energy              =     -30.08823743 Ry
     estimated scf accuracy    <          3.8E-11 Ry

     iteration #  9     ecut=    80.00 Ry     beta= 0.80
     Davidson diagonalization with overlap

---- Real-time Memory Report at c_bands before calling an iterative solver
           248 MiB given to the printing process from OS
             0 MiB allocation reported by mallinfo(arena+hblkhd)
        635972 MiB available memory on the node where the printing process lives
------------------
     ethr =  6.37E-13,  avg # of iterations =  1.6

     total cpu time spent up to now is        4.9 secs

     total energy              =     -30.08823743 Ry
     estimated scf accuracy    <          5.8E-13 Ry

     iteration # 10     ecut=    80.00 Ry     beta= 0.80
     Davidson diagonalization with overlap

---- Real-time Memory Report at c_bands before calling an iterative solver
           250 MiB given to the printing process from OS
             0 MiB allocation reported by mallinfo(arena+hblkhd)
        635919 MiB available memory on the node where the printing process lives
------------------
     ethr =  1.00E-13,  avg # of iterations =  2.4

     total cpu time spent up to now is        5.0 secs

     total energy              =     -30.08823743 Ry
     estimated scf accuracy    <          1.7E-12 Ry

     iteration # 11     ecut=    80.00 Ry     beta= 0.80
     Davidson diagonalization with overlap

---- Real-time Memory Report at c_bands before calling an iterative solver
           253 MiB given to the printing process from OS
             0 MiB allocation reported by mallinfo(arena+hblkhd)
        635877 MiB available memory on the node where the printing process lives
------------------
     ethr =  1.00E-13,  avg # of iterations =  1.0

     total cpu time spent up to now is        5.1 secs

     total energy              =     -30.08823743 Ry
     estimated scf accuracy    <          4.7E-13 Ry

     iteration # 12     ecut=    80.00 Ry     beta= 0.80
     Davidson diagonalization with overlap

---- Real-time Memory Report at c_bands before calling an iterative solver
           255 MiB given to the printing process from OS
             0 MiB allocation reported by mallinfo(arena+hblkhd)
        635836 MiB available memory on the node where the printing process lives
------------------
     ethr =  1.00E-13,  avg # of iterations =  1.0

     total cpu time spent up to now is        5.2 secs

     total energy              =     -30.08823743 Ry
     estimated scf accuracy    <          8.8E-14 Ry

     iteration # 13     ecut=    80.00 Ry     beta= 0.80
     Davidson diagonalization with overlap

---- Real-time Memory Report at c_bands before calling an iterative solver
           257 MiB given to the printing process from OS
             0 MiB allocation reported by mallinfo(arena+hblkhd)
        635797 MiB available memory on the node where the printing process lives
------------------
     ethr =  1.00E-13,  avg # of iterations =  1.0

     total cpu time spent up to now is        5.3 secs

     End of self-consistent calculation

          k = 0.0000 0.0000 0.0000 (  3287 PWs)   bands (ev):

   -45.6218 -45.5898  -2.6650   6.4098   6.4098   6.4098   8.6601

     occupation numbers 
     1.0000   1.0000   1.0000   0.0000   0.0000   0.0000   0.0000

          k = 0.0000 0.0000 0.0526 (  3311 PWs)   bands (ev):

   -45.6215 -45.5899  -2.6387   5.9907   6.4437   6.4437   8.6954

     occupation numbers 
     1.0000   1.0000   1.0000   0.0000   0.0000   0.0000   0.0000

          k = 0.0000 0.0000 0.1053 (  3311 PWs)   bands (ev):

   -45.6208 -45.5905  -2.5600   5.1802   6.5451   6.5451   8.8009

     occupation numbers 
     1.0000   1.0000   1.0000   0.0000   0.0000   0.0000   0.0000

          k = 0.0000 0.0000 0.1579 (  3303 PWs)   bands (ev):

   -45.6195 -45.5913  -2.4285   4.3115   6.7140   6.7140   8.9768

     occupation numbers 
     1.0000   1.0000   1.0000   0.0000   0.0000   0.0000   0.0000

          k = 0.0000 0.0000 0.2105 (  3311 PWs)   bands (ev):

   -45.6178 -45.5926  -2.2438   3.4650   6.9500   6.9500   9.2231

     occupation numbers 
     1.0000   1.0000   1.0000   0.0000   0.0000   0.0000   0.0000

          k = 0.0000 0.0000 0.2632 (  3322 PWs)   bands (ev):

   -45.6158 -45.5941  -2.0055   2.6635   7.2529   7.2529   9.5397

     occupation numbers 
     1.0000   1.0000   1.0000   0.0000   0.0000   0.0000   0.0000

          k = 0.0000 0.0000 0.3158 (  3342 PWs)   bands (ev):

   -45.6135 -45.5960  -1.7129   1.9154   7.6220   7.6220   9.9267

     occupation numbers 
     1.0000   1.0000   1.0000   0.0000   0.0000   0.0000   0.0000

          k = 0.0000 0.0000 0.3684 (  3346 PWs)   bands (ev):

   -45.6109 -45.5981  -1.3653   1.2240   8.0565   8.0565  10.3841

     occupation numbers 
     1.0000   1.0000   1.0000   0.0001   0.0000   0.0000   0.0000

          k = 0.0000 0.0000 0.4211 (  3322 PWs)   bands (ev):

   -45.6083 -45.6004  -0.9619   0.5906   8.5553   8.5553  10.4165

     occupation numbers 
     1.0000   1.0000   1.0000   1.0167   0.0000   0.0000   0.0000

          k = 0.0000 0.0000 0.4737 (  3346 PWs)   bands (ev):

   -45.6056 -45.6030  -0.5019   0.0154   9.1167   9.1167   9.7383

     occupation numbers 
     1.0000   1.0000   1.0000   1.0000   0.0000   0.0000   0.0000

          k = 0.0000 0.0526 0.0526 (  3311 PWs)   bands (ev):

   -45.6213 -45.5901  -2.6125   5.8638   6.2055   6.4775   8.9610

     occupation numbers 
     1.0000   1.0000   1.0000   0.0000   0.0000   0.0000   0.0000

          k = 0.0000 0.0526 0.1053 (  3319 PWs)   bands (ev):

   -45.6205 -45.5906  -2.5338   5.1594   6.2206   6.5788   9.1453

     occupation numbers 
     1.0000   1.0000   1.0000   0.0000   0.0000   0.0000   0.0000

          k = 0.0000 0.0526 0.1579 (  3306 PWs)   bands (ev):

   -45.6193 -45.5915  -2.4023   4.3125   6.3782   6.7476   9.3322

     occupation numbers 
     1.0000   1.0000   1.0000   0.0000   0.0000   0.0000   0.0000

          k = 0.0000 0.0526 0.2105 (  3301 PWs)   bands (ev):

   -45.6176 -45.5927  -2.2177   3.4755   6.6106   6.9835   9.5803

     occupation numbers 
     1.0000   1.0000   1.0000   0.0000   0.0000   0.0000   0.0000

          k = 0.0000 0.0526 0.2632 (  3313 PWs)   bands (ev):

   -45.6156 -45.5942  -1.9795   2.6794   6.9117   7.2862   9.8959

     occupation numbers 
     1.0000   1.0000   1.0000   0.0000   0.0000   0.0000   0.0000

          k = 0.0000 0.0526 0.3158 (  3320 PWs)   bands (ev):

   -45.6133 -45.5960  -1.6870   1.9346   7.2796   7.6550  10.2800

     occupation numbers 
     1.0000   1.0000   1.0000   0.0000   0.0000   0.0000   0.0000

          k = 0.0000 0.0526 0.3684 (  3324 PWs)   bands (ev):

   -45.6108 -45.5981  -1.3397   1.2454   7.7133   8.0891  10.7353

     occupation numbers 
     1.0000   1.0000   1.0000   0.0000   0.0000   0.0000   0.0000

          k = 0.0000 0.0526 0.4211 (  3329 PWs)   bands (ev):

   -45.6082 -45.6004  -0.9366   0.6135   8.2114   8.5873  10.0726

     occupation numbers 
     1.0000   1.0000   1.0000   1.0267   0.0000   0.0000   0.0000

          k = 0.0000 0.0526 0.4737 (  3334 PWs)   bands (ev):

   -45.6055 -45.6029  -0.4772   0.0394   8.7724   9.1479   9.3941

     occupation numbers 
     1.0000   1.0000   1.0000   1.0000   0.0000   0.0000   0.0000

          k = 0.0000 0.1053 0.1053 (  3309 PWs)   bands (ev):

   -45.6198 -45.5911  -2.4551   4.9282   5.7859   6.6800   9.6580

     occupation numbers 
     1.0000   1.0000   1.0000   0.0000   0.0000   0.0000   0.0000

          k = 0.0000 0.1053 0.1579 (  3307 PWs)   bands (ev):

   -45.6186 -45.5919  -2.3237   4.2732   5.7658   6.8485   9.9810

     occupation numbers 
     1.0000   1.0000   1.0000   0.0000   0.0000   0.0000   0.0000

          k = 0.0000 0.1053 0.2105 (  3305 PWs)   bands (ev):

   -45.6170 -45.5931  -2.1393   3.4922   5.9504   7.0840  10.2678

     occupation numbers 
     1.0000   1.0000   1.0000   0.0000   0.0000   0.0000   0.0000

          k = 0.0000 0.1053 0.2632 (  3313 PWs)   bands (ev):

   -45.6151 -45.5945  -1.9014   2.7203   6.2316   7.3860  10.5921

     occupation numbers 
     1.0000   1.0000   1.0000   0.0000   0.0000   0.0000   0.0000

          k = 0.0000 0.1053 0.3158 (  3322 PWs)   bands (ev):

   -45.6128 -45.5963  -1.6094   1.9888   6.5881   7.7539  10.8515

     occupation numbers 
     1.0000   1.0000   1.0000   0.0000   0.0000   0.0000   0.0000

          k = 0.0000 0.1053 0.3684 (  3329 PWs)   bands (ev):

   -45.6104 -45.5983  -1.2628   1.3078   7.0136   8.1866  10.0773

     occupation numbers 
     1.0000   1.0000   1.0000   0.0000   0.0000   0.0000   0.0000

          k = 0.0000 0.1053 0.4211 (  3330 PWs)   bands (ev):

   -45.6079 -45.6005  -0.8610   0.6813   7.5050   8.6830   9.3500

     occupation numbers 
     1.0000   1.0000   1.0000   1.0700   0.0000   0.0000   0.0000

          k = 0.0000 0.1053 0.4737 (  3328 PWs)   bands (ev):

   -45.6054 -45.6029  -0.4033   0.1108   8.0600   8.6761   9.2409

     occupation numbers 
     1.0000   1.0000   1.0000   1.0000   0.0000   0.0000   0.0000

          k = 0.0000 0.1579 0.1579 (  3307 PWs)   bands (ev):

   -45.6175 -45.5927  -2.1925   4.0202   5.3533   7.0165  10.5078

     occupation numbers 
     1.0000   1.0000   1.0000   0.0000   0.0000   0.0000   0.0000

          k = 0.0000 0.1579 0.2105 (  3306 PWs)   bands (ev):

   -45.6160 -45.5937  -2.0085   3.4516   5.3309   7.2511  10.8933

     occupation numbers 
     1.0000   1.0000   1.0000   0.0000   0.0000   0.0000   0.0000

          k = 0.0000 0.1579 0.2632 (  3317 PWs)   bands (ev):

   -45.6142 -45.5951  -1.7712   2.7602   5.5336   7.5520  10.8309

     occupation numbers 
     1.0000   1.0000   1.0000   0.0000   0.0000   0.0000   0.0000

          k = 0.0000 0.1579 0.3158 (  3318 PWs)   bands (ev):

   -45.6121 -45.5967  -1.4802   2.0654   5.8528   7.9182  10.0232

     occupation numbers 
     1.0000   1.0000   1.0000   0.0000   0.0000   0.0000   0.0000

          k = 0.0000 0.1579 0.3684 (  3325 PWs)   bands (ev):

   -45.6098 -45.5985  -1.1352   1.4044   6.2556   8.3486   9.2562

     occupation numbers 
     1.0000   1.0000   1.0000   0.0000   0.0000   0.0000   0.0000

          k = 0.0000 0.1579 0.4211 (  3332 PWs)   bands (ev):

   -45.6075 -45.6006  -0.7357   0.7900   6.7304   8.5385   8.8415

     occupation numbers 
     1.0000   1.0000   1.0000   0.9861   0.0000   0.0000   0.0000

          k = 0.0000 0.1579 0.4737 (  3336 PWs)   bands (ev):

   -45.6051 -45.6028  -0.2815   0.2274   7.2717   7.8756   9.3943

     occupation numbers 
     1.0000   1.0000   1.0000   1.0000   0.0000   0.0000   0.0000

          k = 0.0000 0.2105 0.2105 (  3293 PWs)   bands (ev):

   -45.6146 -45.5947  -1.8251   3.2169   4.9767   7.4845  10.8192

     occupation numbers 
     1.0000   1.0000   1.0000   0.0000   0.0000   0.0000   0.0000

          k = 0.0000 0.2105 0.2632 (  3311 PWs)   bands (ev):

   -45.6129 -45.5958  -1.5889   2.7346   4.9699   7.7836   9.9869

     occupation numbers 
     1.0000   1.0000   1.0000   0.0000   0.0000   0.0000   0.0000

          k = 0.0000 0.2105 0.3158 (  3321 PWs)   bands (ev):

   -45.6111 -45.5972  -1.2997   2.1352   5.1908   8.1472   9.1881

     occupation numbers 
     1.0000   1.0000   1.0000   0.0000   0.0000   0.0000   0.0000

          k = 0.0000 0.2105 0.3684 (  3325 PWs)   bands (ev):

   -45.6090 -45.5989  -0.9574   1.5208   5.5418   8.4338   8.5739

     occupation numbers 
     1.0000   1.0000   1.0000   0.0000   0.0000   0.0000   0.0000

          k = 0.0000 0.2105 0.4211 (  3327 PWs)   bands (ev):

   -45.6069 -45.6007  -0.5621   0.9321   5.9840   7.7311   9.0613

     occupation numbers 
     1.0000   1.0000   1.0000   0.2992   0.0000   0.0000   0.0000

          k = 0.0000 0.2105 0.4737 (  3328 PWs)   bands (ev):

   -45.6048 -45.6027  -0.1142   0.3848   6.5012   7.0853   9.6057

     occupation numbers 
     1.0000   1.0000   1.0000   1.0000   0.0000   0.0000   0.0000

          k = 0.0000 0.2632 0.2632 (  3321 PWs)   bands (ev):

   -45.6115 -45.5968  -1.3545   2.5383   4.6740   8.0799   9.1642

     occupation numbers 
     1.0000   1.0000   1.0000   0.0000   0.0000   0.0000   0.0000

          k = 0.0000 0.2632 0.3158 (  3306 PWs)   bands (ev):

   -45.6098 -45.5980  -1.0683   2.1382   4.6903   8.3798   8.4396

     occupation numbers 
     1.0000   1.0000   1.0000   0.0000   0.0000   0.0000   0.0000

          k = 0.0000 0.2632 0.3684 (  3320 PWs)   bands (ev):

   -45.6081 -45.5993  -0.7306   1.6273   4.9305   7.6431   8.8606

     occupation numbers 
     1.0000   1.0000   1.0000   0.0000   0.0000   0.0000   0.0000

          k = 0.0000 0.2632 0.4211 (  3335 PWs)   bands (ev):

   -45.6062 -45.6009  -0.3424   1.0923   5.3097   6.9611   9.3393

     occupation numbers 
     1.0000   1.0000   1.0000   0.0081   0.0000   0.0000   0.0000

          k = 0.0000 0.2632 0.4737 (  3330 PWs)   bands (ev):

   -45.6044 -45.6026   0.0942   0.5752   5.7858   6.3397   9.8702

     occupation numbers 
     1.0000   1.0000   1.0000   1.0117   0.0000   0.0000   0.0000

          k = 0.0000 0.3158 0.3158 (  3317 PWs)   bands (ev):

   -45.6085 -45.5989  -0.7868   1.9914   4.4459   7.6139   8.7935

     occupation numbers 
     1.0000   1.0000   1.0000   0.0000   0.0000   0.0000   0.0000

          k = 0.0000 0.3158 0.3684 (  3321 PWs)   bands (ev):

   -45.6070 -45.5999  -0.4567   1.6699   4.4872   6.8998   9.2057

     occupation numbers 
     1.0000   1.0000   1.0000   0.0000   0.0000   0.0000   0.0000

          k = 0.0000 0.3158 0.4211 (  3332 PWs)   bands (ev):

   -45.6055 -45.6012  -0.0807   1.2425   4.7475   6.2454   9.6707

     occupation numbers 
     1.0000   1.0000   1.0000   0.0000   0.0000   0.0000   0.0000

          k = 0.0000 0.3158 0.4737 (  3325 PWs)   bands (ev):

   -45.6040 -45.6025   0.3361   0.7840   5.1522   5.6588  10.1792

     occupation numbers 
     1.0000   1.0000   1.0000   1.0035   0.0000   0.0000   0.0000

          k = 0.0000 0.3684 0.3684 (  3329 PWs)   bands (ev):

   -45.6058 -45.6007  -0.1390   1.5797   4.2860   6.2144   9.6040

     occupation numbers 
     1.0000   1.0000   1.0000   0.0000   0.0000   0.0000   0.0000

          k = 0.0000 0.3684 0.4211 (  3319 PWs)   bands (ev):

   -45.6047 -45.6015   0.2163   1.3336   4.3518   5.5972  10.0466

     occupation numbers 
     1.0000   1.0000   1.0000   0.0000   0.0000   0.0000   0.0000

          k = 0.0000 0.3684 0.4737 (  3315 PWs)   bands (ev):

   -45.6036 -45.6025   0.5980   0.9844   4.6326   5.0620  10.5166

     occupation numbers 
     1.0000   1.0000   1.0196   0.1222   0.0000   0.0000   0.0000

          k = 0.0000 0.4211 0.4211 (  3321 PWs)   bands (ev):

   -45.6039 -45.6020   0.5359   1.3045   4.1859   5.0327  10.4505

     occupation numbers 
     1.0000   1.0000   1.0042   0.0000   0.0000   0.0000   0.0000

          k = 0.0000 0.4211 0.4737 (  3316 PWs)   bands (ev):

   -45.6032 -45.6025   0.8549   1.1312   4.2750   4.5775  10.8514

     occupation numbers 
[...]
     1.0000   1.0000   1.0000   0.0000   0.0000   0.0000   0.0000

          k = 0.2108 0.2636 0.3163 (  3305 PWs)   bands (ev):

   -45.5859 -45.5764  -0.6320   2.6570   4.1430   7.2498   8.5069

     occupation numbers 
     1.0000   1.0000   1.0000   0.0000   0.0000   0.0000   0.0000

          k = 0.2108 0.2636 0.3690 (  3304 PWs)   bands (ev):

   -45.5844 -45.5774  -0.2919   2.1013   4.5465   7.4955   7.7016

     occupation numbers 
     1.0000   1.0000   1.0000   0.0000   0.0000   0.0000   0.0000

          k = 0.2108 0.2636 0.4217 (  3306 PWs)   bands (ev):

   -45.5829 -45.5786   0.0986   1.5473   5.0403   6.9436   7.8047

     occupation numbers 
     1.0000   1.0000   1.0000   0.0000   0.0000   0.0000   0.0000

          k = 0.2108 0.2636 0.4744 (  3308 PWs)   bands (ev):

   -45.5814 -45.5800   0.5377   1.0225   5.6082   6.2440   8.1666

     occupation numbers 
     1.0000   1.0000   1.0029   0.0742   0.0000   0.0000   0.0000

          k = 0.2108 0.3163 0.3163 (  3294 PWs)   bands (ev):

   -45.5848 -45.5771  -0.3453   2.5638   4.0218   7.3845   7.7940

     occupation numbers 
     1.0000   1.0000   1.0000   0.0000   0.0000   0.0000   0.0000

          k = 0.2108 0.3163 0.3690 (  3302 PWs)   bands (ev):

   -45.5835 -45.5779  -0.0093   2.2112   4.2195   7.0606   7.6071

     occupation numbers 
     1.0000   1.0000   1.0000   0.0000   0.0000   0.0000   0.0000

          k = 0.2108 0.3163 0.4217 (  3304 PWs)   bands (ev):

   -45.5823 -45.5788   0.3739   1.7451   4.6141   6.3581   7.8968

     occupation numbers 
     1.0000   1.0000   1.0000   0.0000   0.0000   0.0000   0.0000

          k = 0.2108 0.3163 0.4744 (  3303 PWs)   bands (ev):

   -45.5810 -45.5799   0.8003   1.2625   5.1206   5.7070   8.2401

     occupation numbers 
     1.0000   1.0000   0.9975   0.0000   0.0000   0.0000   0.0000

          k = 0.2108 0.3690 0.3690 (  3307 PWs)   bands (ev):

   -45.5826 -45.5784   0.3191   2.1512   4.1111   6.3930   7.8123

     occupation numbers 
     1.0000   1.0000   1.0000   0.0000   0.0000   0.0000   0.0000

          k = 0.2108 0.3690 0.4217 (  3302 PWs)   bands (ev):

   -45.5816 -45.5791   0.6881   1.8836   4.2860   5.7528   8.0854

     occupation numbers 
     1.0000   1.0000   1.0653   0.0000   0.0000   0.0000   0.0000

          k = 0.2108 0.3690 0.4744 (  3303 PWs)   bands (ev):

   -45.5807 -45.5798   1.0883   1.5007   4.6652   5.1682   8.4081

     occupation numbers 
     1.0000   1.0000   0.0139   0.0000   0.0000   0.0000   0.0000

          k = 0.2108 0.4217 0.4217 (  3306 PWs)   bands (ev):

   -45.5810 -45.5794   1.0298   1.8755   4.1741   5.1839   8.3374

     occupation numbers 
     1.0000   1.0000   0.0629   0.0000   0.0000   0.0000   0.0000

          k = 0.2108 0.4217 0.4744 (  3297 PWs)   bands (ev):

   -45.5804 -45.5798   1.3769   1.6848   4.3293   4.6920   8.6242

     occupation numbers 
     1.0000   1.0000   0.0000   0.0000   0.0000   0.0000   0.0000

          k = 0.2108 0.4744 0.4744 (  3300 PWs)   bands (ev):

   -45.5801 -45.5799   1.6182   1.7375   4.2067   4.3443   8.8357

     occupation numbers 
     1.0000   1.0000   0.0000   0.0000   0.0000   0.0000   0.0000

          k = 0.2636 0.2636 0.2636 (  3293 PWs)   bands (ev):

   -45.5862 -45.5761  -0.6833   3.4241   3.4241   7.0446   9.2948

     occupation numbers 
     1.0000   1.0000   1.0000   0.0000   0.0000   0.0000   0.0000

          k = 0.2636 0.2636 0.3163 (  3299 PWs)   bands (ev):

   -45.5850 -45.5768  -0.3943   2.8786   3.8058   7.1296   8.3810

     occupation numbers 
     1.0000   1.0000   1.0000   0.0000   0.0000   0.0000   0.0000

          k = 0.2636 0.2636 0.3690 (  3307 PWs)   bands (ev):

   -45.5837 -45.5777  -0.0544   2.3183   4.2563   7.3072   7.5287

     occupation numbers 
     1.0000   1.0000   1.0000   0.0000   0.0000   0.0000   0.0000

          k = 0.2636 0.2636 0.4217 (  3306 PWs)   bands (ev):

   -45.5824 -45.5787   0.3348   1.7707   4.7756   6.7406   7.5532

     occupation numbers 
     1.0000   1.0000   1.0000   0.0000   0.0000   0.0000   0.0000

          k = 0.2636 0.2636 0.4744 (  3303 PWs)   bands (ev):

   -45.5811 -45.5798   0.7714   1.2519   5.3631   6.0183   7.8506

     occupation numbers 
     1.0000   1.0000   1.0581   0.0000   0.0000   0.0000   0.0000

          k = 0.2636 0.3163 0.3163 (  3299 PWs)   bands (ev):

   -45.5840 -45.5774  -0.1056   2.8767   3.6849   7.1484   7.8376

     occupation numbers 
     1.0000   1.0000   1.0000   0.0000   0.0000   0.0000   0.0000

          k = 0.2636 0.3163 0.3690 (  3300 PWs)   bands (ev):

   -45.5829 -45.5780   0.2324   2.4912   3.9840   7.0836   7.2713

     occupation numbers 
     1.0000   1.0000   1.0000   0.0000   0.0000   0.0000   0.0000

          k = 0.2636 0.3163 0.4217 (  3307 PWs)   bands (ev):

   -45.5818 -45.5788   0.6175   2.0026   4.4541   6.3387   7.4687

     occupation numbers 
     1.0000   1.0000   1.0219   0.0000   0.0000   0.0000   0.0000

          k = 0.2636 0.3163 0.4744 (  3304 PWs)   bands (ev):

   -45.5807 -45.5797   1.0460   1.5117   5.0134   5.6445   7.7181

     occupation numbers 
     1.0000   1.0000   0.0429   0.0000   0.0000   0.0000   0.0000

          k = 0.2636 0.3690 0.3690 (  3300 PWs)   bands (ev):

   -45.5820 -45.5785   0.5657   2.4644   3.9282   6.4606   7.3517

     occupation numbers 
     1.0000   1.0000   1.0064   0.0000   0.0000   0.0000   0.0000

          k = 0.2636 0.3690 0.4217 (  3300 PWs)   bands (ev):

   -45.5812 -45.5790   0.9408   2.1789   4.1838   5.8066   7.5123

     occupation numbers 
     1.0000   1.0000   0.3234   0.0000   0.0000   0.0000   0.0000

          k = 0.2636 0.3690 0.4744 (  3296 PWs)   bands (ev):

   -45.5804 -45.5796   1.3494   1.7748   4.6323   5.1862   7.7237

     occupation numbers 
     1.0000   1.0000   0.0000   0.0000   0.0000   0.0000   0.0000

          k = 0.2636 0.4217 0.4217 (  3309 PWs)   bands (ev):

   -45.5806 -45.5793   1.2943   2.1888   4.1171   5.2484   7.6378

     occupation numbers 
     1.0000   1.0000   0.0000   0.0000   0.0000   0.0000   0.0000

          k = 0.2636 0.4217 0.4744 (  3302 PWs)   bands (ev):

   -45.5801 -45.5796   1.6573   1.9853   4.3266   4.7341   7.8046

     occupation numbers 
     1.0000   1.0000   0.0000   0.0000   0.0000   0.0000   0.0000

          k = 0.2636 0.4744 0.4744 (  3295 PWs)   bands (ev):

   -45.5799 -45.5797   1.9201   2.0509   4.2202   4.3778   7.9007

     occupation numbers 
     1.0000   1.0000   0.0000   0.0000   0.0000   0.0000   0.0000

          k = 0.3163 0.3163 0.3163 (  3293 PWs)   bands (ev):

   -45.5831 -45.5777   0.1848   3.2589   3.2589   7.0570   7.8467

     occupation numbers 
     1.0000   1.0000   1.0000   0.0000   0.0000   0.0000   0.0000

          k = 0.3163 0.3163 0.3690 (  3299 PWs)   bands (ev):

   -45.5822 -45.5783   0.5240   2.7804   3.7102   6.9907   7.0817

     occupation numbers 
     1.0000   1.0000   1.0019   0.0000   0.0000   0.0000   0.0000

          k = 0.3163 0.3163 0.4217 (  3307 PWs)   bands (ev):

   -45.5813 -45.5789   0.9091   2.2850   4.2303   6.2000   7.1875

     occupation numbers 
     1.0000   1.0000   0.4819   0.0000   0.0000   0.0000   0.0000

          k = 0.3163 0.3163 0.4744 (  3312 PWs)   bands (ev):

   -45.5804 -45.5796   1.3360   1.7980   4.8190   5.4758   7.3430

     occupation numbers 
     1.0000   1.0000   0.0000   0.0000   0.0000   0.0000   0.0000

          k = 0.3163 0.3690 0.3690 (  3300 PWs)   bands (ev):

   -45.5814 -45.5786   0.8625   2.8469   3.6555   6.5277   7.0192

     occupation numbers 
     1.0000   1.0000   0.7369   0.0000   0.0000   0.0000   0.0000

          k = 0.3163 0.3690 0.4217 (  3300 PWs)   bands (ev):

   -45.5807 -45.5790   1.2433   2.5265   4.0191   5.8448   7.0472

     occupation numbers 
     1.0000   1.0000   0.0000   0.0000   0.0000   0.0000   0.0000

          k = 0.3163 0.3690 0.4744 (  3304 PWs)   bands (ev):

   -45.5801 -45.5795   1.6590   2.0965   4.5522   5.1696   7.1287

     occupation numbers 
     1.0000   1.0000   0.0000   0.0000   0.0000   0.0000   0.0000

          k = 0.3163 0.4217 0.4217 (  3299 PWs)   bands (ev):

   -45.5802 -45.5792   1.6105   2.5716   4.0084   5.3249   7.0112

     occupation numbers 
     1.0000   1.0000   0.0000   0.0000   0.0000   0.0000   0.0000

          k = 0.3163 0.4217 0.4744 (  3299 PWs)   bands (ev):

   -45.5798 -45.5794   1.9923   2.3472   4.3026   4.7786   7.0411

     occupation numbers 
     1.0000   1.0000   0.0000   0.0000   0.0000   0.0000   0.0000

          k = 0.3163 0.4744 0.4744 (  3296 PWs)   bands (ev):

   -45.5796 -45.5795   2.2852   2.4338   4.2264   4.4170   7.0256

     occupation numbers 
     1.0000   1.0000   0.0000   0.0000   0.0000   0.0000   0.0000

          k = 0.3690 0.3690 0.3690 (  3301 PWs)   bands (ev):

   -45.5809 -45.5787   1.2057   3.2987   3.2987   6.5847   6.5847

     occupation numbers 
     1.0000   1.0000   0.0002   0.0000   0.0000   0.0000   0.0000

          k = 0.3690 0.3690 0.4217 (  3300 PWs)   bands (ev):

   -45.5803 -45.5790   1.5900   2.8843   3.8195   5.7922   6.6247

     occupation numbers 
     1.0000   1.0000   0.0000   0.0000   0.0000   0.0000   0.0000

          k = 0.3690 0.3690 0.4744 (  3299 PWs)   bands (ev):

   -45.5798 -45.5793   2.0072   2.4449   4.4089   5.0667   6.6558

     occupation numbers 
     1.0000   1.0000   0.0000   0.0000   0.0000   0.0000   0.0000

          k = 0.3690 0.4217 0.4217 (  3295 PWs)   bands (ev):

   -45.5799 -45.5791   1.9719   3.0237   3.8227   5.4139   6.3131

     occupation numbers 
     1.0000   1.0000   0.0000   0.0000   0.0000   0.0000   0.0000

          k = 0.3690 0.4217 0.4744 (  3298 PWs)   bands (ev):

   -45.5795 -45.5793   2.3732   2.7605   4.2400   4.8150   6.3016

     occupation numbers 
     1.0000   1.0000   0.0000   0.0000   0.0000   0.0000   0.0000

          k = 0.3690 0.4744 0.4744 (  3303 PWs)   bands (ev):

   -45.5794 -45.5793   2.7080   2.8860   4.2147   4.4645   6.2055

     occupation numbers 
     1.0000   1.0000   0.0000   0.0000   0.0000   0.0000   0.0000

          k = 0.4217 0.4217 0.4217 (  3301 PWs)   bands (ev):

   -45.5796 -45.5791   2.3680   3.5448   3.5448   5.5195   5.5195

     occupation numbers 
     1.0000   1.0000   0.0000   0.0000   0.0000   0.0000   0.0000

          k = 0.4217 0.4217 0.4744 (  3295 PWs)   bands (ev):

   -45.5793 -45.5792   2.7818   3.1863   4.1347   4.7931   5.6535

     occupation numbers 
     1.0000   1.0000   0.0000   0.0000   0.0000   0.0000   0.0000

          k = 0.4217 0.4744 0.4744 (  3293 PWs)   bands (ev):

   -45.5792 -45.5792   3.1746   3.4073   4.1604   4.5309   5.3835

     occupation numbers 
     1.0000   1.0000   0.0000   0.0000   0.0000   0.0000   0.0000

          k = 0.4744 0.4744 0.4744 (  3307 PWs)   bands (ev):

   -45.5791 -45.5791   3.6424   3.9975   3.9975   4.6561   4.6562

     occupation numbers 
     1.0000   1.0000   0.0000   0.0000   0.0000   0.0000   0.0000

     the Fermi energy is     0.9247 ev

!    total energy              =     -30.08823996 Ry
     total all-electron energy =       -30.088256 Ry
     estimated scf accuracy    <          8.1E-22 Ry
     smearing contrib. (-TS)   =      -0.00002881 Ry
     internal energy E=F+TS    =     -30.08821115 Ry

     The total energy is F=E-TS. E is the sum of the following terms:
     one-electron contribution =     -21.14716520 Ry
     hartree contribution      =       8.16591753 Ry
     xc contribution           =      -7.19105407 Ry
     ewald contribution        =     -10.09219797 Ry
     one-center paw contrib.   =       0.17628856 Ry
      -> PAW hartree energy AE =       7.52227171 Ry
      -> PAW hartree energy PS =      -7.29981081 Ry
      -> PAW xc energy AE      =      -3.50342571 Ry
      -> PAW xc energy PS      =       3.36910909 Ry
      -> total E_H with PAW    =       8.38837843 Ry
      -> total E_XC with PAW   =      -7.32537069 Ry

     convergence has been achieved in  32 iterations

     Forces acting on atoms (cartesian axes, Ry/au):

     atom    1 type  1   force =     0.00000000    0.00000000    0.00000000
     atom    2 type  1   force =     0.00000000    0.00000000    0.00000000
     The non-local contrib.  to forces
     atom    1 type  1   force =     0.00000000    0.00000000    0.00000000
     atom    2 type  1   force =     0.00000000    0.00000000    0.00000000
     The ionic contribution  to forces
     atom    1 type  1   force =    -0.00000000   -0.00000000   -0.00000000
     atom    2 type  1   force =     0.00000000    0.00000000    0.00000000
     The local contribution  to forces
     atom    1 type  1   force =     0.00000000    0.00000000   -0.00000000
     atom    2 type  1   force =     0.00000047    0.00000047    0.00000047
     The core correction contribution to forces
     atom    1 type  1   force =     0.00000000    0.00000000    0.00000000
     atom    2 type  1   force =     0.00000000    0.00000000    0.00000000
     The Hubbard contrib.    to forces
     atom    1 type  1   force =     0.00000000    0.00000000    0.00000000
     atom    2 type  1   force =     0.00000000    0.00000000    0.00000000
     The SCF correction term to forces
     atom    1 type  1   force =     0.00000000    0.00000000   -0.00000000
     atom    2 type  1   force =    -0.00000000    0.00000000    0.00000000

     Total force =     0.000000     Total SCF correction =     0.000000


     Computing stress (Cartesian axis) and pressure

          total   stress  (Ry/bohr**3)                   (kbar)     P=       -0.00
  -0.00000002   0.00000000  -0.00000000           -0.00        0.00       -0.00
   0.00000000  -0.00000002   0.00000000            0.00       -0.00        0.00
  -0.00000000   0.00000000  -0.00000002           -0.00        0.00       -0.00

     kinetic stress (kbar)   2646.46      0.00     -0.00
                                0.00   2646.46      0.00
                               -0.00      0.00   2646.46

     local   stress (kbar)  -1127.30     -0.00      0.00
                               -0.00  -1127.30     -0.00
                                0.00     -0.00  -1127.30

     nonloc. stress (kbar)     69.65      0.00     -0.00
                                0.00     69.65      0.00
                               -0.00      0.00     69.65

     hartree stress (kbar)   1464.27     -0.00     -0.00
                               -0.00   1464.27      0.00
                               -0.00      0.00   1464.27

     exc-cor stress (kbar)  -1243.40     -0.00      0.00
                               -0.00  -1243.40     -0.00
                                0.00     -0.00  -1243.40

     corecor stress (kbar)      0.00      0.00      0.00
                                0.00      0.00      0.00
                                0.00      0.00      0.00

     ewald   stress (kbar)  -1809.68     -0.00     -0.00
                               -0.00  -1809.68      0.00
                               -0.00      0.00  -1809.68

     hubbard stress (kbar)      0.00      0.00      0.00
                                0.00      0.00      0.00
                                0.00      0.00      0.00

     DFT-D   stress (kbar)      0.00      0.00      0.00
                                0.00      0.00      0.00
                                0.00      0.00      0.00

     XDM     stress (kbar)      0.00      0.00      0.00
                                0.00      0.00      0.00
                                0.00      0.00      0.00

     dft-nl  stress (kbar)      0.00      0.00      0.00
                                0.00      0.00      0.00
                                0.00      0.00      0.00

     TS-vdW  stress (kbar)      0.00      0.00      0.00
                                0.00      0.00      0.00
                                0.00      0.00      0.00

     MDB     stress (kbar)      0.00      0.00      0.00
                                0.00      0.00      0.00
                                0.00      0.00      0.00

     3D-RISM stress (kbar)      0.00      0.00      0.00
                                0.00      0.00      0.00
                                0.00      0.00      0.00

     Message from routine punch:
     Nothing written, as per user request (disk_io='none')
 
     init_run     :      0.19s CPU      0.49s WALL (       2 calls)
     electrons    :     14.46s CPU     18.33s WALL (       9 calls)
     update_pot   :      0.13s CPU      0.14s WALL (       7 calls)
     forces       :      0.04s CPU      0.07s WALL (       9 calls)
     stress       :      0.15s CPU      0.22s WALL (       9 calls)

     Called by init_run:
     wfcinit      :      0.03s CPU      0.11s WALL (       2 calls)
     wfcinit:wfcr :      0.03s CPU      0.10s WALL (      38 calls)
     potinit      :      0.04s CPU      0.10s WALL (       2 calls)
     hinit0       :      0.03s CPU      0.15s WALL (       2 calls)

     Called by electrons:
     c_bands      :      8.49s CPU     11.41s WALL (     189 calls)
     sum_band     :      2.10s CPU      2.74s WALL (     189 calls)
     v_of_rho     :      0.94s CPU      0.99s WALL (     190 calls)
     v_h          :      0.06s CPU      0.07s WALL (     190 calls)
     v_xc         :      0.88s CPU      0.92s WALL (     190 calls)
     newd         :      0.10s CPU      0.11s WALL (     190 calls)
     PAW_pot      :      2.66s CPU      2.88s WALL (     197 calls)
     mix_rho      :      0.15s CPU      0.17s WALL (     189 calls)

     Called by c_bands:
     init_us_2    :      0.13s CPU      0.18s WALL (    7695 calls)
     cegterg      :      6.79s CPU      9.52s WALL (    3609 calls)

     Called by sum_band:
     sum_band:wei :      0.10s CPU      0.15s WALL (     189 calls)
     sum_band:loo :      1.26s CPU      1.78s WALL (     189 calls)
     sum_band:buf :      0.01s CPU      0.02s WALL (    3591 calls)
     sum_band:ini :      0.07s CPU      0.11s WALL (    3591 calls)
     sum_band:cal :      0.08s CPU      0.11s WALL (    3724 calls)
     sum_band:bec :      0.02s CPU      0.03s WALL (    3724 calls)
     addusdens    :      0.13s CPU      0.15s WALL (     189 calls)
                                        0.00s GPU  (     189 calls)
     addusd:skk   :      0.00s CPU      0.00s WALL (     189 calls)
                                        0.00s GPU  (     189 calls)

     Called by *egterg:
     cdiaghg      :      0.35s CPU      0.53s WALL (   10479 calls)
     cegterg:over :      0.24s CPU      0.33s WALL (    7173 calls)
     cegterg:upda :      0.06s CPU      0.08s WALL (    7173 calls)
     cegterg:last :      0.06s CPU      0.08s WALL (    5699 calls)
     h_psi        :      5.52s CPU      7.73s WALL (   10820 calls)
     s_psi        :      0.08s CPU      0.11s WALL (   10820 calls)
     g_psi        :      0.02s CPU      0.04s WALL (    7173 calls)

     Called by h_psi:
     h_psi:calbec :      0.23s CPU      0.33s WALL (   10820 calls)
     vloc_psi     :      5.02s CPU      7.03s WALL (   10820 calls)
                                        0.00s GPU  (   10820 calls)
     add_vuspsi   :      0.09s CPU      0.12s WALL (   10820 calls)

     General routines
     calbec       :      0.29s CPU      0.40s WALL (   17451 calls)
     fft          :      0.57s CPU      0.68s WALL (    2539 calls)
     ffts         :      0.08s CPU      0.10s WALL (     379 calls)
     fftw         :      5.29s CPU      7.39s WALL (  148127 calls)
     interpolate  :      0.08s CPU      0.09s WALL (     190 calls)
 
     Parallel routines

     PAW routines
     PAW_pot      :      2.66s CPU      2.88s WALL (     197 calls)
     PAW_symme    :      0.24s CPU      0.25s WALL (     386 calls)
 
     PWSCF        :     15.76s CPU     21.65s WALL

 
   This run was terminated on:  22:22:13  25Dec2024            

=------------------------------------------------------------------------------=
   JOB DONE.
=------------------------------------------------------------------------------=
