
     Program PWSCF v.7.4 starts on 24Jan2025 at  1:57:13 

     This program is part of the open-source Quantum ESPRESSO suite
     for quantum simulation of materials; please cite
         "P. Giannozzi et al., J. Phys.:Condens. Matter 21 395502 (2009);
         "P. Giannozzi et al., J. Phys.:Condens. Matter 29 465901 (2017);
         "P. Giannozzi et al., J. Chem. Phys. 152 154105 (2020);
          URL http://www.quantum-espresso.org", 
     in publications or presentations arising from this work. More details at
     http://www.quantum-espresso.org/quote

     Parallel version (MPI & OpenMP), running on     384 processor cores
     Number of MPI processes:               384
     Threads/MPI process:                     1

     MPI processes distributed on     3 nodes
     233599 MiB available memory on the printing compute node when the environment starts

     Reading input from espresso.pwi
Warning: card &CELL ignored
Warning: card    PRESS_CONV_THR   = 0.1 ignored
Warning: card    CELL_DOFREE      = 'ALL' ignored
Warning: card / ignored
Warning: card &FCP ignored
Warning: card / ignored
Warning: card &RISM ignored
Warning: card / ignored

     Current dimensions of program PWSCF are:
     Max number of different atomic species (ntypx) = 10
     Max number of k-points (npk) =  40000
     Max angular momentum in pseudopotentials (lmaxx) =  4

     IMPORTANT: XC functional enforced from input :
     Exchange-correlation= PBE
                           (   1   4   3   4   0   0   0)
     Any further DFT definition will be discarded
     Please, verify this is what you really want


     Reading input from environ.in:
     * using ionic solvent mode
     * setting boundary derivatives method to SSCS default
     * setting electrolyte-boundary derivatives method to SSCS default

Environ Warning (1001): card EOF ignored

     

     K-points division:     npool     =       2
     R & G space division:  proc/nbgrp/npool/nimage =     192
     Subspace diagonalization in iterative solution of the eigenvalue problem:
     a serial algorithm will be used


     Parallelization info
     --------------------
     sticks:   dense  smooth     PW     G-vecs:    dense   smooth      PW
     Min          68      27      7                36508     9229    1253
     Max          69      28      8                36563     9258    1292
     Sum       13133    5269   1401              7013397  1773951  244485

     Using Slab Decomposition



     bravais-lattice index     =            8
     lattice parameter (alat)  =      11.2436  a.u.
     unit-cell volume          =   18353.5537 (a.u.)^3
     number of atoms/cell      =           24
     number of atomic types    =            1
     number of electrons       =        72.00
     number of Kohn-Sham states=           54
     kinetic-energy cutoff     =      80.0000  Ry
     charge density cutoff     =     800.0000  Ry
     scf convergence threshold =      1.0E-06
     mixing beta               =       0.2000
     number of iterations used =            8  local-TF  mixing
     energy convergence thresh.=      1.0E-05
     force convergence thresh. =      3.9E-04
     Exchange-correlation= PBE
                           (   1   4   3   4   0   0   0)
     nstep                     =          999


     ================================================================================

                                  Environ Setup Summary

     ================================================================================

     Please cite

          O. Andreussi, I. Dabo and N. Marzari, J. Chem. Phys. 136, 064102 (2012)
          F. Nattino, M. Truscott, N. Marzari, and O. Andreussi, J. Chem. Phys. 150, 041722 (2019)

     in publications or presentations arising from this work.

     ================================================================================

     Parameters
     ==========

     compensation onset threshold      =               0.1000E+00
     static permittivity               =                    89.90
     surface tension in input (dyn/cm) =                    37.30
     surface tension in internal units =               0.4792E-04

     Solvent Boundary
     ================

     solvent mode                      =                    ionic
     derivatives method                =                   lowmem
     electrolyte derivatives method    =                   lowmem
     numerical core for derivatives    =                      fft
     switching function adopted        =                     SCCS
     density limit for vacuum region   =               0.5000E-02
     density limit for bulk solvent    =               0.1000E-03
     soft-sphere radius mode           =                    bondi
     soft-sphere softness              =                     0.50
     alpha                             =                     1.32

     Electrostatic Setup
     ===================

     electrostatic problem to solve    =                    modpb
     numerical solver adopted          =                   newton
     type of auxiliary density adopted =                     none
     numerical core for poisson        =                      fft
     adopting a nested solver scheme
     inner solver                      =                       cg
     inner core                        =                      fft
     type of pbc corrections           =                parabolic
     numerical core for corrections    =                      1da

     ================================================================================


     >>>>> Grand-Canonical SCF is activated <<<<<
     Initial Total Charge  =     0.000000 e
     Target Fermi Energy   =    -1.654000 eV
     Thr. of Fermi Energy  =     0.001000 eV
     Wave-shift of Kerker  =     0.400000 bohr^-1
     Wave-shift of Hartree =     1.500000 bohr^-1
     Mixing Rate of Fermi  =     0.050000

     celldm(1)=  11.243615  celldm(2)=   1.632993  celldm(3)=   7.907113
     celldm(4)=   0.000000  celldm(5)=   0.000000  celldm(6)=   0.000000

     crystal axes: (cart. coord. in units of alat)
               a(1) = (   1.000000   0.000000   0.000000 )  
               a(2) = (   0.000000   1.632993   0.000000 )  
               a(3) = (   0.000000   0.000000   7.907113 )  

     reciprocal axes: (cart. coord. in units 2 pi/alat)
               b(1) = (  1.000000  0.000000  0.000000 )  
               b(2) = (  0.000000  0.612372  0.000000 )  
               b(3) = (  0.000000  0.000000  0.126468 )  


     PseudoPot. # 1 for Li read from file:
     /work/e89/e89/ba3g18/Repos/Pseudopotentials/Pslibrary/Li.pbe-sl-kjpaw_psl.1.0.0.UPF
     MD5 check sum: 3f4d2cafebb47c6c3aa8ed472e6f074d
     Pseudo is Projector augmented-wave, Zval =  3.0
     Generated using 'atomic' code by A. Dal Corso  v.7.4
     Shape of augmentation charge: PSQ
     Using radial grid of 1017 points,  4 beta functions with: 
                l(1) =   0
                l(2) =   0
                l(3) =   1
                l(4) =   1
     Q(r) pseudized with 0 coefficients 


     atomic species   valence    mass     pseudopotential
     Li                3.00     6.94000     Li( 1.00)

      2 Sym. Ops. (no inversion) found


                                    s                        frac. trans.

      isym =  1     identity                                     

 cryst.   s( 1) = (     1          0          0      )
                  (     0          1          0      )
                  (     0          0          1      )

 cart.    s( 1) = (  1.0000000  0.0000000  0.0000000 )
                  (  0.0000000  1.0000000  0.0000000 )
                  (  0.0000000  0.0000000  1.0000000 )


      isym =  2     inv. 180 deg rotation - cart. axis [0,1,0]   

 cryst.   s( 2) = (     1          0          0      )
                  (     0         -1          0      )
                  (     0          0          1      )

 cart.    s( 2) = (  1.0000000  0.0000000  0.0000000 )
                  (  0.0000000 -1.0000000  0.0000000 )
                  (  0.0000000  0.0000000  1.0000000 )


     point group C_s (m)    
     there are  2 classes
     the character table:

       E     s    
A'     1.00  1.00
A''    1.00 -1.00

     the symmetry operations in each class and the name of the first element:

     E        1
          identity                                               
     s        2
          inv. 180 deg rotation - cart. axis [0,1,0]             

   Cartesian axes

     site n.     atom                  positions (alat units)
         1        Li     tau(   1) = (   0.4588978   0.8164966   4.4933523  )
         2        Li     tau(   2) = (   0.2074469   0.4078452   3.4136576  )
         3        Li     tau(   3) = (   0.4589735   0.8164966   3.5818257  )
         4        Li     tau(   4) = (   0.4598760   0.4079077   3.8658933  )
         5        Li     tau(   5) = (   0.2107534   0.8164966   4.0415828  )
         6        Li     tau(   6) = (   0.2066263   0.4082780   4.3244518  )
         7        Li     tau(   7) = (   0.4573649   1.6329931   4.4938236  )
         8        Li     tau(   8) = (   0.2074469   1.2251481   3.4136576  )
         9        Li     tau(   9) = (   0.4567660   1.6329931   3.5824184  )
        10        Li     tau(  10) = (   0.4598760   1.2250856   3.8658933  )
        11        Li     tau(  11) = (   0.2093648   1.6329931   4.0416392  )
        12        Li     tau(  12) = (   0.2066263   1.2247153   4.3244518  )
        13        Li     tau(  13) = (   0.9583340   0.8164966   4.4933295  )
        14        Li     tau(  14) = (   0.7075243   0.4078347   3.4136434  )
        15        Li     tau(  15) = (   0.9590311   0.8164966   3.5819065  )
        16        Li     tau(  16) = (   0.9599510   0.4080900   3.8658746  )
        17        Li     tau(  17) = (   0.7109853   0.8164966   4.0417840  )
        18        Li     tau(  18) = (   0.7066142   0.4085177   4.3244834  )
        19        Li     tau(  19) = (   0.9577346   1.6329931   4.4938316  )
        20        Li     tau(  20) = (   0.7075243   1.2251585   3.4136434  )
        21        Li     tau(  21) = (   0.9567151   1.6329931   3.5823034  )
        22        Li     tau(  22) = (   0.9599510   1.2249033   3.8658746  )
        23        Li     tau(  23) = (   0.7090025   1.6329931   4.0415130  )
        24        Li     tau(  24) = (   0.7066142   1.2244756   4.3244834  )

   Crystallographic axes

     site n.     atom                  positions (cryst. coord.)
         1        Li     tau(   1) = (  0.4588978  0.5000001  0.5682671  )
         2        Li     tau(   2) = (  0.2074469  0.2497532  0.4317199  )
         3        Li     tau(   3) = (  0.4589735  0.5000001  0.4529878  )
         4        Li     tau(   4) = (  0.4598760  0.2497915  0.4889134  )
         5        Li     tau(   5) = (  0.2107534  0.5000001  0.5111325  )
         6        Li     tau(   6) = (  0.2066263  0.2500182  0.5469065  )
         7        Li     tau(   7) = (  0.4573649  1.0000001  0.5683267  )
         8        Li     tau(   8) = (  0.2074469  0.7502470  0.4317199  )
         9        Li     tau(   9) = (  0.4567660  1.0000001  0.4530628  )
        10        Li     tau(  10) = (  0.4598760  0.7502087  0.4889134  )
        11        Li     tau(  11) = (  0.2093648  1.0000001  0.5111397  )
        12        Li     tau(  12) = (  0.2066263  0.7499820  0.5469065  )
        13        Li     tau(  13) = (  0.9583340  0.5000001  0.5682642  )
        14        Li     tau(  14) = (  0.7075243  0.2497468  0.4317180  )
        15        Li     tau(  15) = (  0.9590311  0.5000001  0.4529980  )
        16        Li     tau(  16) = (  0.9599510  0.2499031  0.4889110  )
        17        Li     tau(  17) = (  0.7109853  0.5000001  0.5111580  )
        18        Li     tau(  18) = (  0.7066142  0.2501650  0.5469105  )
        19        Li     tau(  19) = (  0.9577346  1.0000001  0.5683277  )
        20        Li     tau(  20) = (  0.7075243  0.7502534  0.4317180  )
        21        Li     tau(  21) = (  0.9567151  1.0000001  0.4530482  )
        22        Li     tau(  22) = (  0.9599510  0.7500971  0.4889110  )
        23        Li     tau(  23) = (  0.7090025  1.0000001  0.5111237  )
        24        Li     tau(  24) = (  0.7066142  0.7498352  0.5469105  )

     number of k points=    24  Marzari-Vanderbilt smearing, width (Ry)=  0.0100
                       cart. coord. in units 2pi/alat
        k(    1) = (   0.0000000   0.0000000   0.0000000), wk =   0.0259740
        k(    2) = (   0.0000000   0.0874818   0.0000000), wk =   0.0519481
        k(    3) = (   0.0000000   0.1749636   0.0000000), wk =   0.0519481
        k(    4) = (   0.0000000   0.2624454   0.0000000), wk =   0.0519481
        k(    5) = (   0.0909091   0.0000000   0.0000000), wk =   0.0519481
        k(    6) = (   0.0909091   0.0874818   0.0000000), wk =   0.1038961
        k(    7) = (   0.0909091   0.1749636   0.0000000), wk =   0.1038961
        k(    8) = (   0.0909091   0.2624454   0.0000000), wk =   0.1038961
        k(    9) = (   0.1818182   0.0000000   0.0000000), wk =   0.0519481
        k(   10) = (   0.1818182   0.0874818   0.0000000), wk =   0.1038961
        k(   11) = (   0.1818182   0.1749636   0.0000000), wk =   0.1038961
        k(   12) = (   0.1818182   0.2624454   0.0000000), wk =   0.1038961
        k(   13) = (   0.2727273   0.0000000   0.0000000), wk =   0.0519481
        k(   14) = (   0.2727273   0.0874818   0.0000000), wk =   0.1038961
        k(   15) = (   0.2727273   0.1749636   0.0000000), wk =   0.1038961
        k(   16) = (   0.2727273   0.2624454   0.0000000), wk =   0.1038961
        k(   17) = (   0.3636364   0.0000000   0.0000000), wk =   0.0519481
        k(   18) = (   0.3636364   0.0874818   0.0000000), wk =   0.1038961
        k(   19) = (   0.3636364   0.1749636   0.0000000), wk =   0.1038961
        k(   20) = (   0.3636364   0.2624454   0.0000000), wk =   0.1038961
        k(   21) = (   0.4545455   0.0000000   0.0000000), wk =   0.0519481
        k(   22) = (   0.4545455   0.0874818   0.0000000), wk =   0.1038961
        k(   23) = (   0.4545455   0.1749636   0.0000000), wk =   0.1038961
        k(   24) = (   0.4545455   0.2624454   0.0000000), wk =   0.1038961

                       cryst. coord.
        k(    1) = (   0.0000000   0.0000000   0.0000000), wk =   0.0259740
        k(    2) = (   0.0000000   0.1428571   0.0000000), wk =   0.0519481
        k(    3) = (   0.0000000   0.2857143   0.0000000), wk =   0.0519481
        k(    4) = (   0.0000000   0.4285714   0.0000000), wk =   0.0519481
        k(    5) = (   0.0909091   0.0000000   0.0000000), wk =   0.0519481
        k(    6) = (   0.0909091   0.1428571   0.0000000), wk =   0.1038961
        k(    7) = (   0.0909091   0.2857143   0.0000000), wk =   0.1038961
        k(    8) = (   0.0909091   0.4285714   0.0000000), wk =   0.1038961
        k(    9) = (   0.1818182   0.0000000   0.0000000), wk =   0.0519481
        k(   10) = (   0.1818182   0.1428571   0.0000000), wk =   0.1038961
        k(   11) = (   0.1818182   0.2857143   0.0000000), wk =   0.1038961
        k(   12) = (   0.1818182   0.4285714   0.0000000), wk =   0.1038961
        k(   13) = (   0.2727273   0.0000000   0.0000000), wk =   0.0519481
        k(   14) = (   0.2727273   0.1428571   0.0000000), wk =   0.1038961
        k(   15) = (   0.2727273   0.2857143   0.0000000), wk =   0.1038961
        k(   16) = (   0.2727273   0.4285714   0.0000000), wk =   0.1038961
        k(   17) = (   0.3636364   0.0000000   0.0000000), wk =   0.0519481
        k(   18) = (   0.3636364   0.1428571   0.0000000), wk =   0.1038961
        k(   19) = (   0.3636364   0.2857143   0.0000000), wk =   0.1038961
        k(   20) = (   0.3636364   0.4285714   0.0000000), wk =   0.1038961
        k(   21) = (   0.4545455   0.0000000   0.0000000), wk =   0.0519481
        k(   22) = (   0.4545455   0.1428571   0.0000000), wk =   0.1038961
        k(   23) = (   0.4545455   0.2857143   0.0000000), wk =   0.1038961
        k(   24) = (   0.4545455   0.4285714   0.0000000), wk =   0.1038961

     Dense  grid:  7013397 G-vectors     FFT dimensions: ( 108, 180, 810)

     Smooth grid:  1773951 G-vectors     FFT dimensions: (  72, 108, 512)

     Dynamical RAM for                 wfc:       0.95 MB

     Dynamical RAM for     wfc (w. buffer):      12.37 MB

     Dynamical RAM for           str. fact:       0.56 MB

     Dynamical RAM for           local pot:       0.00 MB

     Dynamical RAM for          nlocal pot:       3.38 MB

     Dynamical RAM for                qrad:       0.65 MB

     Dynamical RAM for          rho,v,vnew:       3.90 MB

     Dynamical RAM for               rhoin:       1.30 MB

     Dynamical RAM for            rho*nmix:       8.92 MB

     Dynamical RAM for           G-vectors:       2.16 MB

     Dynamical RAM for          h,s,v(r/c):       2.14 MB

     Dynamical RAM for          <psi|beta>:       0.16 MB

     Dynamical RAM for                 psi:       3.81 MB

     Dynamical RAM for                hpsi:       3.81 MB

     Dynamical RAM for                spsi:       3.81 MB

     Dynamical RAM for      wfcinit/wfcrot:       1.97 MB

     Dynamical RAM for           addusdens:      18.96 MB

     Dynamical RAM for          addusforce:      31.80 MB

     Estimated static dynamical RAM per process >      29.14 MB

     Estimated max dynamical RAM per process >     107.02 MB

     Estimated total dynamical RAM >      24.53 GB

     Initial potential from superposition of free atoms

     starting charge      71.8894, renormalised to      72.0000

     negative rho (up, down):  3.175E-03 0.000E+00
     Starting wfcs are random
     Checking if some PAW data can be deallocated... 

     total cpu time spent up to now is       23.3 secs

     Self-consistent Calculation

     iteration #  1     ecut=    80.00 Ry     beta= 0.20
     Davidson diagonalization with overlap

---- Real-time Memory Report at c_bands before calling an iterative solver
           459 MiB given to the printing process from OS
             0 MiB allocation reported by mallinfo(arena+hblkhd)
        218898 MiB available memory on the node where the printing process lives
------------------
     c_bands:  1 eigenvalues not converged
     c_bands:  1 eigenvalues not converged
     c_bands:  1 eigenvalues not converged
     c_bands:  1 eigenvalues not converged
     c_bands:  1 eigenvalues not converged
     c_bands:  1 eigenvalues not converged
     ethr =  1.00E-12,  avg # of iterations =110.2

     negative rho (up, down):  2.334E-03 0.000E+00

     total cpu time spent up to now is      115.9 secs

     total energy              =    -361.01402544 Ry
     estimated scf accuracy    <       0.12695031 Ry

     total charge of GC-SCF    =       0.01837222 e
     the Fermi energy          =      -4.70529299 eV
                        (error :       3.05129299 eV)
     electrostatic embedding   =       0.00000000 Ry
     cavitation energy         =       0.02286878 Ry
     electrolyte free energy   =       0.00789959 Ry
     correction to one-el term =      -0.00000000 Ry

     iteration #  2     ecut=    80.00 Ry     beta= 0.20
     Davidson diagonalization with overlap

---- Real-time Memory Report at c_bands before calling an iterative solver
           459 MiB given to the printing process from OS
             0 MiB allocation reported by mallinfo(arena+hblkhd)
        218000 MiB available memory on the node where the printing process lives
------------------
     ethr =  1.00E-05,  avg # of iterations =  7.3

     negative rho (up, down):  1.697E-03 0.000E+00

     add environment contribution to local potential

     total cpu time spent up to now is      130.6 secs

     total energy              =    -360.84359659 Ry
     estimated scf accuracy    <       0.04479959 Ry

     total charge of GC-SCF    =       0.00610344 e
     the Fermi energy          =      -4.03920248 eV
                        (error :       2.38520248 eV)
     electrostatic embedding   =       0.00011321 Ry
     cavitation energy         =       0.02286878 Ry
     electrolyte free energy   =       0.00789959 Ry
     correction to one-el term =      -0.00000000 Ry

     iteration #  3     ecut=    80.00 Ry     beta= 0.20
     Davidson diagonalization with overlap

---- Real-time Memory Report at c_bands before calling an iterative solver
           459 MiB given to the printing process from OS
             0 MiB allocation reported by mallinfo(arena+hblkhd)
        217940 MiB available memory on the node where the printing process lives
------------------
     ethr =  1.00E-05,  avg # of iterations = 21.1

     negative rho (up, down):  1.425E-03 0.000E+00

     add environment contribution to local potential

     total cpu time spent up to now is      152.8 secs

     total energy              =    -360.82872630 Ry
     estimated scf accuracy    <       0.01488815 Ry

     total charge of GC-SCF    =      -0.07499318 e
     the Fermi energy          =      -3.04762575 eV
                        (error :       1.39362575 eV)
     electrostatic embedding   =      -0.02545584 Ry
     cavitation energy         =       0.02286878 Ry
     electrolyte free energy   =      -0.00224249 Ry
     correction to one-el term =      -0.94225320 Ry

     iteration #  4     ecut=    80.00 Ry     beta= 0.20
     Davidson diagonalization with overlap

---- Real-time Memory Report at c_bands before calling an iterative solver
           459 MiB given to the printing process from OS
             0 MiB allocation reported by mallinfo(arena+hblkhd)
        217905 MiB available memory on the node where the printing process lives
------------------
     ethr =  1.00E-05,  avg # of iterations =  8.9

     negative rho (up, down):  1.206E-03 0.000E+00

     add environment contribution to local potential

     total cpu time spent up to now is      167.1 secs

     total energy              =    -360.77292863 Ry
     estimated scf accuracy    <       0.00853023 Ry

     total charge of GC-SCF    =      -0.22943853 e
     the Fermi energy          =      -3.17066821 eV
                        (error :       1.51666821 eV)
     electrostatic embedding   =      -0.02708088 Ry
     cavitation energy         =       0.02286878 Ry
     electrolyte free energy   =      -0.00237673 Ry
     correction to one-el term =       1.95117862 Ry

     iteration #  5     ecut=    80.00 Ry     beta= 0.20
     Davidson diagonalization with overlap

---- Real-time Memory Report at c_bands before calling an iterative solver
           459 MiB given to the printing process from OS
             0 MiB allocation reported by mallinfo(arena+hblkhd)
        217878 MiB available memory on the node where the printing process lives
------------------
     ethr =  1.00E-05,  avg # of iterations = 10.9

     negative rho (up, down):  1.026E-03 0.000E+00

     add environment contribution to local potential

     total cpu time spent up to now is      182.4 secs

     total energy              =    -360.84304465 Ry
     estimated scf accuracy    <       0.00265268 Ry

     total charge of GC-SCF    =      -0.26544576 e
     the Fermi energy          =      -2.85802511 eV
                        (error :       1.20402511 eV)
     electrostatic embedding   =      -0.03859474 Ry
     cavitation energy         =       0.02286878 Ry
     electrolyte free energy   =      -0.00131649 Ry
     correction to one-el term =       7.71859547 Ry

     iteration #  6     ecut=    80.00 Ry     beta= 0.20
     Davidson diagonalization with overlap

---- Real-time Memory Report at c_bands before calling an iterative solver
           459 MiB given to the printing process from OS
             0 MiB allocation reported by mallinfo(arena+hblkhd)
        217843 MiB available memory on the node where the printing process lives
------------------
     ethr =  3.67E-06,  avg # of iterations =  9.3

     negative rho (up, down):  1.084E-03 0.000E+00

     add environment contribution to local potential

     total cpu time spent up to now is      196.3 secs

     total energy              =    -360.71982776 Ry
     estimated scf accuracy    <       0.00185372 Ry

     total charge of GC-SCF    =      -0.76807273 e
     the Fermi energy          =      -2.78617341 eV
                        (error :       1.13217341 eV)
     electrostatic embedding   =      -0.04327700 Ry
     cavitation energy         =       0.02286878 Ry
     electrolyte free energy   =      -0.00119987 Ry
     correction to one-el term =       8.96918811 Ry

     iteration #  7     ecut=    80.00 Ry     beta= 0.20
     Davidson diagonalization with overlap

---- Real-time Memory Report at c_bands before calling an iterative solver
           459 MiB given to the printing process from OS
             0 MiB allocation reported by mallinfo(arena+hblkhd)
        217804 MiB available memory on the node where the printing process lives
------------------
     ethr =  2.55E-06,  avg # of iterations =  9.8

     negative rho (up, down):  1.544E-03 0.000E+00

     add environment contribution to local potential

     total cpu time spent up to now is      211.7 secs

     total energy              =    -360.78823846 Ry
     estimated scf accuracy    <       0.00108558 Ry

     total charge of GC-SCF    =      -1.33695314 e
     the Fermi energy          =      -2.64183499 eV
                        (error :       0.98783499 eV)
     electrostatic embedding   =      -0.17581960 Ry
     cavitation energy         =       0.02286878 Ry
     electrolyte free energy   =      -0.00123922 Ry
     correction to one-el term =      25.27880406 Ry

     iteration #  8     ecut=    80.00 Ry     beta= 0.20
     Davidson diagonalization with overlap

---- Real-time Memory Report at c_bands before calling an iterative solver
           459 MiB given to the printing process from OS
             0 MiB allocation reported by mallinfo(arena+hblkhd)
        217771 MiB available memory on the node where the printing process lives
------------------
     ethr =  1.48E-06,  avg # of iterations =  8.8

     negative rho (up, down):  1.319E-03 0.000E+00

     add environment contribution to local potential

     total cpu time spent up to now is      226.6 secs

     total energy              =    -360.90638129 Ry
     estimated scf accuracy    <       0.00612967 Ry

     total charge of GC-SCF    =      -1.46706114 e
     the Fermi energy          =      -2.71938770 eV
                        (error :       1.06538770 eV)
     electrostatic embedding   =      -0.46166760 Ry
     cavitation energy         =       0.02286878 Ry
     electrolyte free energy   =      -0.00266581 Ry
     correction to one-el term =      43.23976536 Ry

     iteration #  9     ecut=    80.00 Ry     beta= 0.20
     Davidson diagonalization with overlap

---- Real-time Memory Report at c_bands before calling an iterative solver
           459 MiB given to the printing process from OS
             0 MiB allocation reported by mallinfo(arena+hblkhd)
        217735 MiB available memory on the node where the printing process lives
------------------
     ethr =  1.48E-06,  avg # of iterations =  6.7

     negative rho (up, down):  1.268E-03 0.000E+00

     add environment contribution to local potential

     total cpu time spent up to now is      238.5 secs

     total energy              =    -360.94930800 Ry
     estimated scf accuracy    <       0.00554150 Ry

     total charge of GC-SCF    =      -1.46477509 e
     the Fermi energy          =      -2.68499389 eV
                        (error :       1.03099389 eV)
     electrostatic embedding   =      -0.54142914 Ry
     cavitation energy         =       0.02286878 Ry
     electrolyte free energy   =      -0.00313787 Ry
     correction to one-el term =      47.10828670 Ry

     iteration # 10     ecut=    80.00 Ry     beta= 0.20
     Davidson diagonalization with overlap

---- Real-time Memory Report at c_bands before calling an iterative solver
           459 MiB given to the printing process from OS
             0 MiB allocation reported by mallinfo(arena+hblkhd)
        217705 MiB available memory on the node where the printing process lives
------------------
     ethr =  1.48E-06,  avg # of iterations =  1.0

     negative rho (up, down):  7.188E-03 0.000E+00

     add environment contribution to local potential

     total cpu time spent up to now is      247.9 secs

     total energy              =    -361.06950335 Ry
     estimated scf accuracy    <       0.00552740 Ry

     total charge of GC-SCF    =      -1.15922809 e
     the Fermi energy          =      -2.68536554 eV
                        (error :       1.03136554 eV)
     electrostatic embedding   =      -0.54001871 Ry
     cavitation energy         =       0.02286878 Ry
     electrolyte free energy   =      -0.00312863 Ry
     correction to one-el term =      47.04234458 Ry

     iteration # 11     ecut=    80.00 Ry     beta= 0.20
     Davidson diagonalization with overlap

---- Real-time Memory Report at c_bands before calling an iterative solver
           459 MiB given to the printing process from OS
             0 MiB allocation reported by mallinfo(arena+hblkhd)
        217699 MiB available memory on the node where the printing process lives
------------------
     ethr =  1.48E-06,  avg # of iterations = 10.2

     negative rho (up, down):  1.318E-03 0.000E+00

     add environment contribution to local potential

     total cpu time spent up to now is      264.3 secs

     total energy              =    -360.77985166 Ry
     estimated scf accuracy    <       0.00949253 Ry

     total charge of GC-SCF    =      -2.29520751 e
     the Fermi energy          =      -2.82972187 eV
                        (error :       1.17572187 eV)
     electrostatic embedding   =      -0.36470746 Ry
     cavitation energy         =       0.02286878 Ry
     electrolyte free energy   =      -0.00223437 Ry
     correction to one-el term =      37.90087537 Ry

     iteration # 12     ecut=    80.00 Ry     beta= 0.20
     Davidson diagonalization with overlap

---- Real-time Memory Report at c_bands before calling an iterative solver
           459 MiB given to the printing process from OS
             0 MiB allocation reported by mallinfo(arena+hblkhd)
        217703 MiB available memory on the node where the printing process lives
------------------
     ethr =  1.48E-06,  avg # of iterations = 16.4

     negative rho (up, down):  1.516E-03 0.000E+00

     add environment contribution to local potential

     total cpu time spent up to now is      285.4 secs

     total energy              =    -360.95978008 Ry
     estimated scf accuracy    <       0.00052605 Ry

     total charge of GC-SCF    =      -2.29544288 e
     the Fermi energy          =      -2.27305335 eV
                        (error :       0.61905335 eV)
     electrostatic embedding   =      -1.20325165 Ry
     cavitation energy         =       0.02286878 Ry
     electrolyte free energy   =      -0.00876829 Ry
     correction to one-el term =      72.13033161 Ry

     iteration # 13     ecut=    80.00 Ry     beta= 0.20
     Davidson diagonalization with overlap

---- Real-time Memory Report at c_bands before calling an iterative solver
           459 MiB given to the printing process from OS
             0 MiB allocation reported by mallinfo(arena+hblkhd)
        217712 MiB available memory on the node where the printing process lives
------------------
     ethr =  7.08E-07,  avg # of iterations =  5.5

     negative rho (up, down):  2.053E-03 0.000E+00

     add environment contribution to local potential

     total cpu time spent up to now is      298.5 secs

     total energy              =    -360.92084675 Ry
     estimated scf accuracy    <       0.00043698 Ry

     total charge of GC-SCF    =      -2.65627825 e
     the Fermi energy          =      -2.28518420 eV
                        (error :       0.63118420 eV)
     electrostatic embedding   =      -1.20384839 Ry
     cavitation energy         =       0.02286878 Ry
     electrolyte free energy   =      -0.00874302 Ry
     correction to one-el term =      72.10726748 Ry

     iteration # 14     ecut=    80.00 Ry     beta= 0.20
     Davidson diagonalization with overlap

---- Real-time Memory Report at c_bands before calling an iterative solver
           459 MiB given to the printing process from OS
             0 MiB allocation reported by mallinfo(arena+hblkhd)
        217713 MiB available memory on the node where the printing process lives
------------------
     ethr =  5.85E-07,  avg # of iterations =  9.7

     negative rho (up, down):  1.317E-03 0.000E+00

     add environment contribution to local potential

     total cpu time spent up to now is      315.7 secs

     total energy              =    -360.95942373 Ry
     estimated scf accuracy    <       0.00028784 Ry

     total charge of GC-SCF    =      -2.80234602 e
     the Fermi energy          =      -2.23651966 eV
                        (error :       0.58251966 eV)
     electrostatic embedding   =      -1.57945971 Ry
     cavitation energy         =       0.02286878 Ry
     electrolyte free energy   =      -0.01275106 Ry
     correction to one-el term =      82.97823643 Ry

     iteration # 15     ecut=    80.00 Ry     beta= 0.20
     Davidson diagonalization with overlap

---- Real-time Memory Report at c_bands before calling an iterative solver
           459 MiB given to the printing process from OS
             0 MiB allocation reported by mallinfo(arena+hblkhd)
        217711 MiB available memory on the node where the printing process lives
------------------
     ethr =  3.85E-07,  avg # of iterations = 12.3

     negative rho (up, down):  8.689E-04 0.000E+00

     add environment contribution to local potential

     total cpu time spent up to now is      335.2 secs

     total energy              =    -360.95429389 Ry
     estimated scf accuracy    <       0.00024735 Ry

     total charge of GC-SCF    =      -3.18180810 e
     the Fermi energy          =      -2.22705973 eV
                        (error :       0.57305973 eV)
     electrostatic embedding   =      -1.72960362 Ry
     cavitation energy         =       0.02286878 Ry
     electrolyte free energy   =      -0.01460286 Ry
     correction to one-el term =      86.77311224 Ry

     iteration # 16     ecut=    80.00 Ry     beta= 0.20
     Davidson diagonalization with overlap

---- Real-time Memory Report at c_bands before calling an iterative solver
           459 MiB given to the printing process from OS
             0 MiB allocation reported by mallinfo(arena+hblkhd)
        217689 MiB available memory on the node where the printing process lives
------------------
     ethr =  3.29E-07,  avg # of iterations = 15.0

     negative rho (up, down):  4.644E-04 0.000E+00

     add environment contribution to local potential

     total cpu time spent up to now is      356.7 secs

     total energy              =    -360.97213686 Ry
     estimated scf accuracy    <       0.00022766 Ry

     total charge of GC-SCF    =      -3.57529724 e
     the Fermi energy          =      -2.19986047 eV
                        (error :       0.54586047 eV)
     electrostatic embedding   =      -2.17550854 Ry
     cavitation energy         =       0.02286878 Ry
     electrolyte free energy   =      -0.02059627 Ry
     correction to one-el term =      97.40181121 Ry

     iteration # 17     ecut=    80.00 Ry     beta= 0.20
     Davidson diagonalization with overlap

---- Real-time Memory Report at c_bands before calling an iterative solver
           459 MiB given to the printing process from OS
             0 MiB allocation reported by mallinfo(arena+hblkhd)
        217654 MiB available memory on the node where the printing process lives
------------------
     ethr =  3.01E-07,  avg # of iterations = 13.6

     negative rho (up, down):  3.822E-04 0.000E+00

     add environment contribution to local potential

     total cpu time spent up to now is      377.0 secs

     total energy              =    -360.99767614 Ry
     estimated scf accuracy    <       0.00017659 Ry

     total charge of GC-SCF    =      -3.71889740 e
     the Fermi energy          =      -2.05239550 eV
                        (error :       0.39839550 eV)
     electrostatic embedding   =      -2.70128705 Ry
     cavitation energy         =       0.02286878 Ry
     electrolyte free energy   =      -0.02889527 Ry
     correction to one-el term =     109.16826376 Ry

     iteration # 18     ecut=    80.00 Ry     beta= 0.20
     Davidson diagonalization with overlap

---- Real-time Memory Report at c_bands before calling an iterative solver
           459 MiB given to the printing process from OS
             0 MiB allocation reported by mallinfo(arena+hblkhd)
        217661 MiB available memory on the node where the printing process lives
------------------
     ethr =  2.33E-07,  avg # of iterations =  9.7

     negative rho (up, down):  3.393E-04 0.000E+00

     add environment contribution to local potential

     total cpu time spent up to now is      394.7 secs

     total energy              =    -361.00153020 Ry
     estimated scf accuracy    <       0.00014784 Ry

     total charge of GC-SCF    =      -4.08328393 e
     the Fermi energy          =      -2.03752487 eV
                        (error :       0.38352487 eV)
     electrostatic embedding   =      -2.89226669 Ry
     cavitation energy         =       0.02286878 Ry
     electrolyte free energy   =      -0.03224240 Ry
     correction to one-el term =     112.87690621 Ry

     iteration # 19     ecut=    80.00 Ry     beta= 0.20
     Davidson diagonalization with overlap

---- Real-time Memory Report at c_bands before calling an iterative solver
           459 MiB given to the printing process from OS
             0 MiB allocation reported by mallinfo(arena+hblkhd)
        217669 MiB available memory on the node where the printing process lives
------------------
     ethr =  1.94E-07,  avg # of iterations = 12.8

     negative rho (up, down):  3.458E-04 0.000E+00

     add environment contribution to local potential

     total cpu time spent up to now is      415.4 secs

     total energy              =    -361.01525412 Ry
     estimated scf accuracy    <       0.00021617 Ry

     total charge of GC-SCF    =      -4.36994045 e
     the Fermi energy          =      -1.89389793 eV
                        (error :       0.23989793 eV)
     electrostatic embedding   =      -3.43378081 Ry
     cavitation energy         =       0.02286878 Ry
     electrolyte free energy   =      -0.04248006 Ry
     correction to one-el term =     123.44133437 Ry

     iteration # 20     ecut=    80.00 Ry     beta= 0.20
     Davidson diagonalization with overlap

---- Real-time Memory Report at c_bands before calling an iterative solver
           459 MiB given to the printing process from OS
             0 MiB allocation reported by mallinfo(arena+hblkhd)
        217667 MiB available memory on the node where the printing process lives
------------------
     ethr =  1.94E-07,  avg # of iterations = 13.5

     negative rho (up, down):  3.771E-04 0.000E+00

     add environment contribution to local potential

     total cpu time spent up to now is      437.2 secs

     total energy              =    -361.01972480 Ry
     estimated scf accuracy    <       0.00011912 Ry

     total charge of GC-SCF    =      -4.62010060 e
     the Fermi energy          =      -1.90045561 eV
                        (error :       0.24645561 eV)
     electrostatic embedding   =      -3.86517545 Ry
     cavitation energy         =       0.02286878 Ry
     electrolyte free energy   =      -0.05149514 Ry
     correction to one-el term =     130.61102174 Ry

     iteration # 21     ecut=    80.00 Ry     beta= 0.20
     Davidson diagonalization with overlap

---- Real-time Memory Report at c_bands before calling an iterative solver
           459 MiB given to the printing process from OS
             0 MiB allocation reported by mallinfo(arena+hblkhd)
        217637 MiB available memory on the node where the printing process lives
------------------
     ethr =  1.55E-07,  avg # of iterations = 11.1

     negative rho (up, down):  3.788E-04 0.000E+00

     add environment contribution to local potential

     total cpu time spent up to now is      456.9 secs

     total energy              =    -361.02664262 Ry
     estimated scf accuracy    <       0.00004637 Ry

     total charge of GC-SCF    =      -4.57764431 e
     the Fermi energy          =      -1.78349601 eV
                        (error :       0.12949601 eV)
     electrostatic embedding   =      -4.28044460 Ry
     cavitation energy         =       0.02286878 Ry
     electrolyte free energy   =      -0.06088785 Ry
     correction to one-el term =     137.76273973 Ry

     iteration # 22     ecut=    80.00 Ry     beta= 0.20
     Davidson diagonalization with overlap

---- Real-time Memory Report at c_bands before calling an iterative solver
           459 MiB given to the printing process from OS
             0 MiB allocation reported by mallinfo(arena+hblkhd)
        217614 MiB available memory on the node where the printing process lives
------------------
     ethr =  6.06E-08,  avg # of iterations = 10.2

     negative rho (up, down):  3.414E-04 0.000E+00

     add environment contribution to local potential

     total cpu time spent up to now is      476.9 secs

     total energy              =    -361.02290975 Ry
     estimated scf accuracy    <       0.00004884 Ry

     total charge of GC-SCF    =      -4.64014276 e
     the Fermi energy          =      -1.83278257 eV
                        (error :       0.17878257 eV)
     electrostatic embedding   =      -4.18899125 Ry
     cavitation energy         =       0.02286878 Ry
     electrolyte free energy   =      -0.05904007 Ry
     correction to one-el term =     135.93139378 Ry

     iteration # 23     ecut=    80.00 Ry     beta= 0.20
     Davidson diagonalization with overlap

---- Real-time Memory Report at c_bands before calling an iterative solver
           459 MiB given to the printing process from OS
             0 MiB allocation reported by mallinfo(arena+hblkhd)
        217615 MiB available memory on the node where the printing process lives
------------------
     ethr =  6.06E-08,  avg # of iterations =  8.9

     negative rho (up, down):  3.155E-04 0.000E+00

     add environment contribution to local potential

     total cpu time spent up to now is      496.0 secs

     total energy              =    -361.02624709 Ry
     estimated scf accuracy    <       0.00002762 Ry

     total charge of GC-SCF    =      -4.86217633 e
     the Fermi energy          =      -1.80493373 eV
                        (error :       0.15093373 eV)
     electrostatic embedding   =      -4.29369617 Ry
     cavitation energy         =       0.02286878 Ry
     electrolyte free energy   =      -0.06151936 Ry
     correction to one-el term =     137.71957890 Ry

     iteration # 24     ecut=    80.00 Ry     beta= 0.20
     Davidson diagonalization with overlap

---- Real-time Memory Report at c_bands before calling an iterative solver
           459 MiB given to the printing process from OS
             0 MiB allocation reported by mallinfo(arena+hblkhd)
        217610 MiB available memory on the node where the printing process lives
------------------
     ethr =  3.59E-08,  avg # of iterations = 12.1

     negative rho (up, down):  3.100E-04 0.000E+00

     add environment contribution to local potential

     total cpu time spent up to now is      517.0 secs

     total energy              =    -361.02832727 Ry
     estimated scf accuracy    <       0.00000850 Ry

     total charge of GC-SCF    =      -5.02459973 e
     the Fermi energy          =      -1.72699660 eV
                        (error :       0.07299660 eV)
     electrostatic embedding   =      -4.67943730 Ry
     cavitation energy         =       0.02286878 Ry
     electrolyte free energy   =      -0.07084758 Ry
     correction to one-el term =     144.01835247 Ry

     iteration # 25     ecut=    80.00 Ry     beta= 0.20
     Davidson diagonalization with overlap

---- Real-time Memory Report at c_bands before calling an iterative solver
           459 MiB given to the printing process from OS
             0 MiB allocation reported by mallinfo(arena+hblkhd)
        217612 MiB available memory on the node where the printing process lives
------------------
     ethr =  1.10E-08,  avg # of iterations = 21.1

     negative rho (up, down):  3.031E-04 0.000E+00

     add environment contribution to local potential

     total cpu time spent up to now is      544.6 secs

     total energy              =    -361.02645922 Ry
     estimated scf accuracy    <       0.00000393 Ry

     total charge of GC-SCF    =      -5.03273758 e
     the Fermi energy          =      -1.66532119 eV
                        (error :       0.01132119 eV)
     electrostatic embedding   =      -4.97940319 Ry
     cavitation energy         =       0.02286878 Ry
     electrolyte free energy   =      -0.07833559 Ry
     correction to one-el term =     148.82747307 Ry

     iteration # 26     ecut=    80.00 Ry     beta= 0.20
     Davidson diagonalization with overlap

---- Real-time Memory Report at c_bands before calling an iterative solver
           459 MiB given to the printing process from OS
             0 MiB allocation reported by mallinfo(arena+hblkhd)
        217623 MiB available memory on the node where the printing process lives
------------------
     ethr =  5.10E-09,  avg # of iterations = 16.6

     negative rho (up, down):  2.890E-04 0.000E+00

     add environment contribution to local potential

     total cpu time spent up to now is      569.3 secs

     total energy              =    -361.02663252 Ry
     estimated scf accuracy    <       0.00000162 Ry

     total charge of GC-SCF    =      -5.07055454 e
     the Fermi energy          =      -1.66874286 eV
                        (error :       0.01474286 eV)
     electrostatic embedding   =      -4.99016582 Ry
     cavitation energy         =       0.02286878 Ry
     electrolyte free energy   =      -0.07868373 Ry
     correction to one-el term =     148.93233840 Ry

     iteration # 27     ecut=    80.00 Ry     beta= 0.20
     Davidson diagonalization with overlap

---- Real-time Memory Report at c_bands before calling an iterative solver
           459 MiB given to the printing process from OS
             0 MiB allocation reported by mallinfo(arena+hblkhd)
        217612 MiB available memory on the node where the printing process lives
------------------
     ethr =  2.11E-09,  avg # of iterations = 22.6

     negative rho (up, down):  2.854E-04 0.000E+00

     add environment contribution to local potential

     total cpu time spent up to now is      597.1 secs

     total energy              =    -361.02653608 Ry
     estimated scf accuracy    <       0.00000075 Ry

     total charge of GC-SCF    =      -5.05930989 e
     the Fermi energy          =      -1.65604053 eV
                        (error :       0.00204053 eV)
     electrostatic embedding   =      -5.05725345 Ry
     cavitation energy         =       0.02286878 Ry
     electrolyte free energy   =      -0.08048875 Ry
     correction to one-el term =     149.94743315 Ry

     iteration # 28     ecut=    80.00 Ry     beta= 0.20
     Davidson diagonalization with overlap

---- Real-time Memory Report at c_bands before calling an iterative solver
           459 MiB given to the printing process from OS
             0 MiB allocation reported by mallinfo(arena+hblkhd)
        217617 MiB available memory on the node where the printing process lives
------------------
     ethr =  9.71E-10,  avg # of iterations = 12.3

     negative rho (up, down):  2.842E-04 0.000E+00

     add environment contribution to local potential

     total cpu time spent up to now is      619.3 secs

     total energy              =    -361.02651001 Ry
     estimated scf accuracy    <       0.00000043 Ry

     total charge of GC-SCF    =      -5.06915732 e
     the Fermi energy          =      -1.66231171 eV
                        (error :       0.00831171 eV)
     electrostatic embedding   =      -5.03395694 Ry
     cavitation energy         =       0.02286878 Ry
     electrolyte free energy   =      -0.07992786 Ry
     correction to one-el term =     149.56089218 Ry

     iteration # 29     ecut=    80.00 Ry     beta= 0.20
     Davidson diagonalization with overlap

---- Real-time Memory Report at c_bands before calling an iterative solver
           459 MiB given to the printing process from OS
             0 MiB allocation reported by mallinfo(arena+hblkhd)
        217598 MiB available memory on the node where the printing process lives
------------------
     c_bands:  1 eigenvalues not converged
     ethr =  5.62E-10,  avg # of iterations = 18.0

     negative rho (up, down):  2.842E-04 0.000E+00

     add environment contribution to local potential

     total cpu time spent up to now is      645.1 secs

     total energy              =    -361.02650828 Ry
     estimated scf accuracy    <       0.00000008 Ry

     total charge of GC-SCF    =      -5.07330909 e
     the Fermi energy          =      -1.65706902 eV
                        (error :       0.00306902 eV)
     electrostatic embedding   =      -5.05190345 Ry
     cavitation energy         =       0.02286878 Ry
     electrolyte free energy   =      -0.08041002 Ry
     correction to one-el term =     149.84621409 Ry

     iteration # 30     ecut=    80.00 Ry     beta= 0.20
     Davidson diagonalization with overlap

---- Real-time Memory Report at c_bands before calling an iterative solver
           459 MiB given to the printing process from OS
             0 MiB allocation reported by mallinfo(arena+hblkhd)
        217533 MiB available memory on the node where the printing process lives
------------------
     c_bands:  1 eigenvalues not converged
     ethr =  1.01E-10,  avg # of iterations = 19.0

     negative rho (up, down):  2.843E-04 0.000E+00

     add environment contribution to local potential

     total cpu time spent up to now is      671.3 secs

     total energy              =    -361.02651242 Ry
     estimated scf accuracy    <       0.00000005 Ry

     total charge of GC-SCF    =      -5.07977778 e
     the Fermi energy          =      -1.65606808 eV
                        (error :       0.00206808 eV)
     electrostatic embedding   =      -5.05935035 Ry
     cavitation energy         =       0.02286878 Ry
     electrolyte free energy   =      -0.08060883 Ry
     correction to one-el term =     149.95638210 Ry

     iteration # 31     ecut=    80.00 Ry     beta= 0.20
     Davidson diagonalization with overlap

---- Real-time Memory Report at c_bands before calling an iterative solver
           459 MiB given to the printing process from OS
             0 MiB allocation reported by mallinfo(arena+hblkhd)
        217553 MiB available memory on the node where the printing process lives
------------------
     c_bands:  1 eigenvalues not converged
     ethr =  6.61E-11,  avg # of iterations = 18.5

     negative rho (up, down):  2.825E-04 0.000E+00

     total cpu time spent up to now is      686.2 secs

     End of self-consistent calculation

          k = 0.0000 0.0000 0.0000 (221585 PWs)   bands (ev):

   -48.5025 -48.5004 -48.5002 -48.4997 -48.4943 -48.4920 -48.4920 -48.4915
   -48.2185 -48.2145 -48.2145 -48.2139 -48.2104 -48.2064 -48.2063 -48.2058
   -48.0834 -48.0772 -48.0771 -48.0706 -48.0694 -48.0690 -48.0689 -48.0683
    -5.0557  -4.4674  -3.8693  -3.8692  -3.6446  -3.2305  -3.2305  -2.7928
    -2.3159  -2.3152  -1.9639  -1.9603  -1.4172  -1.4171  -1.3460  -1.3088
    -1.3036  -1.2208  -0.9479  -0.9476  -0.9113  -0.9100  -0.8030  -0.8028
    -0.6636  -0.3092  -0.1134   0.0126   0.0537   0.1037

     occupation numbers 
     1.0000   1.0000   1.0000   1.0000   1.0000   1.0000   1.0000   1.0000
     1.0000   1.0000   1.0000   1.0000   1.0000   1.0000   1.0000   1.0000
     1.0000   1.0000   1.0000   1.0000   1.0000   1.0000   1.0000   1.0000
     1.0000   1.0000   1.0000   1.0000   1.0000   1.0000   1.0000   1.0000
     1.0000   1.0000   1.0206   1.0221   0.0013   0.0013   0.0001   0.0000
     0.0000   0.0000   0.0000   0.0000   0.0000   0.0000   0.0000   0.0000
     0.0000   0.0000   0.0000   0.0000   0.0000   0.0000

          k = 0.0000 0.0875 0.0000 (221558 PWs)   bands (ev):

   -48.5025 -48.5004 -48.5002 -48.4997 -48.4943 -48.4920 -48.4920 -48.4915
   -48.2185 -48.2145 -48.2145 -48.2139 -48.2104 -48.2064 -48.2063 -48.2058
   -48.0833 -48.0786 -48.0757 -48.0707 -48.0694 -48.0690 -48.0689 -48.0683
    -5.0314  -4.4418  -4.1825  -3.6168  -3.5570  -3.5075  -2.8804  -2.7658
    -2.6250  -2.0410  -1.9403  -1.9367  -1.6134  -1.3771  -1.3268  -1.2925
    -1.2874  -1.1595  -1.1567  -1.1328  -0.9240  -0.9232  -0.6421  -0.5922
    -0.5881  -0.5225  -0.0778  -0.0656   0.0559   0.0839

     occupation numbers 
     1.0000   1.0000   1.0000   1.0000   1.0000   1.0000   1.0000   1.0000
     1.0000   1.0000   1.0000   1.0000   1.0000   1.0000   1.0000   1.0000
     1.0000   1.0000   1.0000   1.0000   1.0000   1.0000   1.0000   1.0000
     1.0000   1.0000   1.0000   1.0000   1.0000   1.0000   1.0000   1.0000
     1.0000   1.0029   1.0324   1.0345   0.2235   0.0003   0.0000   0.0000
     0.0000   0.0000   0.0000   0.0000   0.0000   0.0000   0.0000   0.0000
     0.0000   0.0000   0.0000   0.0000   0.0000   0.0000

          k = 0.0000 0.1750 0.0000 (221554 PWs)   bands (ev):

   -48.5025 -48.5003 -48.5002 -48.4997 -48.4943 -48.4920 -48.4920 -48.4915
   -48.2185 -48.2145 -48.2145 -48.2139 -48.2104 -48.2064 -48.2063 -48.2058
   -48.0828 -48.0799 -48.0743 -48.0712 -48.0694 -48.0690 -48.0689 -48.0683
    -4.9585  -4.4488  -4.3651  -3.8314  -3.5334  -3.1101  -2.9642  -2.6857
    -2.4200  -2.1416  -1.8698  -1.8663  -1.7484  -1.3933  -1.3901  -1.3609
    -1.2873  -1.2451  -1.2401  -0.9927  -0.9901  -0.9725  -0.9349  -0.5911
    -0.3223  -0.3180  -0.0624   0.0168   0.1040   0.1422

     occupation numbers 
     1.0000   1.0000   1.0000   1.0000   1.0000   1.0000   1.0000   1.0000
     1.0000   1.0000   1.0000   1.0000   1.0000   1.0000   1.0000   1.0000
     1.0000   1.0000   1.0000   1.0000   1.0000   1.0000   1.0000   1.0000
     1.0000   1.0000   1.0000   1.0000   1.0000   1.0000   1.0000   1.0000
     1.0000   1.0001   1.0772   1.0787   0.8927   0.0005   0.0005   0.0001
     0.0000   0.0000   0.0000   0.0000   0.0000   0.0000   0.0000   0.0000
     0.0000   0.0000   0.0000   0.0000   0.0000   0.0000

          k = 0.0000 0.2624 0.0000 (221568 PWs)   bands (ev):

   -48.5025 -48.5003 -48.5003 -48.4997 -48.4943 -48.4920 -48.4920 -48.4915
   -48.2185 -48.2145 -48.2145 -48.2139 -48.2104 -48.2064 -48.2064 -48.2058
   -48.0821 -48.0810 -48.0731 -48.0720 -48.0694 -48.0690 -48.0689 -48.0684
    -4.8371  -4.6671  -4.2375  -4.0594  -3.3951  -3.2034  -2.6825  -2.5597
    -2.3465  -2.1922  -1.9742  -1.7536  -1.7502  -1.5936  -1.5902  -1.5112
    -1.1719  -1.1673  -1.1013  -1.0824  -1.0786  -1.0102  -0.9365  -0.6130
    -0.0898  -0.0848  -0.0625  -0.0605   0.0682   0.0737

     occupation numbers 
     1.0000   1.0000   1.0000   1.0000   1.0000   1.0000   1.0000   1.0000
     1.0000   1.0000   1.0000   1.0000   1.0000   1.0000   1.0000   1.0000
     1.0000   1.0000   1.0000   1.0000   1.0000   1.0000   1.0000   1.0000
     1.0000   1.0000   1.0000   1.0000   1.0000   1.0000   1.0000   1.0000
     1.0000   1.0000   1.0165   0.9139   0.8999   0.1586   0.1491   0.0249
     0.0000   0.0000   0.0000   0.0000   0.0000   0.0000   0.0000   0.0000
     0.0000   0.0000   0.0000   0.0000   0.0000   0.0000

          k = 0.0909 0.0000 0.0000 (221718 PWs)   bands (ev):

   -48.5023 -48.5002 -48.5000 -48.4996 -48.4944 -48.4922 -48.4922 -48.4917
   -48.2184 -48.2143 -48.2143 -48.2138 -48.2105 -48.2066 -48.2065 -48.2060
   -48.0832 -48.0770 -48.0770 -48.0705 -48.0701 -48.0692 -48.0691 -48.0680
    -5.0294  -4.4395  -3.8423  -3.8421  -3.6136  -3.2023  -3.2023  -2.7601
    -2.4591  -2.2851  -2.2843  -1.8820  -1.3833  -1.3831  -1.3475  -1.3470
    -1.3153  -1.2767  -1.1865  -1.1099  -0.9488  -0.9481  -0.6295  -0.5573
    -0.5571  -0.2748  -0.0785  -0.0309   0.0470   0.0888

     occupation numbers 
     1.0000   1.0000   1.0000   1.0000   1.0000   1.0000   1.0000   1.0000
     1.0000   1.0000   1.0000   1.0000   1.0000   1.0000   1.0000   1.0000
     1.0000   1.0000   1.0000   1.0000   1.0000   1.0000   1.0000   1.0000
     1.0000   1.0000   1.0000   1.0000   1.0000   1.0000   1.0000   1.0000
     1.0000   1.0000   1.0000   1.0706   0.0003   0.0003   0.0001   0.0001
     0.0000   0.0000   0.0000   0.0000   0.0000   0.0000   0.0000   0.0000
     0.0000   0.0000   0.0000   0.0000   0.0000   0.0000

          k = 0.0909 0.0875 0.0000 (221669 PWs)   bands (ev):

   -48.5023 -48.5002 -48.5000 -48.4996 -48.4944 -48.4922 -48.4922 -48.4917
   -48.2184 -48.2143 -48.2143 -48.2138 -48.2105 -48.2066 -48.2065 -48.2060
   -48.0831 -48.0784 -48.0756 -48.0706 -48.0701 -48.0693 -48.0689 -48.0680
    -5.0051  -4.4139  -4.1557  -3.5858  -3.5295  -3.4797  -2.8508  -2.7330
    -2.5956  -2.4354  -2.0082  -1.8596  -1.6269  -1.5816  -1.3440  -1.2961
    -1.2570  -1.2005  -1.0982  -1.0922  -0.9514  -0.8442  -0.6963  -0.6080
    -0.4895  -0.4125  -0.0429  -0.0351  -0.0314   0.0903

     occupation numbers 
     1.0000   1.0000   1.0000   1.0000   1.0000   1.0000   1.0000   1.0000
     1.0000   1.0000   1.0000   1.0000   1.0000   1.0000   1.0000   1.0000
     1.0000   1.0000   1.0000   1.0000   1.0000   1.0000   1.0000   1.0000
     1.0000   1.0000   1.0000   1.0000   1.0000   1.0000   1.0000   1.0000
     1.0000   1.0000   1.0072   1.0812   0.2766   0.1265   0.0001   0.0000
     0.0000   0.0000   0.0000   0.0000   0.0000   0.0000   0.0000   0.0000
     0.0000   0.0000   0.0000   0.0000   0.0000   0.0000

          k = 0.0909 0.1750 0.0000 (221668 PWs)   bands (ev):

   -48.5023 -48.5002 -48.5001 -48.4996 -48.4944 -48.4922 -48.4922 -48.4917
   -48.2184 -48.2144 -48.2143 -48.2138 -48.2105 -48.2066 -48.2065 -48.2060
   -48.0826 -48.0797 -48.0742 -48.0711 -48.0700 -48.0694 -48.0688 -48.0680
    -4.9322  -4.4222  -4.3372  -3.8035  -3.5024  -3.0822  -2.9328  -2.6528
    -2.3923  -2.3646  -2.1078  -1.8758  -1.7930  -1.7174  -1.3646  -1.3303
    -1.2568  -1.1991  -1.0418  -0.9386  -0.9035  -0.8493  -0.8306  -0.6182
    -0.5566  -0.2620  -0.0384  -0.0307   0.0518   0.1378

     occupation numbers 
     1.0000   1.0000   1.0000   1.0000   1.0000   1.0000   1.0000   1.0000
     1.0000   1.0000   1.0000   1.0000   1.0000   1.0000   1.0000   1.0000
     1.0000   1.0000   1.0000   1.0000   1.0000   1.0000   1.0000   1.0000
     1.0000   1.0000   1.0000   1.0000   1.0000   1.0000   1.0000   1.0000
     1.0000   1.0000   1.0003   1.0741   1.0338   0.7442   0.0002   0.0000
     0.0000   0.0000   0.0000   0.0000   0.0000   0.0000   0.0000   0.0000
     0.0000   0.0000   0.0000   0.0000   0.0000   0.0000

          k = 0.0909 0.2624 0.0000 (221625 PWs)   bands (ev):

   -48.5023 -48.5001 -48.5001 -48.4996 -48.4944 -48.4922 -48.4922 -48.4917
   -48.2184 -48.2144 -48.2143 -48.2138 -48.2105 -48.2066 -48.2065 -48.2060
   -48.0819 -48.0808 -48.0730 -48.0718 -48.0700 -48.0695 -48.0687 -48.0681
    -4.8107  -4.6406  -4.2096  -4.0315  -3.3641  -3.1723  -2.6536  -2.5265
    -2.3134  -2.2470  -2.1627  -2.0835  -1.9458  -1.6845  -1.5385  -1.4821
    -1.1066  -1.0696  -0.9861  -0.9778  -0.9672  -0.9049  -0.8864  -0.5789
    -0.2552  -0.1393  -0.0676  -0.0302  -0.0296   0.1004

     occupation numbers 
     1.0000   1.0000   1.0000   1.0000   1.0000   1.0000   1.0000   1.0000
     1.0000   1.0000   1.0000   1.0000   1.0000   1.0000   1.0000   1.0000
     1.0000   1.0000   1.0000   1.0000   1.0000   1.0000   1.0000   1.0000
     1.0000   1.0000   1.0000   1.0000   1.0000   1.0000   1.0000   1.0000
     1.0000   1.0000   1.0000   1.0007   1.0293   0.5649   0.0496   0.0110
     0.0000   0.0000   0.0000   0.0000   0.0000   0.0000   0.0000   0.0000
     0.0000   0.0000   0.0000   0.0000   0.0000   0.0000

          k = 0.1818 0.0000 0.0000 (221744 PWs)   bands (ev):

   -48.5019 -48.4997 -48.4995 -48.4991 -48.4949 -48.4927 -48.4927 -48.4921
   -48.2179 -48.2139 -48.2138 -48.2133 -48.2110 -48.2071 -48.2070 -48.2064
   -48.0825 -48.0765 -48.0765 -48.0714 -48.0703 -48.0697 -48.0695 -48.0676
    -4.9504  -4.3558  -3.7614  -3.7612  -3.5207  -3.1179  -3.1179  -2.9412
    -2.6619  -2.3049  -2.1927  -2.1920  -1.7832  -1.7827  -1.3478  -1.2814
    -1.2812  -1.2260  -1.2257  -1.2231  -1.0834  -0.8306  -0.5275  -0.4291
    -0.4289  -0.1718   0.0262   0.1502   0.1938   0.1984

     occupation numbers 
     1.0000   1.0000   1.0000   1.0000   1.0000   1.0000   1.0000   1.0000
     1.0000   1.0000   1.0000   1.0000   1.0000   1.0000   1.0000   1.0000
     1.0000   1.0000   1.0000   1.0000   1.0000   1.0000   1.0000   1.0000
     1.0000   1.0000   1.0000   1.0000   1.0000   1.0000   1.0000   1.0000
     1.0000   1.0000   1.0000   1.0000   1.0110   1.0098   0.0001   0.0000
     0.0000   0.0000   0.0000   0.0000   0.0000   0.0000   0.0000   0.0000
     0.0000   0.0000   0.0000   0.0000   0.0000   0.0000

          k = 0.1818 0.0875 0.0000 (221735 PWs)   bands (ev):

   -48.5019 -48.4997 -48.4996 -48.4991 -48.4949 -48.4927 -48.4927 -48.4921
   -48.2179 -48.2139 -48.2138 -48.2133 -48.2110 -48.2071 -48.2070 -48.2064
   -48.0824 -48.0779 -48.0751 -48.0713 -48.0704 -48.0699 -48.0692 -48.0677
    -4.9261  -4.3303  -4.0755  -3.4929  -3.4473  -3.3961  -2.9172  -2.7626
    -2.6347  -2.5077  -2.2817  -2.0838  -1.9101  -1.5544  -1.4867  -1.3640
    -1.3248  -1.2447  -1.2040  -0.9941  -0.9788  -0.8064  -0.5323  -0.5056
    -0.3908  -0.3684   0.0557   0.0620   0.1937   0.2117

     occupation numbers 
     1.0000   1.0000   1.0000   1.0000   1.0000   1.0000   1.0000   1.0000
     1.0000   1.0000   1.0000   1.0000   1.0000   1.0000   1.0000   1.0000
     1.0000   1.0000   1.0000   1.0000   1.0000   1.0000   1.0000   1.0000
     1.0000   1.0000   1.0000   1.0000   1.0000   1.0000   1.0000   1.0000
     1.0000   1.0000   1.0000   1.0007   1.0518   0.0716   0.0126   0.0002
     0.0000   0.0000   0.0000   0.0000   0.0000   0.0000   0.0000   0.0000
     0.0000   0.0000   0.0000   0.0000   0.0000   0.0000

          k = 0.1818 0.1750 0.0000 (221735 PWs)   bands (ev):

   -48.5019 -48.4997 -48.4996 -48.4991 -48.4949 -48.4927 -48.4927 -48.4921
   -48.2179 -48.2139 -48.2138 -48.2133 -48.2110 -48.2071 -48.2070 -48.2064
   -48.0820 -48.0791 -48.0738 -48.0713 -48.0709 -48.0703 -48.0688 -48.0678
    -4.8531  -4.3424  -4.2537  -3.7201  -3.4095  -2.9986  -2.8452  -2.8389
    -2.5540  -2.3438  -2.3095  -2.2127  -2.0065  -1.7468  -1.6244  -1.2572
    -1.2392  -1.1656  -1.0136  -0.8961  -0.8371  -0.8096  -0.7363  -0.4882
    -0.4532  -0.3995   0.0641   0.1367   0.1566   0.2391

     occupation numbers 
     1.0000   1.0000   1.0000   1.0000   1.0000   1.0000   1.0000   1.0000
     1.0000   1.0000   1.0000   1.0000   1.0000   1.0000   1.0000   1.0000
     1.0000   1.0000   1.0000   1.0000   1.0000   1.0000   1.0000   1.0000
     1.0000   1.0000   1.0000   1.0000   1.0000   1.0000   1.0000   1.0000
     1.0000   1.0000   1.0000   1.0000   1.0076   0.8858   0.2664   0.0000
     0.0000   0.0000   0.0000   0.0000   0.0000   0.0000   0.0000   0.0000
     0.0000   0.0000   0.0000   0.0000   0.0000   0.0000

          k = 0.1818 0.2624 0.0000 (221799 PWs)   bands (ev):

   -48.5019 -48.4996 -48.4996 -48.4991 -48.4949 -48.4927 -48.4927 -48.4921
   -48.2179 -48.2139 -48.2138 -48.2133 -48.2110 -48.2070 -48.2070 -48.2064
   -48.0813 -48.0802 -48.0727 -48.0715 -48.0711 -48.0705 -48.0686 -48.0679
    -4.7314  -4.5612  -4.1262  -3.9481  -3.2711  -3.0792  -2.7254  -2.5671
    -2.5580  -2.4271  -2.2142  -2.0986  -2.0744  -1.9417  -1.8609  -1.3950
    -1.1496  -1.0143  -0.9746  -0.8809  -0.8108  -0.6294  -0.5919  -0.4977
    -0.4768  -0.2534  -0.1263  -0.0244   0.0609   0.0675

     occupation numbers 
     1.0000   1.0000   1.0000   1.0000   1.0000   1.0000   1.0000   1.0000
     1.0000   1.0000   1.0000   1.0000   1.0000   1.0000   1.0000   1.0000
     1.0000   1.0000   1.0000   1.0000   1.0000   1.0000   1.0000   1.0000
     1.0000   1.0000   1.0000   1.0000   1.0000   1.0000   1.0000   1.0000
     1.0000   1.0000   1.0000   1.0004   1.0010   1.0316   1.0807   0.0006
     0.0000   0.0000   0.0000   0.0000   0.0000   0.0000   0.0000   0.0000
     0.0000   0.0000   0.0000   0.0000   0.0000   0.0000

          k = 0.2727 0.0000 0.0000 (221756 PWs)   bands (ev):

   -48.5011 -48.4989 -48.4988 -48.4983 -48.4957 -48.4935 -48.4934 -48.4929
   -48.2171 -48.2131 -48.2131 -48.2125 -48.2118 -48.2078 -48.2077 -48.2072
   -48.0815 -48.0757 -48.0757 -48.0730 -48.0705 -48.0704 -48.0696 -48.0675
    -4.8189  -4.2169  -3.6270  -3.6268  -3.3802  -3.3665  -2.9782  -2.9782
    -2.7346  -2.4984  -2.1977  -2.1973  -2.0399  -2.0392  -1.7586  -1.5709
    -1.5707  -1.1119  -1.1117  -1.0702  -0.9117  -0.8431  -0.5939  -0.5935
    -0.3578  -0.0003   0.2006   0.3127   0.3221   0.3688

     occupation numbers 
     1.0000   1.0000   1.0000   1.0000   1.0000   1.0000   1.0000   1.0000
     1.0000   1.0000   1.0000   1.0000   1.0000   1.0000   1.0000   1.0000
     1.0000   1.0000   1.0000   1.0000   1.0000   1.0000   1.0000   1.0000
     1.0000   1.0000   1.0000   1.0000   1.0000   1.0000   1.0000   1.0000
     1.0000   1.0000   1.0000   1.0000   1.0030   1.0030   0.9333   0.1021
     0.1016   0.0000   0.0000   0.0000   0.0000   0.0000   0.0000   0.0000
     0.0000   0.0000   0.0000   0.0000   0.0000   0.0000

          k = 0.2727 0.0875 0.0000 (221778 PWs)   bands (ev):

   -48.5011 -48.4989 -48.4988 -48.4983 -48.4957 -48.4935 -48.4934 -48.4929
   -48.2171 -48.2131 -48.2131 -48.2125 -48.2118 -48.2078 -48.2077 -48.2072
   -48.0813 -48.0770 -48.0744 -48.0729 -48.0710 -48.0700 -48.0696 -48.0676
    -4.7945  -4.1914  -3.9420  -3.3560  -3.3387  -3.3118  -3.2568  -2.7106
    -2.6174  -2.5084  -2.4710  -2.3613  -1.9268  -1.7778  -1.7474  -1.7329
    -1.3294  -1.2489  -1.0799  -1.0512  -0.8543  -0.8208  -0.8117  -0.3353
    -0.3206  -0.2275   0.2051   0.2366   0.3044   0.3095

     occupation numbers 
     1.0000   1.0000   1.0000   1.0000   1.0000   1.0000   1.0000   1.0000
     1.0000   1.0000   1.0000   1.0000   1.0000   1.0000   1.0000   1.0000
     1.0000   1.0000   1.0000   1.0000   1.0000   1.0000   1.0000   1.0000
     1.0000   1.0000   1.0000   1.0000   1.0000   1.0000   1.0000   1.0000
     1.0000   1.0000   1.0000   1.0000   1.0406   0.9964   0.8883   0.8227
     0.0000   0.0000   0.0000   0.0000   0.0000   0.0000   0.0000   0.0000
     0.0000   0.0000   0.0000   0.0000   0.0000   0.0000

          k = 0.2727 0.1750 0.0000 (221876 PWs)   bands (ev):

   -48.5011 -48.4989 -48.4988 -48.4983 -48.4957 -48.4935 -48.4935 -48.4929
   -48.2171 -48.2131 -48.2131 -48.2125 -48.2118 -48.2078 -48.2077 -48.2072
   -48.0809 -48.0782 -48.0732 -48.0727 -48.0715 -48.0703 -48.0692 -48.0678
    -4.7214  -4.2096  -4.1149  -3.5818  -3.2832  -3.2553  -2.8599  -2.7741
    -2.6834  -2.6384  -2.3895  -2.1727  -2.1421  -1.8376  -1.6565  -1.4705
    -1.4118  -1.1626  -1.0896  -1.0144  -0.8198  -0.7180  -0.6684  -0.6544
    -0.2811  -0.1373   0.0353   0.0495   0.2212   0.2864

     occupation numbers 
     1.0000   1.0000   1.0000   1.0000   1.0000   1.0000   1.0000   1.0000
     1.0000   1.0000   1.0000   1.0000   1.0000   1.0000   1.0000   1.0000
     1.0000   1.0000   1.0000   1.0000   1.0000   1.0000   1.0000   1.0000
     1.0000   1.0000   1.0000   1.0000   1.0000   1.0000   1.0000   1.0000
     1.0000   1.0000   1.0000   1.0000   1.0001   1.0823   0.4145   0.0077
     0.0011   0.0000   0.0000   0.0000   0.0000   0.0000   0.0000   0.0000
     0.0000   0.0000   0.0000   0.0000   0.0000   0.0000

          k = 0.2727 0.2624 0.0000 (221844 PWs)   bands (ev):

   -48.5011 -48.4989 -48.4988 -48.4983 -48.4957 -48.4935 -48.4935 -48.4929
   -48.2171 -48.2131 -48.2131 -48.2125 -48.2118 -48.2078 -48.2078 -48.2072
   -48.0803 -48.0793 -48.0726 -48.0721 -48.0719 -48.0709 -48.0688 -48.0681
    -4.5996  -4.4289  -3.9875  -3.8096  -3.1619  -3.1169  -2.9921  -2.9248
    -2.5187  -2.4239  -2.3524  -2.2616  -2.0488  -1.9282  -1.7210  -1.5309
    -1.3604  -1.2516  -0.9629  -0.8169  -0.7202  -0.6562  -0.5668  -0.4658
    -0.4422  -0.3465  -0.3075  -0.0491   0.1569   0.2090

     occupation numbers 
     1.0000   1.0000   1.0000   1.0000   1.0000   1.0000   1.0000   1.0000
     1.0000   1.0000   1.0000   1.0000   1.0000   1.0000   1.0000   1.0000
     1.0000   1.0000   1.0000   1.0000   1.0000   1.0000   1.0000   1.0000
     1.0000   1.0000   1.0000   1.0000   1.0000   1.0000   1.0000   1.0000
     1.0000   1.0000   1.0000   1.0000   1.0023   1.0397   0.7632   0.0413
     0.0001   0.0000   0.0000   0.0000   0.0000   0.0000   0.0000   0.0000
     0.0000   0.0000   0.0000   0.0000   0.0000   0.0000

          k = 0.3636 0.0000 0.0000 (221758 PWs)   bands (ev):

   -48.5001 -48.4979 -48.4978 -48.4973 -48.4967 -48.4945 -48.4944 -48.4939
   -48.2162 -48.2127 -48.2122 -48.2121 -48.2116 -48.2088 -48.2087 -48.2081
   -48.0801 -48.0750 -48.0748 -48.0745 -48.0714 -48.0714 -48.0691 -48.0677
    -4.6349  -4.0234  -3.7706  -3.4399  -3.4397  -3.1520  -3.1287  -2.7849
    -2.7849  -2.5766  -2.5763  -2.2703  -2.1729  -1.9224  -1.9222  -1.8285
    -1.8278  -1.2291  -0.9100  -0.9095  -0.8751  -0.8749  -0.8573  -0.6717
    -0.1216   0.1140   0.2243   0.2243   0.2394   0.4543

     occupation numbers 
     1.0000   1.0000   1.0000   1.0000   1.0000   1.0000   1.0000   1.0000
     1.0000   1.0000   1.0000   1.0000   1.0000   1.0000   1.0000   1.0000
     1.0000   1.0000   1.0000   1.0000   1.0000   1.0000   1.0000   1.0000
     1.0000   1.0000   1.0000   1.0000   1.0000   1.0000   1.0000   1.0000
     1.0000   1.0000   1.0000   1.0000   1.0000   1.0435   1.0436   1.0787
     1.0784   0.0000   0.0000   0.0000   0.0000   0.0000   0.0000   0.0000
     0.0000   0.0000   0.0000   0.0000   0.0000   0.0000

          k = 0.3636 0.0875 0.0000 (221868 PWs)   bands (ev):

   -48.5001 -48.4979 -48.4978 -48.4973 -48.4967 -48.4945 -48.4944 -48.4939
   -48.2162 -48.2127 -48.2122 -48.2121 -48.2116 -48.2088 -48.2087 -48.2081
   -48.0799 -48.0760 -48.0747 -48.0735 -48.0721 -48.0706 -48.0693 -48.0678
    -4.6105  -3.9980  -3.7559  -3.7462  -3.1249  -3.1242  -3.1039  -3.0620
    -2.8919  -2.4183  -2.2830  -2.2425  -2.1651  -2.1571  -2.1460  -1.5665
    -1.5219  -1.2275  -1.1989  -1.1114  -0.8506  -0.8385  -0.5784  -0.5630
    -0.1283  -0.0979  -0.0016   0.1252   0.1859   0.4094

     occupation numbers 
     1.0000   1.0000   1.0000   1.0000   1.0000   1.0000   1.0000   1.0000
     1.0000   1.0000   1.0000   1.0000   1.0000   1.0000   1.0000   1.0000
     1.0000   1.0000   1.0000   1.0000   1.0000   1.0000   1.0000   1.0000
     1.0000   1.0000   1.0000   1.0000   1.0000   1.0000   1.0000   1.0000
     1.0000   1.0000   1.0000   1.0000   1.0000   1.0000   1.0001   0.0931
     0.0329   0.0000   0.0000   0.0000   0.0000   0.0000   0.0000   0.0000
     0.0000   0.0000   0.0000   0.0000   0.0000   0.0000

          k = 0.3636 0.1750 0.0000 (221891 PWs)   bands (ev):

   -48.5001 -48.4979 -48.4978 -48.4973 -48.4967 -48.4945 -48.4944 -48.4939
   -48.2162 -48.2127 -48.2121 -48.2121 -48.2116 -48.2088 -48.2087 -48.2081
   -48.0796 -48.0771 -48.0745 -48.0728 -48.0724 -48.0700 -48.0696 -48.0680
    -4.5373  -4.0243  -3.9217  -3.6730  -3.3898  -3.1602  -3.0410  -3.0299
    -2.6672  -2.5158  -2.4679  -2.1599  -2.0657  -1.9839  -1.7883  -1.6011
    -1.5171  -1.2574  -1.1540  -1.1089  -0.8858  -0.8049  -0.4909  -0.4411
    -0.4332  -0.3116  -0.1422  -0.0405   0.0958   0.4384

     occupation numbers 
     1.0000   1.0000   1.0000   1.0000   1.0000   1.0000   1.0000   1.0000
     1.0000   1.0000   1.0000   1.0000   1.0000   1.0000   1.0000   1.0000
     1.0000   1.0000   1.0000   1.0000   1.0000   1.0000   1.0000   1.0000
     1.0000   1.0000   1.0000   1.0000   1.0000   1.0000   1.0000   1.0000
     1.0000   1.0000   1.0000   1.0000   1.0013   1.0132   1.0235   0.1816
     0.0291   0.0000   0.0000   0.0000   0.0000   0.0000   0.0000   0.0000
     0.0000   0.0000   0.0000   0.0000   0.0000   0.0000

          k = 0.3636 0.2624 0.0000 (221911 PWs)   bands (ev):

   -48.5001 -48.4979 -48.4979 -48.4973 -48.4967 -48.4945 -48.4944 -48.4939
   -48.2162 -48.2127 -48.2121 -48.2121 -48.2116 -48.2088 -48.2087 -48.2081
   -48.0790 -48.0780 -48.0741 -48.0734 -48.0714 -48.0704 -48.0692 -48.0684
    -4.4152  -4.2442  -3.7946  -3.6171  -3.5509  -3.3800  -2.9066  -2.9027
    -2.7348  -2.7106  -2.2257  -2.0304  -1.9326  -1.8174  -1.7484  -1.7257
    -1.5287  -1.3341  -1.0551  -0.9689  -0.8219  -0.7441  -0.7161  -0.5978
    -0.4968  -0.4462  -0.2558  -0.0731   0.2260   0.3965

     occupation numbers 
     1.0000   1.0000   1.0000   1.0000   1.0000   1.0000   1.0000   1.0000
     1.0000   1.0000   1.0000   1.0000   1.0000   1.0000   1.0000   1.0000
     1.0000   1.0000   1.0000   1.0000   1.0000   1.0000   1.0000   1.0000
     1.0000   1.0000   1.0000   1.0000   1.0000   1.0000   1.0000   1.0000
     1.0000   1.0000   1.0000   1.0039   1.0370   1.0704   0.8926   0.7870
     0.0391   0.0000   0.0000   0.0000   0.0000   0.0000   0.0000   0.0000
     0.0000   0.0000   0.0000   0.0000   0.0000   0.0000

          k = 0.4545 0.0000 0.0000 (221854 PWs)   bands (ev):

   -48.4990 -48.4978 -48.4968 -48.4967 -48.4962 -48.4956 -48.4955 -48.4950
   -48.2152 -48.2137 -48.2111 -48.2110 -48.2106 -48.2099 -48.2098 -48.2092
   -48.0784 -48.0766 -48.0737 -48.0736 -48.0725 -48.0725 -48.0686 -48.0681
    -4.3987  -4.1104  -3.7764  -3.4773  -3.2012  -3.2009  -2.9125  -2.9122
    -2.8791  -2.5507  -2.5408  -2.5408  -2.2506  -2.2505  -1.9789  -1.6279
    -1.5624  -1.5617  -1.2498  -1.2492  -0.5859  -0.5719  -0.5717  -0.3636
    -0.2591  -0.2039  -0.2038   0.0120   0.1784   0.5470

     occupation numbers 
     1.0000   1.0000   1.0000   1.0000   1.0000   1.0000   1.0000   1.0000
     1.0000   1.0000   1.0000   1.0000   1.0000   1.0000   1.0000   1.0000
     1.0000   1.0000   1.0000   1.0000   1.0000   1.0000   1.0000   1.0000
     1.0000   1.0000   1.0000   1.0000   1.0000   1.0000   1.0000   1.0000
     1.0000   1.0000   1.0000   1.0000   1.0000   1.0000   1.0148   0.2806
     0.0853   0.0840   0.0000   0.0000   0.0000   0.0000   0.0000   0.0000
     0.0000   0.0000   0.0000   0.0000   0.0000   0.0000

          k = 0.4545 0.0875 0.0000 (221817 PWs)   bands (ev):

   -48.4990 -48.4978 -48.4968 -48.4967 -48.4962 -48.4956 -48.4955 -48.4950
   -48.2152 -48.2137 -48.2111 -48.2110 -48.2106 -48.2099 -48.2098 -48.2092
   -48.0783 -48.0765 -48.0747 -48.0734 -48.0726 -48.0715 -48.0687 -48.0682
    -4.3742  -4.0860  -3.7511  -3.5180  -3.4522  -3.2293  -2.8887  -2.8514
    -2.8132  -2.6065  -2.5233  -2.5127  -2.1705  -1.9506  -1.8965  -1.8820
    -1.5988  -1.5834  -1.2378  -0.9063  -0.8355  -0.5678  -0.5590  -0.5063
    -0.2670  -0.2428  -0.2095   0.1129   0.2043   0.2810

     occupation numbers 
     1.0000   1.0000   1.0000   1.0000   1.0000   1.0000   1.0000   1.0000
     1.0000   1.0000   1.0000   1.0000   1.0000   1.0000   1.0000   1.0000
     1.0000   1.0000   1.0000   1.0000   1.0000   1.0000   1.0000   1.0000
     1.0000   1.0000   1.0000   1.0000   1.0000   1.0000   1.0000   1.0000
     1.0000   1.0000   1.0000   1.0000   1.0000   1.0268   1.0612   1.0706
     0.1743   0.1309   0.0000   0.0000   0.0000   0.0000   0.0000   0.0000
     0.0000   0.0000   0.0000   0.0000   0.0000   0.0000

          k = 0.4545 0.1750 0.0000 (221898 PWs)   bands (ev):

   -48.4990 -48.4978 -48.4968 -48.4967 -48.4962 -48.4956 -48.4956 -48.4950
   -48.2152 -48.2137 -48.2111 -48.2110 -48.2106 -48.2099 -48.2098 -48.2092
   -48.0780 -48.0763 -48.0757 -48.0743 -48.0715 -48.0707 -48.0691 -48.0685
    -4.3009  -4.0126  -3.7870  -3.6751  -3.4985  -3.3769  -3.1459  -2.8530
    -2.7685  -2.4412  -2.4222  -2.1958  -2.1277  -1.8739  -1.8664  -1.7469
    -1.5123  -1.4672  -1.2973  -0.9882  -0.9265  -0.6688  -0.6376  -0.5405
    -0.3686  -0.2298  -0.1749  -0.1340   0.1310   0.2254

     occupation numbers 
     1.0000   1.0000   1.0000   1.0000   1.0000   1.0000   1.0000   1.0000
     1.0000   1.0000   1.0000   1.0000   1.0000   1.0000   1.0000   1.0000
     1.0000   1.0000   1.0000   1.0000   1.0000   1.0000   1.0000   1.0000
     1.0000   1.0000   1.0000   1.0000   1.0000   1.0000   1.0000   1.0000
     1.0000   1.0000   1.0000   1.0000   1.0001   1.0751   1.0787   0.8860
     0.0257   0.0070   0.0000   0.0000   0.0000   0.0000   0.0000   0.0000
     0.0000   0.0000   0.0000   0.0000   0.0000   0.0000

          k = 0.4545 0.2624 0.0000 (221919 PWs)   bands (ev):

   -48.4990 -48.4978 -48.4968 -48.4967 -48.4962 -48.4956 -48.4956 -48.4950
   -48.2152 -48.2137 -48.2110 -48.2110 -48.2106 -48.2099 -48.2098 -48.2092
   -48.0775 -48.0766 -48.0758 -48.0750 -48.0706 -48.0700 -48.0696 -48.0689
    -4.1786  -4.0073  -3.8903  -3.7189  -3.5487  -3.3721  -3.2517  -3.0767
    -2.6308  -2.4392  -2.3049  -2.1153  -1.9748  -1.7348  -1.6754  -1.5205
    -1.4698  -1.3776  -1.2891  -1.1655  -1.1598  -1.0118  -0.8117  -0.5349
    -0.3193  -0.2132  -0.1933   0.0146   0.0669   0.1260

     occupation numbers 
     1.0000   1.0000   1.0000   1.0000   1.0000   1.0000   1.0000   1.0000
     1.0000   1.0000   1.0000   1.0000   1.0000   1.0000   1.0000   1.0000
     1.0000   1.0000   1.0000   1.0000   1.0000   1.0000   1.0000   1.0000
     1.0000   1.0000   1.0000   1.0000   1.0000   1.0000   1.0000   1.0000
     1.0000   1.0000   1.0000   1.0002   1.0163   0.8314   0.5150   0.0318
     0.0075   0.0003   0.0000   0.0000   0.0000   0.0000   0.0000   0.0000
     0.0000   0.0000   0.0000   0.0000   0.0000   0.0000

     the Fermi energy is    -1.6537 ev

!    total energy              =    -361.02650540 Ry
     total all-electron energy =      -361.026700 Ry
     estimated scf accuracy    <       0.00000002 Ry

!    total charge of GC-SCF    =      -5.07961264 e
     smearing contrib. (-TS)   =       0.00064614 Ry
     internal energy E=F+TS    =    -361.02715154 Ry

     The total energy is F=E-TS. E is the sum of the following terms:
     one-electron contribution =   -3771.26808517 Ry
     hartree contribution      =    1850.09595413 Ry
     xc contribution           =     -87.60914901 Ry
     ewald contribution        =    1500.00087632 Ry
     one-center paw contrib.   =       2.11517961 Ry
      -> PAW hartree energy AE =       7.46965039 Ry
      -> PAW hartree energy PS =      -7.24735175 Ry
      -> PAW xc energy AE      =      -3.49393061 Ry
      -> PAW xc energy PS      =       3.35970378 Ry
      -> total E_H with PAW    =    1850.31825277 Ry
      -> total E_XC with PAW   =     -87.74337584 Ry
     pot.stat. contrib. (-muN) =       0.61751204 Ry
     electrostatic embedding   =      -5.07176051 Ry
     cavitation energy         =       0.02286878 Ry
     electrolyte free energy   =      -0.08092555 Ry
     correction to one-el term =     150.15037781 Ry

     WARNING: you are using the parabolic pbc correction;
              the potential shift above must be added to 
              band and Fermi energies.

     convergence has been achieved in  31 iterations
     The dielectric solvent contribution to forces
     atom    1 type  1   force =     0.00007040    0.00000008   -0.07118566
     atom    2 type  1   force =    -0.00001633    0.00001640    0.07124049
     atom    3 type  1   force =     0.00002202   -0.00000003    0.09981038
     atom    4 type  1   force =    -0.00000023   -0.00003395    0.01767944
     atom    5 type  1   force =    -0.00000860    0.00000000   -0.01772694
[...]
     atom   12 type  1   force =     0.00000721   -0.00003638   -0.09991896
     atom   13 type  1   force =    -0.00003474    0.00000007   -0.07278377
     atom   14 type  1   force =     0.00000188   -0.00017608    0.07295051
     atom   15 type  1   force =    -0.00001894   -0.00000003    0.09988952
     atom   16 type  1   force =     0.00000133   -0.00002445    0.01717944
     atom   17 type  1   force =     0.00000139    0.00000000   -0.01710773
     atom   18 type  1   force =     0.00001590    0.00006428   -0.09991825
     atom   19 type  1   force =     0.00001428    0.00000005   -0.07302357
     atom   20 type  1   force =     0.00000188    0.00017621    0.07295054
     atom   21 type  1   force =     0.00001204   -0.00000001    0.10001743
     atom   22 type  1   force =     0.00000133    0.00002445    0.01717945
     atom   23 type  1   force =     0.00000131   -0.00000000   -0.01715256
     atom   24 type  1   force =     0.00001590   -0.00006432   -0.09991823


     Forces acting on atoms (cartesian axes, Ry/au):

     atom    1 type  1   force =    -0.00003379    0.00000000   -0.00005527
     atom    2 type  1   force =    -0.00006204    0.00003670    0.00002825
     atom    3 type  1   force =     0.00003752    0.00000000   -0.00002942
     atom    4 type  1   force =    -0.00002771   -0.00000722    0.00008546
     atom    5 type  1   force =     0.00017871    0.00000000    0.00004485
     atom    6 type  1   force =    -0.00003943    0.00009340   -0.00009989
     atom    7 type  1   force =     0.00007764    0.00000000   -0.00000807
     atom    8 type  1   force =    -0.00006204   -0.00003670    0.00002825
     atom    9 type  1   force =    -0.00010633    0.00000000    0.00019391
     atom   10 type  1   force =    -0.00002771    0.00000722    0.00008546
     atom   11 type  1   force =     0.00011029    0.00000000   -0.00017608
     atom   12 type  1   force =    -0.00003943   -0.00009340   -0.00009989
     atom   13 type  1   force =     0.00010159    0.00000000   -0.00005041
     atom   14 type  1   force =    -0.00003884    0.00003944    0.00002479
     atom   15 type  1   force =     0.00002494    0.00000000   -0.00003943
     atom   16 type  1   force =    -0.00000565   -0.00000472    0.00007824
     atom   17 type  1   force =     0.00016648    0.00000000   -0.00001121
     atom   18 type  1   force =    -0.00004362    0.00000496   -0.00009337
     atom   19 type  1   force =    -0.00011350    0.00000000   -0.00001432
     atom   20 type  1   force =    -0.00003884   -0.00003944    0.00002479
     atom   21 type  1   force =    -0.00009503    0.00000000    0.00019877
     atom   22 type  1   force =    -0.00000565    0.00000472    0.00007824
     atom   23 type  1   force =     0.00008604    0.00000000   -0.00010029
     atom   24 type  1   force =    -0.00004362   -0.00000496   -0.00009337
     The non-local contrib.  to forces
     atom    1 type  1   force =    -0.00015092    0.00000000    0.04013230
     atom    2 type  1   force =     0.00011423    0.00010170   -0.04015572
     atom    3 type  1   force =    -0.00009323    0.00000000   -0.02080409
     atom    4 type  1   force =    -0.00002573   -0.00009911    0.00378663
     atom    5 type  1   force =    -0.00017258    0.00000000   -0.00357404
     atom    6 type  1   force =     0.00005181    0.00013621    0.02072220
     atom    7 type  1   force =     0.00012762    0.00000000    0.04014953
     atom    8 type  1   force =     0.00011423   -0.00010170   -0.04015572
     atom    9 type  1   force =     0.00003458    0.00000000   -0.02066951
     atom   10 type  1   force =    -0.00002573    0.00009911    0.00378663
     atom   11 type  1   force =    -0.00008951    0.00000000   -0.00395126
     atom   12 type  1   force =     0.00005181   -0.00013621    0.02072220
     atom   13 type  1   force =     0.00001392    0.00000000    0.04012901
     atom   14 type  1   force =     0.00012827    0.00010799   -0.04015912
     atom   15 type  1   force =    -0.00011452    0.00000000   -0.02081514
     atom   16 type  1   force =    -0.00000590   -0.00009977    0.00377175
     atom   17 type  1   force =    -0.00018633    0.00000000   -0.00364459
     atom   18 type  1   force =     0.00004620    0.00002889    0.02073691
     atom   19 type  1   force =    -0.00009038    0.00000000    0.04017458
     atom   20 type  1   force =     0.00012827   -0.00010799   -0.04015912
     atom   21 type  1   force =     0.00006741    0.00000000   -0.02069330
     atom   22 type  1   force =    -0.00000590    0.00009977    0.00377175
     atom   23 type  1   force =    -0.00009464    0.00000000   -0.00384362
     atom   24 type  1   force =     0.00004620   -0.00002889    0.02073691
     The ionic contribution  to forces
     atom    1 type  1   force =    -0.00096107   -0.00000002    8.26537636
     atom    2 type  1   force =    -0.00081042    0.00129567   -8.26441805
     atom    3 type  1   force =     0.00052936    0.00000001   -6.01598397
     atom    4 type  1   force =    -0.00038523   -0.00131234   -1.32781543
     atom    5 type  1   force =     0.00164354   -0.00000001    1.33038307
     atom    6 type  1   force =    -0.00021975    0.00205440    6.02360611
     atom    7 type  1   force =     0.00174665    0.00000004    8.26268781
     atom    8 type  1   force =    -0.00081043   -0.00129569   -8.26441797
     atom    9 type  1   force =    -0.00102699    0.00000002   -6.03059960
     atom   10 type  1   force =    -0.00038521    0.00131231   -1.32781534
     atom   11 type  1   force =     0.00102867    0.00000005    1.32566169
     atom   12 type  1   force =    -0.00021975   -0.00205443    6.02360631
     atom   13 type  1   force =     0.00176400   -0.00000002    8.26530144
     atom   14 type  1   force =    -0.00040286    0.00141436   -8.26441834
     atom   15 type  1   force =     0.00030379    0.00000002   -6.01579000
     atom   16 type  1   force =     0.00005084   -0.00127579   -1.32814397
     atom   17 type  1   force =     0.00132552   -0.00000001    1.33085999
     atom   18 type  1   force =    -0.00042666    0.00008790    6.02362843
     atom   19 type  1   force =    -0.00206230    0.00000004    8.26379857
     atom   20 type  1   force =    -0.00040285   -0.00141438   -8.26441824
     atom   21 type  1   force =    -0.00052840    0.00000001   -6.03170366
     atom   22 type  1   force =     0.00005087    0.00127576   -1.32814388
     atom   23 type  1   force =     0.00062536    0.00000005    1.32513003
     atom   24 type  1   force =    -0.00042666   -0.00008793    6.02362863
     The local contribution  to forces
     atom    1 type  1   force =     0.00108708   -0.00004226   -8.23278961
     atom    2 type  1   force =     0.00062662   -0.00122795    8.23165494
     atom    3 type  1   force =    -0.00037538   -0.00004365    5.93686575
     atom    4 type  1   force =     0.00037556    0.00138367    1.30693927
     atom    5 type  1   force =    -0.00129282   -0.00004494   -1.30967296
     atom    6 type  1   force =     0.00011930   -0.00217709   -5.94450827
     atom    7 type  1   force =    -0.00176896   -0.00004365   -8.22977037
     atom    8 type  1   force =     0.00062894    0.00113760    8.23165131
     atom    9 type  1   force =     0.00086957   -0.00004446    5.95145689
     atom   10 type  1   force =     0.00038601   -0.00147238    1.30693684
     atom   11 type  1   force =    -0.00082687   -0.00004168   -1.30471231
     atom   12 type  1   force =     0.00012337    0.00209037   -5.94451313
     atom   13 type  1   force =    -0.00164193   -0.00004226   -8.23269524
     atom   14 type  1   force =     0.00023240   -0.00135199    8.23165167
     atom   15 type  1   force =    -0.00014539   -0.00004365    5.93667763
     atom   16 type  1   force =    -0.00005728    0.00135090    1.30727240
     atom   17 type  1   force =    -0.00097423   -0.00004494   -1.31011871
     atom   18 type  1   force =     0.00031896   -0.00021930   -5.94453948
     atom   19 type  1   force =     0.00202527   -0.00004365   -8.23096222
     atom   20 type  1   force =     0.00023530    0.00126164    8.23164744
     atom   21 type  1   force =     0.00035414   -0.00004446    5.95257950
     atom   22 type  1   force =    -0.00004683   -0.00143961    1.30726998
     atom   23 type  1   force =    -0.00044617   -0.00004168   -1.30423406
     atom   24 type  1   force =     0.00032303    0.00013258   -5.94454435
     The core correction contribution to forces
     atom    1 type  1   force =     0.00000000    0.00000000    0.00000000
     atom    2 type  1   force =     0.00000000    0.00000000    0.00000000
     atom    3 type  1   force =     0.00000000    0.00000000    0.00000000
     atom    4 type  1   force =     0.00000000    0.00000000    0.00000000
     atom    5 type  1   force =     0.00000000    0.00000000    0.00000000
     atom    6 type  1   force =     0.00000000    0.00000000    0.00000000
     atom    7 type  1   force =     0.00000000    0.00000000    0.00000000
     atom    8 type  1   force =     0.00000000    0.00000000    0.00000000
     atom    9 type  1   force =     0.00000000    0.00000000    0.00000000
     atom   10 type  1   force =     0.00000000    0.00000000    0.00000000
     atom   11 type  1   force =     0.00000000    0.00000000    0.00000000
     atom   12 type  1   force =     0.00000000    0.00000000    0.00000000
     atom   13 type  1   force =     0.00000000    0.00000000    0.00000000
     atom   14 type  1   force =     0.00000000    0.00000000    0.00000000
     atom   15 type  1   force =     0.00000000    0.00000000    0.00000000
     atom   16 type  1   force =     0.00000000    0.00000000    0.00000000
     atom   17 type  1   force =     0.00000000    0.00000000    0.00000000
     atom   18 type  1   force =     0.00000000    0.00000000    0.00000000
     atom   19 type  1   force =     0.00000000    0.00000000    0.00000000
     atom   20 type  1   force =     0.00000000    0.00000000    0.00000000
     atom   21 type  1   force =     0.00000000    0.00000000    0.00000000
     atom   22 type  1   force =     0.00000000    0.00000000    0.00000000
     atom   23 type  1   force =     0.00000000    0.00000000    0.00000000
     atom   24 type  1   force =     0.00000000    0.00000000    0.00000000
     The Hubbard contrib.    to forces
     atom    1 type  1   force =     0.00000000    0.00000000    0.00000000
     atom    2 type  1   force =     0.00000000    0.00000000    0.00000000
     atom    3 type  1   force =     0.00000000    0.00000000    0.00000000
     atom    4 type  1   force =     0.00000000    0.00000000    0.00000000
     atom    5 type  1   force =     0.00000000    0.00000000    0.00000000
     atom    6 type  1   force =     0.00000000    0.00000000    0.00000000
     atom    7 type  1   force =     0.00000000    0.00000000    0.00000000
     atom    8 type  1   force =     0.00000000    0.00000000    0.00000000
     atom    9 type  1   force =     0.00000000    0.00000000    0.00000000
     atom   10 type  1   force =     0.00000000    0.00000000    0.00000000
     atom   11 type  1   force =     0.00000000    0.00000000    0.00000000
     atom   12 type  1   force =     0.00000000    0.00000000    0.00000000
     atom   13 type  1   force =     0.00000000    0.00000000    0.00000000
     atom   14 type  1   force =     0.00000000    0.00000000    0.00000000
     atom   15 type  1   force =     0.00000000    0.00000000    0.00000000
     atom   16 type  1   force =     0.00000000    0.00000000    0.00000000
     atom   17 type  1   force =     0.00000000    0.00000000    0.00000000
     atom   18 type  1   force =     0.00000000    0.00000000    0.00000000
     atom   19 type  1   force =     0.00000000    0.00000000    0.00000000
     atom   20 type  1   force =     0.00000000    0.00000000    0.00000000
     atom   21 type  1   force =     0.00000000    0.00000000    0.00000000
     atom   22 type  1   force =     0.00000000    0.00000000    0.00000000
     atom   23 type  1   force =     0.00000000    0.00000000    0.00000000
     atom   24 type  1   force =     0.00000000    0.00000000    0.00000000
     The SCF correction term to forces
     atom    1 type  1   force =    -0.00000035    0.00000000   -0.00000171
     atom    2 type  1   force =     0.00000002   -0.00000002    0.00000228
     atom    3 type  1   force =     0.00000007    0.00000000   -0.00000116
     atom    4 type  1   force =     0.00000003    0.00000009   -0.00000012
     atom    5 type  1   force =     0.00000022    0.00000000    0.00000000
     atom    6 type  1   force =    -0.00000010    0.00000014    0.00000148
     atom    7 type  1   force =    -0.00000001    0.00000000   -0.00000170
     atom    8 type  1   force =     0.00000002    0.00000002    0.00000228
     atom    9 type  1   force =    -0.00000033   -0.00000000   -0.00000126
     atom   10 type  1   force =     0.00000003   -0.00000009   -0.00000012
     atom   11 type  1   force =     0.00000000   -0.00000000    0.00000002
     atom   12 type  1   force =    -0.00000010   -0.00000014    0.00000148
     atom   13 type  1   force =     0.00000029    0.00000000   -0.00000173
     atom   14 type  1   force =    -0.00000005    0.00000005    0.00000225
     atom   15 type  1   force =    -0.00000006    0.00000000   -0.00000131
     atom   16 type  1   force =     0.00000005    0.00000001   -0.00000009
     atom   17 type  1   force =     0.00000008    0.00000000   -0.00000005
     atom   18 type  1   force =    -0.00000011   -0.00000021    0.00000146
     atom   19 type  1   force =    -0.00000044    0.00000000   -0.00000158
     atom   20 type  1   force =    -0.00000005   -0.00000005    0.00000225
     atom   21 type  1   force =    -0.00000028   -0.00000000   -0.00000108
     atom   22 type  1   force =     0.00000005   -0.00000001   -0.00000009
     atom   23 type  1   force =     0.00000011   -0.00000000    0.00000005
     atom   24 type  1   force =    -0.00000011    0.00000021    0.00000146

     Total force =     0.000609     Total SCF correction =     0.000007
     Energy error            =      4.7E-06 Ry
     Gradient error          =      2.0E-04 Ry/Bohr

     bfgs converged in  33 scf cycles and  32 bfgs steps
     (criteria: energy <  1.0E-05 Ry, force <  3.9E-04 Ry/Bohr)

     End of BFGS Geometry Optimization

     Final energy             =    -361.0267751387 Ry

     File ./Li/Lithium.bfgs deleted, as requested
Begin final coordinates

ATOMIC_POSITIONS (angstrom)
Li               2.7245266328        4.8580445300       26.6929205527
Li               1.2449794406        2.4302294068       20.3544566581
Li               2.7244079911        4.8580445600       21.3216072533
Li               2.7220676471        2.4281422323       23.0190086234
Li               1.2230490822        4.8580445800       24.0268330098
Li               1.2455646826        2.4282764137       25.7287400696
Li               2.7295016862        9.7160883600       26.6905602364
Li               1.2449794006        7.2858597532       20.3544567181
Li               2.7391597801        9.7160883800       21.3138816435
Li               2.7220674671        7.2879469077       23.0190086634
Li               1.2334172272        9.7160883300       24.0272489379
Li               1.2455646126        7.2878126963       25.7287401495
Li               5.6982737367        4.8580445300       26.6928275089
Li               4.2196450720        2.4301086068       20.3545099288
Li               5.6993919663        4.8580445600       21.3217533529
Li               5.6967883491        2.4280475547       23.0189519289
Li               4.1981322082        4.8580445800       24.0273929817
Li               4.2206032175        2.4289416677       25.7286785645
Li               5.7061672227        9.7160883600       26.6911379616
Li               4.2196450220        7.2859805532       20.3545099988
Li               5.7140527328        9.7160883800       21.3134704068
Li               5.6967881691        7.2880415853       23.0189519689
Li               4.2087353174        9.7160883300       24.0264921294
Li               4.2206031475        7.2871474423       25.7286786445
End final coordinates



     Writing all to output data dir ./Li/Lithium.save/ :
     XML data file
     init_run     :     15.67s CPU     22.96s WALL (       1 calls)
     electrons    :   8447.83s CPU  10485.94s WALL (      33 calls)
     update_pot   :      3.89s CPU      4.73s WALL (      32 calls)
     forces       :    277.27s CPU    281.76s WALL (      33 calls)

     Called by init_run:
     wfcinit      :      1.16s CPU      1.59s WALL (       1 calls)
     wfcinit:wfcr :      1.06s CPU      1.49s WALL (      12 calls)
     potinit      :      0.68s CPU      0.72s WALL (       1 calls)
     hinit0       :      2.76s CPU      3.04s WALL (       1 calls)

     Called by electrons:
     c_bands      :   3881.45s CPU   4949.03s WALL (     567 calls)
     sum_band     :    317.95s CPU    431.92s WALL (     567 calls)
     v_of_rho     :     52.50s CPU     63.65s WALL (     568 calls)
     v_h          :      4.44s CPU      5.67s WALL (     568 calls)
     v_xc         :     48.05s CPU     57.97s WALL (     568 calls)
     newd         :     20.87s CPU     26.97s WALL (     568 calls)
     PAW_pot      :      4.83s CPU      6.42s WALL (     600 calls)
     mix_rho      :    119.14s CPU    153.25s WALL (     567 calls)

     Called by c_bands:
     init_us_2    :     48.34s CPU     50.03s WALL (   14400 calls)
     cegterg      :   3722.66s CPU   4614.19s WALL (    7820 calls)

     Called by sum_band:
     sum_band:wei :      0.65s CPU      0.79s WALL (     567 calls)
     sum_band:loo :    286.17s CPU    387.63s WALL (     567 calls)
     sum_band:buf :      4.54s CPU      4.90s WALL (    6804 calls)
     sum_band:ini :     22.03s CPU     22.22s WALL (    6804 calls)
     sum_band:cal :     45.15s CPU     52.55s WALL (    7188 calls)
     sum_band:bec :      0.55s CPU      0.60s WALL (    7188 calls)
     addusdens    :     18.13s CPU     19.12s WALL (     567 calls)
                                        0.00s GPU  (     567 calls)
     addusd:skk   :      3.38s CPU      3.44s WALL (     567 calls)
                                        0.00s GPU  (     567 calls)

     Called by *egterg:
     cdiaghg      :    809.98s CPU    840.51s WALL (   87870 calls)
     cegterg:over :    260.03s CPU    284.25s WALL (   81011 calls)
     cegterg:upda :    238.20s CPU    243.61s WALL (   81011 calls)
     cegterg:last :     47.12s CPU     47.49s WALL (    8973 calls)
     h_psi        :   2102.87s CPU   2922.14s WALL (   88843 calls)
     s_psi        :    172.51s CPU    175.56s WALL (   88843 calls)
     g_psi        :      3.53s CPU      3.65s WALL (   81011 calls)

     Called by h_psi:
     h_psi:calbec :    264.20s CPU    316.16s WALL (   88843 calls)
     vloc_psi     :   1635.42s CPU   2392.02s WALL (   88843 calls)
                                        0.00s GPU  (   88843 calls)
     add_vuspsi   :    190.96s CPU    200.84s WALL (   88843 calls)

     General routines
     calbec       :    317.49s CPU    377.60s WALL (   97615 calls)
     fft          :     34.43s CPU     50.68s WALL (    7448 calls)
     ffts         :     73.49s CPU     96.03s WALL (   62881 calls)
     fftw         :   1752.22s CPU   2567.76s WALL ( 3208138 calls)
     interpolate  :      4.42s CPU      5.67s WALL (     568 calls)

     Parallel routines

     PAW routines
     PAW_pot      :      4.83s CPU      6.42s WALL (     600 calls)
     PAW_symme    :      0.19s CPU      0.24s WALL (    1167 calls)

     Environ routines

     PWSCF        :      2h31m CPU      3h 6m WALL


   This run was terminated on:   5: 3:41  24Jan2025            

=------------------------------------------------------------------------------=
   JOB DONE.
=------------------------------------------------------------------------------=
