
     Program PWSCF v.7.4 starts on  8Jan2025 at 16:53:37 
        Git branch: develop
        Last git commit: e877ff360aceba4b8d76ffc2fb1c70545fc5dd57
        Last git commit date: Sat Jan 4 12:56:15 2025 +0000
        Last git commit subject: Merge branch 'orthoU' into 'develop'

     This program is part of the open-source Quantum ESPRESSO suite
     for quantum simulation of materials; please cite
         "P. Giannozzi et al., J. Phys.:Condens. Matter 21 395502 (2009);
         "P. Giannozzi et al., J. Phys.:Condens. Matter 29 465901 (2017);
         "P. Giannozzi et al., J. Chem. Phys. 152 154105 (2020);
          URL http://www.quantum-espresso.org", 
     in publications or presentations arising from this work. More details at
     http://www.quantum-espresso.org/quote

     Parallel version (MPI), running on   440 processors

     MPI processes distributed on    11 nodes
     176918 MiB available memory on the printing compute node when the environment starts
 
     Reading input from espresso.pwi
Warning: card &CELL ignored
Warning: card    PRESS_CONV_THR   = 0.1 ignored
Warning: card    CELL_DOFREE      = 'ALL' ignored
Warning: card / ignored
Warning: card &FCP ignored
Warning: card / ignored
Warning: card &RISM ignored
Warning: card / ignored

     Current dimensions of program PWSCF are:
     Max number of different atomic species (ntypx) = 10
     Max number of k-points (npk) =  40000
     Max angular momentum in pseudopotentials (lmaxx) =  4

     IMPORTANT: XC functional enforced from input :
     Exchange-correlation= PBE
                           (   1   4   3   4   0   0   0)
     Any further DFT definition will be discarded
     Please, verify this is what you really want

 
     Reading input from environ.in:
     * using ionic solvent mode
     * setting boundary derivatives method to SSCS default
     * setting electrolyte-boundary derivatives method to SSCS default

Environ Warning (1001): card EOF ignored

     
 
     K-points division:     npool     =       2
     R & G space division:  proc/nbgrp/npool/nimage =     220
     Subspace diagonalization in iterative solution of the eigenvalue problem:
     a serial algorithm will be used

 
     Parallelization info
     --------------------
     sticks:   dense  smooth     PW     G-vecs:    dense   smooth      PW
     Min          57      22      6                35915     9032    1246
     Max          58      23      7                35952     9119    1280
     Sum       12597    5037   1349              7904519  1999739  278317
 
     Using Slab Decomposition
 


     bravais-lattice index     =            8
     lattice parameter (alat)  =      18.3607  a.u.
     unit-cell volume          =   20684.8735 (a.u.)^3
     number of atoms/cell      =           44
     number of atomic types    =            1
     number of electrons       =       132.00
     number of Kohn-Sham states=           99
     kinetic-energy cutoff     =      80.0000  Ry
     charge density cutoff     =     800.0000  Ry
     scf convergence threshold =      1.0E-14
     mixing beta               =       0.2000
     number of iterations used =            8  local-TF  mixing
     Exchange-correlation= PBE
                           (   1   4   3   4   0   0   0)

     ================================================================================
 
                                  Environ Setup Summary

     ================================================================================
 
     Please cite

          O. Andreussi, I. Dabo and N. Marzari, J. Chem. Phys. 136, 064102 (2012)
          F. Nattino, M. Truscott, N. Marzari, and O. Andreussi, J. Chem. Phys. 150, 041722 (2019)

     in publications or presentations arising from this work.

     ================================================================================
 
     Parameters
     ==========

     compensation onset threshold      =               0.1000E+00
     static permittivity               =                    89.90
     surface tension in input (dyn/cm) =                    37.30
     surface tension in internal units =               0.4792E-04

     Solvent Boundary
     ================

     solvent mode                      =                    ionic
     derivatives method                =                   lowmem
     electrolyte derivatives method    =                   lowmem
     numerical core for derivatives    =                      fft
     switching function adopted        =                     SCCS
     density limit for vacuum region   =               0.5000E-02
     density limit for bulk solvent    =               0.1000E-03
     soft-sphere radius mode           =                    bondi
     soft-sphere softness              =                     0.50
     alpha                             =                     1.32

     Electrostatic Setup
     ===================

     electrostatic problem to solve    =                    modpb
     numerical solver adopted          =                   newton
     type of auxiliary density adopted =                     none
     numerical core for poisson        =                      fft
     adopting a nested solver scheme
     inner solver                      =                       cg
     inner core                        =                      fft
     type of pbc corrections           =                parabolic
     numerical core for corrections    =                      1da

     ================================================================================
 

     >>>>> Grand-Canonical SCF is activated <<<<<
     Initial Total Charge  =     0.000000 e
     Target Fermi Energy   =    -4.404000 eV
     Thr. of Fermi Energy  =     0.001000 eV
     Wave-shift of Kerker  =     0.400000 bohr^-1
     Wave-shift of Hartree =     1.500000 bohr^-1
     Mixing Rate of Fermi  =     0.050000

     celldm(1)=  18.360747  celldm(2)=   0.586302  celldm(3)=   5.699811
     celldm(4)=   0.000000  celldm(5)=   0.000000  celldm(6)=   0.000000

     crystal axes: (cart. coord. in units of alat)
               a(1) = (   1.000000   0.000000   0.000000 )  
               a(2) = (   0.000000   0.586302   0.000000 )  
               a(3) = (   0.000000   0.000000   5.699811 )  

     reciprocal axes: (cart. coord. in units 2 pi/alat)
               b(1) = (  1.000000  0.000000  0.000000 )  
               b(2) = (  0.000000  1.705606  0.000000 )  
               b(3) = (  0.000000  0.000000  0.175444 )  


     PseudoPot. # 1 for Li read from file:
     /home/mmm1182/Repos/Pseudopotentials/pslibrary/Li.pbe-sl-kjpaw_psl.1.0.0.UPF
     MD5 check sum: f40bb4162937df3f7c561f1969c76545
     Pseudo is Projector augmented-wave, Zval =  3.0
     Generated using 'atomic' code by A. Dal Corso  v.7.3.1
     Shape of augmentation charge: PSQ
     Using radial grid of 1017 points,  4 beta functions with: 
                l(1) =   0
                l(2) =   0
                l(3) =   1
                l(4) =   1
     Q(r) pseudized with 0 coefficients 


     atomic species   valence    mass     pseudopotential
     Li                3.00     6.94000     Li( 1.00)

      2 Sym. Ops. (no inversion) found


                                    s                        frac. trans.

      isym =  1     identity                                     

 cryst.   s( 1) = (     1          0          0      )
                  (     0          1          0      )
                  (     0          0          1      )

 cart.    s( 1) = (  1.0000000  0.0000000  0.0000000 )
                  (  0.0000000  1.0000000  0.0000000 )
                  (  0.0000000  0.0000000  1.0000000 )


      isym =  2     inv. 180 deg rotation - cart. axis [1,0,0]   

 cryst.   s( 2) = (    -1          0          0      )
                  (     0          1          0      )
                  (     0          0          1      )

 cart.    s( 2) = ( -1.0000000  0.0000000  0.0000000 )
                  (  0.0000000  1.0000000  0.0000000 )
                  (  0.0000000  0.0000000  1.0000000 )


     point group C_s (m)    
     there are  2 classes
     the character table:

       E     s    
A'     1.00  1.00
A''    1.00 -1.00

     the symmetry operations in each class and the name of the first element:

     E        1
          identity                                               
     s        2
          inv. 180 deg rotation - cart. axis [1,0,0]             

   Cartesian axes

     site n.     atom                  positions (alat units)
         1        Li     tau(   1) = (   0.5000000   0.5310738   3.7050692  )
         2        Li     tau(   2) = (   0.2500048   0.4814883   1.9947589  )
         3        Li     tau(   3) = (   0.2500045   0.0961832   2.2519977  )
         4        Li     tau(   4) = (   0.5000000   0.2200446   2.0961158  )
         5        Li     tau(   5) = (   0.0000000   0.5060878   2.2550280  )
         6        Li     tau(   6) = (   0.5000000   0.1939943   2.4198708  )
         7        Li     tau(   7) = (   0.2500059   0.3215911   2.6539423  )
         8        Li     tau(   8) = (   0.2499969   0.5870374   2.8359630  )
         9        Li     tau(   9) = (   0.2500015   0.3766821   2.3404607  )
        10        Li     tau(  10) = (   0.2499976   0.0441508   2.5380906  )
        11        Li     tau(  11) = (   0.0000000   0.4679233   2.5616202  )
        12        Li     tau(  12) = (   0.5000000   0.1484487   2.7345380  )
        13        Li     tau(  13) = (   0.5000000   0.4256724   2.8638142  )
        14        Li     tau(  14) = (   0.5000000   0.1048074   3.0458758  )
        15        Li     tau(  15) = (   0.2499965   0.5447768   3.1382103  )
        16        Li     tau(  16) = (   0.2499989   0.2324080   3.2799400  )
        17        Li     tau(  17) = (   0.2500070   0.2779484   2.9652753  )
        18        Li     tau(  18) = (   0.0000000   0.3822280   3.1617751  )
        19        Li     tau(  19) = (   0.5000000   0.0497488   3.3593741  )
        20        Li     tau(  20) = (   0.5000000   0.3302969   3.4477099  )
        21        Li     tau(  21) = (   0.2499856   0.5066212   3.4447958  )
        22        Li     tau(  22) = (   0.2501591   0.2063571   3.6036869  )
        23        Li     tau(  23) = (   1.0000000   0.5313330   3.7050414  )
        24        Li     tau(  24) = (   0.7499952   0.4814883   1.9947589  )
        25        Li     tau(  25) = (   0.7499955   0.0961832   2.2519977  )
        26        Li     tau(  26) = (   1.0000000   0.2200454   2.0961213  )
        27        Li     tau(  27) = (   0.5000000   0.5060794   2.2550054  )
        28        Li     tau(  28) = (   1.0000000   0.1940008   2.4198625  )
        29        Li     tau(  29) = (   0.7499941   0.3215911   2.6539423  )
        30        Li     tau(  30) = (   0.7500031   0.5870374   2.8359630  )
        31        Li     tau(  31) = (   0.7499985   0.3766821   2.3404607  )
        32        Li     tau(  32) = (   0.7500024   0.0441508   2.5380906  )
        33        Li     tau(  33) = (   0.5000000   0.4679322   2.5615826  )
        34        Li     tau(  34) = (   1.0000000   0.1484573   2.7345197  )
        35        Li     tau(  35) = (   1.0000000   0.4256553   2.8638735  )
        36        Li     tau(  36) = (   1.0000000   0.1048094   3.0458472  )
        37        Li     tau(  37) = (   0.7500035   0.5447768   3.1382103  )
        38        Li     tau(  38) = (   0.7500011   0.2324080   3.2799400  )
        39        Li     tau(  39) = (   0.7499930   0.2779484   2.9652753  )
        40        Li     tau(  40) = (   0.5000000   0.3822699   3.1616625  )
        41        Li     tau(  41) = (   1.0000000   0.0496945   3.3593223  )
        42        Li     tau(  42) = (   1.0000000   0.3301559   3.4478965  )
        43        Li     tau(  43) = (   0.7500144   0.5066212   3.4447958  )
        44        Li     tau(  44) = (   0.7498409   0.2063571   3.6036869  )

   Crystallographic axes

     site n.     atom                  positions (cryst. coord.)
         1        Li     tau(   1) = (  0.5000000  0.9058025  0.6500337  )
         2        Li     tau(   2) = (  0.2500048  0.8212291  0.3499693  )
         3        Li     tau(   3) = (  0.2500045  0.1640506  0.3951004  )
         4        Li     tau(   4) = (  0.5000000  0.3753092  0.3677518  )
         5        Li     tau(   5) = (  0.0000000  0.8631862  0.3956321  )
         6        Li     tau(   6) = (  0.5000000  0.3308778  0.4245528  )
         7        Li     tau(   7) = (  0.2500059  0.5485075  0.4656193  )
         8        Li     tau(   8) = (  0.2499969  1.0012544  0.4975539  )
         9        Li     tau(   9) = (  0.2500015  0.6424711  0.4106208  )
        10        Li     tau(  10) = (  0.2499976  0.0753038  0.4452938  )
        11        Li     tau(  11) = (  0.0000000  0.7980927  0.4494220  )
        12        Li     tau(  12) = (  0.5000000  0.2531950  0.4797594  )
        13        Li     tau(  13) = (  0.5000000  0.7260293  0.5024402  )
        14        Li     tau(  14) = (  0.5000000  0.1787601  0.5343819  )
        15        Li     tau(  15) = (  0.2499965  0.9291744  0.5505815  )
        16        Li     tau(  16) = (  0.2499989  0.3963965  0.5754471  )
        17        Li     tau(  17) = (  0.2500070  0.4740704  0.5202410  )
        18        Li     tau(  18) = (  0.0000000  0.6519302  0.5547158  )
        19        Li     tau(  19) = (  0.5000000  0.0848518  0.5893834  )
        20        Li     tau(  20) = (  0.5000000  0.5633563  0.6048814  )
        21        Li     tau(  21) = (  0.2499856  0.8640959  0.6043702  )
        22        Li     tau(  22) = (  0.2501591  0.3519638  0.6322467  )
        23        Li     tau(  23) = (  1.0000000  0.9062446  0.6500288  )
        24        Li     tau(  24) = (  0.7499952  0.8212291  0.3499693  )
        25        Li     tau(  25) = (  0.7499955  0.1640506  0.3951004  )
        26        Li     tau(  26) = (  1.0000000  0.3753107  0.3677528  )
        27        Li     tau(  27) = (  0.5000000  0.8631719  0.3956281  )
        28        Li     tau(  28) = (  1.0000000  0.3308888  0.4245514  )
        29        Li     tau(  29) = (  0.7499941  0.5485075  0.4656193  )
        30        Li     tau(  30) = (  0.7500031  1.0012544  0.4975539  )
        31        Li     tau(  31) = (  0.7499985  0.6424711  0.4106208  )
        32        Li     tau(  32) = (  0.7500024  0.0753038  0.4452938  )
        33        Li     tau(  33) = (  0.5000000  0.7981078  0.4494154  )
        34        Li     tau(  34) = (  1.0000000  0.2532095  0.4797562  )
        35        Li     tau(  35) = (  1.0000000  0.7260001  0.5024506  )
        36        Li     tau(  36) = (  1.0000000  0.1787636  0.5343769  )
        37        Li     tau(  37) = (  0.7500035  0.9291744  0.5505815  )
        38        Li     tau(  38) = (  0.7500011  0.3963965  0.5754471  )
        39        Li     tau(  39) = (  0.7499930  0.4740704  0.5202410  )
        40        Li     tau(  40) = (  0.5000000  0.6520018  0.5546960  )
        41        Li     tau(  41) = (  1.0000000  0.0847593  0.5893743  )
        42        Li     tau(  42) = (  1.0000000  0.5631157  0.6049142  )
        43        Li     tau(  43) = (  0.7500144  0.8640959  0.6043702  )
        44        Li     tau(  44) = (  0.7498409  0.3519638  0.6322467  )

     number of k points=    28  Marzari-Vanderbilt smearing, width (Ry)=  0.0100
                       cart. coord. in units 2pi/alat
        k(    1) = (   0.0000000   0.0000000   0.0000000), wk =   0.0238095
        k(    2) = (   0.0000000   0.1421338   0.0000000), wk =   0.0476190
        k(    3) = (   0.0000000   0.2842676   0.0000000), wk =   0.0476190
        k(    4) = (   0.0000000   0.4264014   0.0000000), wk =   0.0476190
        k(    5) = (   0.0000000   0.5685352   0.0000000), wk =   0.0476190
        k(    6) = (   0.0000000   0.7106690   0.0000000), wk =   0.0476190
        k(    7) = (   0.0000000  -0.8528028   0.0000000), wk =   0.0238095
        k(    8) = (   0.1428571   0.0000000   0.0000000), wk =   0.0476190
        k(    9) = (   0.1428571   0.1421338   0.0000000), wk =   0.0952381
        k(   10) = (   0.1428571   0.2842676   0.0000000), wk =   0.0952381
        k(   11) = (   0.1428571   0.4264014   0.0000000), wk =   0.0952381
        k(   12) = (   0.1428571   0.5685352   0.0000000), wk =   0.0952381
        k(   13) = (   0.1428571   0.7106690   0.0000000), wk =   0.0952381
        k(   14) = (   0.1428571  -0.8528028   0.0000000), wk =   0.0476190
        k(   15) = (   0.2857143   0.0000000   0.0000000), wk =   0.0476190
        k(   16) = (   0.2857143   0.1421338   0.0000000), wk =   0.0952381
        k(   17) = (   0.2857143   0.2842676   0.0000000), wk =   0.0952381
        k(   18) = (   0.2857143   0.4264014   0.0000000), wk =   0.0952381
        k(   19) = (   0.2857143   0.5685352   0.0000000), wk =   0.0952381
        k(   20) = (   0.2857143   0.7106690   0.0000000), wk =   0.0952381
        k(   21) = (   0.2857143  -0.8528028   0.0000000), wk =   0.0476190
        k(   22) = (   0.4285714   0.0000000   0.0000000), wk =   0.0476190
        k(   23) = (   0.4285714   0.1421338   0.0000000), wk =   0.0952381
        k(   24) = (   0.4285714   0.2842676   0.0000000), wk =   0.0952381
        k(   25) = (   0.4285714   0.4264014   0.0000000), wk =   0.0952381
        k(   26) = (   0.4285714   0.5685352   0.0000000), wk =   0.0952381
        k(   27) = (   0.4285714   0.7106690   0.0000000), wk =   0.0952381
        k(   28) = (   0.4285714  -0.8528028   0.0000000), wk =   0.0476190

                       cryst. coord.
        k(    1) = (   0.0000000   0.0000000   0.0000000), wk =   0.0238095
        k(    2) = (   0.0000000   0.0833333   0.0000000), wk =   0.0476190
        k(    3) = (   0.0000000   0.1666667   0.0000000), wk =   0.0476190
        k(    4) = (   0.0000000   0.2500000   0.0000000), wk =   0.0476190
        k(    5) = (   0.0000000   0.3333333   0.0000000), wk =   0.0476190
        k(    6) = (   0.0000000   0.4166667   0.0000000), wk =   0.0476190
        k(    7) = (   0.0000000  -0.5000000   0.0000000), wk =   0.0238095
        k(    8) = (   0.1428571   0.0000000   0.0000000), wk =   0.0476190
        k(    9) = (   0.1428571   0.0833333   0.0000000), wk =   0.0952381
        k(   10) = (   0.1428571   0.1666667   0.0000000), wk =   0.0952381
        k(   11) = (   0.1428571   0.2500000   0.0000000), wk =   0.0952381
        k(   12) = (   0.1428571   0.3333333   0.0000000), wk =   0.0952381
        k(   13) = (   0.1428571   0.4166667   0.0000000), wk =   0.0952381
        k(   14) = (   0.1428571  -0.5000000   0.0000000), wk =   0.0476190
        k(   15) = (   0.2857143   0.0000000   0.0000000), wk =   0.0476190
        k(   16) = (   0.2857143   0.0833333   0.0000000), wk =   0.0952381
        k(   17) = (   0.2857143   0.1666667   0.0000000), wk =   0.0952381
        k(   18) = (   0.2857143   0.2500000   0.0000000), wk =   0.0952381
        k(   19) = (   0.2857143   0.3333333   0.0000000), wk =   0.0952381
        k(   20) = (   0.2857143   0.4166667   0.0000000), wk =   0.0952381
        k(   21) = (   0.2857143  -0.5000000   0.0000000), wk =   0.0476190
        k(   22) = (   0.4285714   0.0000000   0.0000000), wk =   0.0476190
        k(   23) = (   0.4285714   0.0833333   0.0000000), wk =   0.0952381
        k(   24) = (   0.4285714   0.1666667   0.0000000), wk =   0.0952381
        k(   25) = (   0.4285714   0.2500000   0.0000000), wk =   0.0952381
        k(   26) = (   0.4285714   0.3333333   0.0000000), wk =   0.0952381
        k(   27) = (   0.4285714   0.4166667   0.0000000), wk =   0.0952381
        k(   28) = (   0.4285714  -0.5000000   0.0000000), wk =   0.0476190

     Dense  grid:  7904519 G-vectors     FFT dimensions: ( 180, 100, 960)

     Smooth grid:  1999739 G-vectors     FFT dimensions: ( 108,  64, 600)

     Dynamical RAM for                 wfc:       1.72 MB

     Dynamical RAM for     wfc (w. buffer):      25.74 MB

     Dynamical RAM for           str. fact:       0.55 MB

     Dynamical RAM for           local pot:       0.00 MB

     Dynamical RAM for          nlocal pot:       6.10 MB

     Dynamical RAM for                qrad:       0.65 MB

     Dynamical RAM for          rho,v,vnew:       3.70 MB

     Dynamical RAM for               rhoin:       1.23 MB

     Dynamical RAM for            rho*nmix:       8.77 MB

     Dynamical RAM for           G-vectors:       2.12 MB

     Dynamical RAM for          h,s,v(r/c):       7.18 MB

     Dynamical RAM for          <psi|beta>:       0.53 MB

     Dynamical RAM for                 psi:       6.86 MB

     Dynamical RAM for                hpsi:       6.86 MB

     Dynamical RAM for                spsi:       6.86 MB

     Dynamical RAM for      wfcinit/wfcrot:       3.66 MB

     Dynamical RAM for           addusdens:      24.12 MB

     Dynamical RAM for          addusforce:      47.73 MB

     Estimated static dynamical RAM per process >      44.63 MB

     Estimated max dynamical RAM per process >     120.61 MB

     Estimated total dynamical RAM >      41.57 GB

     Initial potential from superposition of free atoms

     starting charge     131.7972, renormalised to     132.0000

     negative rho (up, down):  3.224E-03 0.000E+00
     Starting wfcs are random
     Checking if some PAW data can be deallocated... 

     total cpu time spent up to now is       11.9 secs

     per-process dynamical memory:   155.9 Mb

     Self-consistent Calculation

     iteration #  1     ecut=    80.00 Ry     beta= 0.20
     Davidson diagonalization with overlap

---- Real-time Memory Report at c_bands before calling an iterative solver
           623 MiB given to the printing process from OS
           152 MiB allocation reported by mallinfo(arena+hblkhd)
        171545 MiB available memory on the node where the printing process lives
------------------
     c_bands:  1 eigenvalues not converged
     c_bands:  1 eigenvalues not converged
     c_bands:  1 eigenvalues not converged
     ethr =  1.00E-12,  avg # of iterations =126.7

     negative rho (up, down):  2.441E-03 0.000E+00

     total cpu time spent up to now is      175.2 secs

     total energy              =    -661.40679032 Ry
     estimated scf accuracy    <       0.11929919 Ry

     total charge of GC-SCF    =       0.09734592 e
     the Fermi energy          =      -4.09745334 eV
                        (error :       0.30654666 eV)
     electrostatic embedding   =       0.00000000 Ry
     cavitation energy         =       0.02637035 Ry
     electrolyte free energy   =       0.00890302 Ry
     correction to one-el term =       0.00000000 Ry

     iteration #  2     ecut=    80.00 Ry     beta= 0.20
     Davidson diagonalization with overlap

---- Real-time Memory Report at c_bands before calling an iterative solver
           623 MiB given to the printing process from OS
           194 MiB allocation reported by mallinfo(arena+hblkhd)
        169568 MiB available memory on the node where the printing process lives
------------------
     ethr =  1.00E-05,  avg # of iterations = 11.9

     negative rho (up, down):  1.910E-03 0.000E+00

     add environment contribution to local potential

     total cpu time spent up to now is      199.3 secs

     total energy              =    -661.79897009 Ry
     estimated scf accuracy    <       0.07437333 Ry

     total charge of GC-SCF    =       0.15895315 e
     the Fermi energy          =      -3.27301094 eV
                        (error :       1.13098906 eV)
     electrostatic embedding   =       0.00097580 Ry
     cavitation energy         =       0.02637035 Ry
     electrolyte free energy   =       0.00890302 Ry
     correction to one-el term =       0.00000000 Ry

     iteration #  3     ecut=    80.00 Ry     beta= 0.20
     Davidson diagonalization with overlap

---- Real-time Memory Report at c_bands before calling an iterative solver
           623 MiB given to the printing process from OS
           194 MiB allocation reported by mallinfo(arena+hblkhd)
        169549 MiB available memory on the node where the printing process lives
------------------
     ethr =  1.00E-05,  avg # of iterations = 27.8

     negative rho (up, down):  1.483E-03 0.000E+00

     add environment contribution to local potential

     total cpu time spent up to now is      237.1 secs

     total energy              =    -661.70425463 Ry
     estimated scf accuracy    <       0.03391086 Ry

     total charge of GC-SCF    =       0.28778109 e
     the Fermi energy          =      -3.06554508 eV
                        (error :       1.33845492 eV)
     electrostatic embedding   =      -0.02279277 Ry
     cavitation energy         =       0.02637035 Ry
     electrolyte free energy   =      -0.00479685 Ry
     correction to one-el term =      -3.99986982 Ry

     iteration #  4     ecut=    80.00 Ry     beta= 0.20
     Davidson diagonalization with overlap

---- Real-time Memory Report at c_bands before calling an iterative solver
           623 MiB given to the printing process from OS
           194 MiB allocation reported by mallinfo(arena+hblkhd)
        169543 MiB available memory on the node where the printing process lives
------------------
     ethr =  1.00E-05,  avg # of iterations = 16.1

     negative rho (up, down):  1.189E-03 0.000E+00

     add environment contribution to local potential

     total cpu time spent up to now is      266.7 secs

     total energy              =    -661.73918092 Ry
     estimated scf accuracy    <       0.02201676 Ry

     total charge of GC-SCF    =       0.38717244 e
     the Fermi energy          =      -3.54070730 eV
                        (error :       0.86329270 eV)
     electrostatic embedding   =      -0.01920512 Ry
     cavitation energy         =       0.02637035 Ry
     electrolyte free energy   =      -0.00686625 Ry
     correction to one-el term =      -5.80419123 Ry

     iteration #  5     ecut=    80.00 Ry     beta= 0.20
     Davidson diagonalization with overlap

---- Real-time Memory Report at c_bands before calling an iterative solver
           623 MiB given to the printing process from OS
           194 MiB allocation reported by mallinfo(arena+hblkhd)
        169537 MiB available memory on the node where the printing process lives
------------------
     ethr =  1.00E-05,  avg # of iterations = 14.5

     negative rho (up, down):  9.439E-04 0.000E+00

     add environment contribution to local potential

     total cpu time spent up to now is      291.8 secs

     total energy              =    -661.62273827 Ry
     estimated scf accuracy    <       0.01394649 Ry

     total charge of GC-SCF    =       0.87810216 e
     the Fermi energy          =      -3.36309303 eV
                        (error :       1.04090697 eV)
     electrostatic embedding   =      -0.02279342 Ry
     cavitation energy         =       0.02637035 Ry
     electrolyte free energy   =      -0.00595757 Ry
     correction to one-el term =      -8.55690208 Ry

     iteration #  6     ecut=    80.00 Ry     beta= 0.20
     Davidson diagonalization with overlap

---- Real-time Memory Report at c_bands before calling an iterative solver
           623 MiB given to the printing process from OS
           194 MiB allocation reported by mallinfo(arena+hblkhd)
        169493 MiB available memory on the node where the printing process lives
------------------
     ethr =  1.00E-05,  avg # of iterations = 17.1

     negative rho (up, down):  8.094E-04 0.000E+00

     add environment contribution to local potential

     total cpu time spent up to now is      321.5 secs

     total energy              =    -661.69707326 Ry
     estimated scf accuracy    <       0.00387589 Ry

     total charge of GC-SCF    =       1.49299588 e
     the Fermi energy          =      -3.15713777 eV
                        (error :       1.24686223 eV)
     electrostatic embedding   =      -0.08794832 Ry
     cavitation energy         =       0.02637035 Ry
     electrolyte free energy   =      -0.00524899 Ry
     correction to one-el term =     -21.58865550 Ry

     iteration #  7     ecut=    80.00 Ry     beta= 0.20
     Davidson diagonalization with overlap

---- Real-time Memory Report at c_bands before calling an iterative solver
           623 MiB given to the printing process from OS
           194 MiB allocation reported by mallinfo(arena+hblkhd)
        169534 MiB available memory on the node where the printing process lives
------------------
     ethr =  2.97E-06,  avg # of iterations = 25.7

     negative rho (up, down):  7.300E-04 0.000E+00

     add environment contribution to local potential

     total cpu time spent up to now is      361.1 secs

     total energy              =    -661.77309314 Ry
     estimated scf accuracy    <       0.02728414 Ry

     total charge of GC-SCF    =       1.76775837 e
     the Fermi energy          =      -3.85055997 eV
                        (error :       0.55344003 eV)
     electrostatic embedding   =      -0.24743229 Ry
     cavitation energy         =       0.02637035 Ry
     electrolyte free energy   =      -0.01072149 Ry
     correction to one-el term =     -37.54154751 Ry

     iteration #  8     ecut=    80.00 Ry     beta= 0.20
     Davidson diagonalization with overlap

---- Real-time Memory Report at c_bands before calling an iterative solver
           623 MiB given to the printing process from OS
           194 MiB allocation reported by mallinfo(arena+hblkhd)
        169530 MiB available memory on the node where the printing process lives
------------------
     ethr =  2.97E-06,  avg # of iterations = 11.0

     negative rho (up, down):  6.117E-04 0.000E+00

     add environment contribution to local potential

     total cpu time spent up to now is      385.4 secs

     total energy              =    -661.97801527 Ry
     estimated scf accuracy    <       0.00871199 Ry

     total charge of GC-SCF    =       1.60816349 e
     the Fermi energy          =      -3.71332525 eV
                        (error :       0.69067475 eV)
     electrostatic embedding   =      -0.36889126 Ry
     cavitation energy         =       0.02637035 Ry
     electrolyte free energy   =      -0.01248246 Ry
     correction to one-el term =     -45.84780720 Ry

     iteration #  9     ecut=    80.00 Ry     beta= 0.20
     Davidson diagonalization with overlap

---- Real-time Memory Report at c_bands before calling an iterative solver
           623 MiB given to the printing process from OS
           194 MiB allocation reported by mallinfo(arena+hblkhd)
        169524 MiB available memory on the node where the printing process lives
------------------
     ethr =  2.97E-06,  avg # of iterations =  6.8

     negative rho (up, down):  1.572E-03 0.000E+00

     add environment contribution to local potential

     total cpu time spent up to now is      403.4 secs

     total energy              =    -662.31853593 Ry
     estimated scf accuracy    <       0.01275080 Ry

     total charge of GC-SCF    =       0.86399282 e
     the Fermi energy          =      -3.70784458 eV
                        (error :       0.69615542 eV)
     electrostatic embedding   =      -0.29826610 Ry
     cavitation energy         =       0.02637035 Ry
     electrolyte free energy   =      -0.01119530 Ry
     correction to one-el term =     -41.15604231 Ry

     iteration # 10     ecut=    80.00 Ry     beta= 0.20
     Davidson diagonalization with overlap

---- Real-time Memory Report at c_bands before calling an iterative solver
           623 MiB given to the printing process from OS
           194 MiB allocation reported by mallinfo(arena+hblkhd)
        169523 MiB available memory on the node where the printing process lives
------------------
     ethr =  2.97E-06,  avg # of iterations = 12.9

     negative rho (up, down):  5.612E-04 0.000E+00

     add environment contribution to local potential

     total cpu time spent up to now is      432.8 secs

     total energy              =    -661.40072414 Ry
     estimated scf accuracy    <       0.04438812 Ry

     total charge of GC-SCF    =       1.93660374 e
     the Fermi energy          =      -3.71670948 eV
                        (error :       0.68729052 eV)
     electrostatic embedding   =      -0.07404564 Ry
     cavitation energy         =       0.02637035 Ry
     electrolyte free energy   =      -0.00683561 Ry
     correction to one-el term =     -17.53649121 Ry

     iteration # 11     ecut=    80.00 Ry     beta= 0.20
     Davidson diagonalization with overlap

---- Real-time Memory Report at c_bands before calling an iterative solver
           623 MiB given to the printing process from OS
           194 MiB allocation reported by mallinfo(arena+hblkhd)
        169521 MiB available memory on the node where the printing process lives
------------------
     ethr =  2.97E-06,  avg # of iterations = 18.6

     negative rho (up, down):  8.482E-03 0.000E+00

     add environment contribution to local potential

     total cpu time spent up to now is      465.2 secs

     total energy              =    -661.79497593 Ry
     estimated scf accuracy    <       0.00148803 Ry

     total charge of GC-SCF    =       2.83795585 e
     the Fermi energy          =      -3.61899466 eV
                        (error :       0.78500534 eV)
     electrostatic embedding   =      -0.46126104 Ry
     cavitation energy         =       0.02637035 Ry
     electrolyte free energy   =      -0.01442299 Ry
     correction to one-el term =     -52.51573578 Ry

     iteration # 12     ecut=    80.00 Ry     beta= 0.20
     Davidson diagonalization with overlap

---- Real-time Memory Report at c_bands before calling an iterative solver
           623 MiB given to the printing process from OS
           194 MiB allocation reported by mallinfo(arena+hblkhd)
        169519 MiB available memory on the node where the printing process lives
------------------
     ethr =  1.15E-06,  avg # of iterations = 28.1

     negative rho (up, down):  1.873E-02 0.000E+00

     add environment contribution to local potential

     total cpu time spent up to now is      505.0 secs

     total energy              =    -661.90071759 Ry
     estimated scf accuracy    <       0.00061312 Ry

     total charge of GC-SCF    =       3.12776366 e
     the Fermi energy          =      -4.16183933 eV
                        (error :       0.24216067 eV)
     electrostatic embedding   =      -1.04689681 Ry
     cavitation energy         =       0.02637035 Ry
     electrolyte free energy   =      -0.02708309 Ry
     correction to one-el term =     -79.09818649 Ry

     iteration # 13     ecut=    80.00 Ry     beta= 0.20
     Davidson diagonalization with overlap

---- Real-time Memory Report at c_bands before calling an iterative solver
           623 MiB given to the printing process from OS
           194 MiB allocation reported by mallinfo(arena+hblkhd)
        169517 MiB available memory on the node where the printing process lives
------------------
     ethr =  4.76E-07,  avg # of iterations = 19.3

     negative rho (up, down):  3.894E-03 0.000E+00

     add environment contribution to local potential

     total cpu time spent up to now is      541.4 secs

     total energy              =    -661.91180878 Ry
     estimated scf accuracy    <       0.00030667 Ry

     total charge of GC-SCF    =       3.24562450 e
     the Fermi energy          =      -4.28953687 eV
                        (error :       0.11446313 eV)
     electrostatic embedding   =      -1.29185637 Ry
     cavitation energy         =       0.02637035 Ry
     electrolyte free energy   =      -0.03203075 Ry
     correction to one-el term =     -87.54847970 Ry

     iteration # 14     ecut=    80.00 Ry     beta= 0.20
     Davidson diagonalization with overlap

---- Real-time Memory Report at c_bands before calling an iterative solver
           623 MiB given to the printing process from OS
           194 MiB allocation reported by mallinfo(arena+hblkhd)
        169515 MiB available memory on the node where the printing process lives
------------------
     ethr =  2.38E-07,  avg # of iterations = 17.1

     negative rho (up, down):  3.557E-03 0.000E+00

     add environment contribution to local potential

     total cpu time spent up to now is      574.3 secs

     total energy              =    -661.91353215 Ry
     estimated scf accuracy    <       0.00014414 Ry

     total charge of GC-SCF    =       3.25437776 e
     the Fermi energy          =      -4.38992367 eV
                        (error :       0.01407633 eV)
     electrostatic embedding   =      -1.40703844 Ry
     cavitation energy         =       0.02637035 Ry
     electrolyte free energy   =      -0.03435694 Ry
     correction to one-el term =     -91.46935731 Ry

     iteration # 15     ecut=    80.00 Ry     beta= 0.20
     Davidson diagonalization with overlap

---- Real-time Memory Report at c_bands before calling an iterative solver
           623 MiB given to the printing process from OS
           194 MiB allocation reported by mallinfo(arena+hblkhd)
        169505 MiB available memory on the node where the printing process lives
------------------
     ethr =  1.12E-07,  avg # of iterations = 11.0

     negative rho (up, down):  2.855E-03 0.000E+00

     add environment contribution to local potential

     total cpu time spent up to now is      599.5 secs

     total energy              =    -661.91368646 Ry
     estimated scf accuracy    <       0.00005984 Ry

     total charge of GC-SCF    =       3.21916138 e
     the Fermi energy          =      -4.40374380 eV
                        (error :       0.00025620 eV)
     electrostatic embedding   =      -1.42102537 Ry
     cavitation energy         =       0.02637035 Ry
     electrolyte free energy   =      -0.03458501 Ry
     correction to one-el term =     -92.06475835 Ry

     iteration # 16     ecut=    80.00 Ry     beta= 0.20
     Davidson diagonalization with overlap

---- Real-time Memory Report at c_bands before calling an iterative solver
           623 MiB given to the printing process from OS
           194 MiB allocation reported by mallinfo(arena+hblkhd)
        169513 MiB available memory on the node where the printing process lives
------------------
     ethr =  4.65E-08,  avg # of iterations = 13.1

     negative rho (up, down):  5.247E-04 0.000E+00

     add environment contribution to local potential

     total cpu time spent up to now is      627.7 secs

     total energy              =    -661.91369233 Ry
     estimated scf accuracy    <       0.00004903 Ry

     total charge of GC-SCF    =       3.26053504 e
     the Fermi energy          =      -4.38562686 eV
                        (error :       0.01837314 eV)
     electrostatic embedding   =      -1.39064282 Ry
     cavitation energy         =       0.02637035 Ry
     electrolyte free energy   =      -0.03393496 Ry
     correction to one-el term =     -91.19683677 Ry

     iteration # 17     ecut=    80.00 Ry     beta= 0.20
     Davidson diagonalization with overlap

---- Real-time Memory Report at c_bands before calling an iterative solver
           623 MiB given to the printing process from OS
           194 MiB allocation reported by mallinfo(arena+hblkhd)
        169514 MiB available memory on the node where the printing process lives
------------------
     ethr =  3.81E-08,  avg # of iterations = 13.4

     negative rho (up, down):  8.380E-04 0.000E+00

     add environment contribution to local potential

     total cpu time spent up to now is      657.3 secs

     total energy              =    -661.91353998 Ry
     estimated scf accuracy    <       0.00002322 Ry

     total charge of GC-SCF    =       3.20554050 e
     the Fermi energy          =      -4.41751302 eV
                        (error :       0.01351302 eV)
     electrostatic embedding   =      -1.42523908 Ry
     cavitation energy         =       0.02637035 Ry
     electrolyte free energy   =      -0.03470995 Ry
     correction to one-el term =     -92.23645172 Ry

     iteration # 18     ecut=    80.00 Ry     beta= 0.20
     Davidson diagonalization with overlap

---- Real-time Memory Report at c_bands before calling an iterative solver
           623 MiB given to the printing process from OS
           194 MiB allocation reported by mallinfo(arena+hblkhd)
        169511 MiB available memory on the node where the printing process lives
------------------
     ethr =  1.80E-08,  avg # of iterations = 24.6

     negative rho (up, down):  7.505E-04 0.000E+00

     add environment contribution to local potential

     total cpu time spent up to now is      695.6 secs

     total energy              =    -661.91364921 Ry
     estimated scf accuracy    <       0.00001127 Ry

     total charge of GC-SCF    =       3.22401545 e
     the Fermi energy          =      -4.38872999 eV
                        (error :       0.01527001 eV)
     electrostatic embedding   =      -1.37341529 Ry
     cavitation energy         =       0.02637035 Ry
     electrolyte free energy   =      -0.03365577 Ry
     correction to one-el term =     -90.60377327 Ry

     iteration # 19     ecut=    80.00 Ry     beta= 0.20
     Davidson diagonalization with overlap

---- Real-time Memory Report at c_bands before calling an iterative solver
           623 MiB given to the printing process from OS
           194 MiB allocation reported by mallinfo(arena+hblkhd)
        169505 MiB available memory on the node where the printing process lives
------------------
     ethr =  8.75E-09,  avg # of iterations = 14.8

     negative rho (up, down):  4.827E-04 0.000E+00

     add environment contribution to local potential

     total cpu time spent up to now is      725.9 secs

     total energy              =    -661.91363327 Ry
     estimated scf accuracy    <       0.00000766 Ry

     total charge of GC-SCF    =       3.22514494 e
     the Fermi energy          =      -4.39643374 eV
                        (error :       0.00756626 eV)
     electrostatic embedding   =      -1.38977114 Ry
     cavitation energy         =       0.02637035 Ry
     electrolyte free energy   =      -0.03399447 Ry
     correction to one-el term =     -91.07309859 Ry

     iteration # 20     ecut=    80.00 Ry     beta= 0.20
     Davidson diagonalization with overlap

---- Real-time Memory Report at c_bands before calling an iterative solver
           623 MiB given to the printing process from OS
           194 MiB allocation reported by mallinfo(arena+hblkhd)
        169509 MiB available memory on the node where the printing process lives
------------------
     ethr =  5.94E-09,  avg # of iterations = 14.4

     negative rho (up, down):  5.464E-04 0.000E+00

     add environment contribution to local potential

     total cpu time spent up to now is      756.4 secs

     total energy              =    -661.91365623 Ry
     estimated scf accuracy    <       0.00000423 Ry

     total charge of GC-SCF    =       3.23289195 e
     the Fermi energy          =      -4.39620269 eV
                        (error :       0.00779731 eV)
     electrostatic embedding   =      -1.39035554 Ry
     cavitation energy         =       0.02637035 Ry
     electrolyte free energy   =      -0.03400474 Ry
     correction to one-el term =     -91.04020599 Ry

     iteration # 21     ecut=    80.00 Ry     beta= 0.20
     Davidson diagonalization with overlap

---- Real-time Memory Report at c_bands before calling an iterative solver
           623 MiB given to the printing process from OS
           194 MiB allocation reported by mallinfo(arena+hblkhd)
        169510 MiB available memory on the node where the printing process lives
------------------
     ethr =  3.28E-09,  avg # of iterations = 12.6

     negative rho (up, down):  5.145E-04 0.000E+00

     add environment contribution to local potential

     total cpu time spent up to now is      785.2 secs

     total energy              =    -661.91356570 Ry
     estimated scf accuracy    <       0.00000146 Ry

     total charge of GC-SCF    =       3.23459678 e
     the Fermi energy          =      -4.40356767 eV
                        (error :       0.00043233 eV)
     electrostatic embedding   =      -1.39812708 Ry
     cavitation energy         =       0.02637035 Ry
     electrolyte free energy   =      -0.03416231 Ry
     correction to one-el term =     -91.32543667 Ry

     iteration # 22     ecut=    80.00 Ry     beta= 0.20
     Davidson diagonalization with overlap

---- Real-time Memory Report at c_bands before calling an iterative solver
           623 MiB given to the printing process from OS
           194 MiB allocation reported by mallinfo(arena+hblkhd)
        169503 MiB available memory on the node where the printing process lives
------------------
     ethr =  1.13E-09,  avg # of iterations = 12.2

     negative rho (up, down):  4.737E-04 0.000E+00

     add environment contribution to local potential

     total cpu time spent up to now is      811.5 secs

     total energy              =    -661.91356148 Ry
     estimated scf accuracy    <       0.00000080 Ry

     total charge of GC-SCF    =       3.23075804 e
     the Fermi energy          =      -4.40322181 eV
                        (error :       0.00077819 eV)
     electrostatic embedding   =      -1.40019389 Ry
     cavitation energy         =       0.02637035 Ry
     electrolyte free energy   =      -0.03419796 Ry
     correction to one-el term =     -91.40097035 Ry

     iteration # 23     ecut=    80.00 Ry     beta= 0.20
     Davidson diagonalization with overlap

---- Real-time Memory Report at c_bands before calling an iterative solver
           623 MiB given to the printing process from OS
           194 MiB allocation reported by mallinfo(arena+hblkhd)
        169498 MiB available memory on the node where the printing process lives
------------------
     ethr =  6.18E-10,  avg # of iterations = 12.6

     negative rho (up, down):  4.499E-04 0.000E+00

     add environment contribution to local potential

     total cpu time spent up to now is      839.6 secs

     total energy              =    -661.91360932 Ry
     estimated scf accuracy    <       0.00000053 Ry

     total charge of GC-SCF    =       3.23096991 e
     the Fermi energy          =      -4.39914186 eV
                        (error :       0.00485814 eV)
     electrostatic embedding   =      -1.39683627 Ry
     cavitation energy         =       0.02637035 Ry
     electrolyte free energy   =      -0.03412344 Ry
     correction to one-el term =     -91.28875688 Ry

     iteration # 24     ecut=    80.00 Ry     beta= 0.20
     Davidson diagonalization with overlap

---- Real-time Memory Report at c_bands before calling an iterative solver
           623 MiB given to the printing process from OS
           194 MiB allocation reported by mallinfo(arena+hblkhd)
        169504 MiB available memory on the node where the printing process lives
------------------
     ethr =  4.13E-10,  avg # of iterations = 10.0

     negative rho (up, down):  4.216E-04 0.000E+00

     add environment contribution to local potential

     total cpu time spent up to now is      861.9 secs

     total energy              =    -661.91360076 Ry
     estimated scf accuracy    <       0.00000041 Ry

     total charge of GC-SCF    =       3.23629134 e
     the Fermi energy          =      -4.39941454 eV
                        (error :       0.00458546 eV)
     electrostatic embedding   =      -1.39713031 Ry
     cavitation energy         =       0.02637035 Ry
     electrolyte free energy   =      -0.03412846 Ry
     correction to one-el term =     -91.30050075 Ry

     iteration # 25     ecut=    80.00 Ry     beta= 0.20
     Davidson diagonalization with overlap

---- Real-time Memory Report at c_bands before calling an iterative solver
           623 MiB given to the printing process from OS
           194 MiB allocation reported by mallinfo(arena+hblkhd)
        169504 MiB available memory on the node where the printing process lives
------------------
     ethr =  3.21E-10,  avg # of iterations = 12.5

     negative rho (up, down):  4.350E-04 0.000E+00

     add environment contribution to local potential

     total cpu time spent up to now is      891.3 secs

     total energy              =    -661.91356769 Ry
     estimated scf accuracy    <       0.00000012 Ry

     total charge of GC-SCF    =       3.23922718 e
     the Fermi energy          =      -4.40195580 eV
                        (error :       0.00204420 eV)
     electrostatic embedding   =      -1.40213250 Ry
     cavitation energy         =       0.02637035 Ry
     electrolyte free energy   =      -0.03423082 Ry
     correction to one-el term =     -91.45803679 Ry

     iteration # 26     ecut=    80.00 Ry     beta= 0.20
     Davidson diagonalization with overlap

---- Real-time Memory Report at c_bands before calling an iterative solver
           623 MiB given to the printing process from OS
           194 MiB allocation reported by mallinfo(arena+hblkhd)
        169484 MiB available memory on the node where the printing process lives
------------------
     c_bands:  1 eigenvalues not converged
     ethr =  9.65E-11,  avg # of iterations = 27.0

     negative rho (up, down):  4.625E-04 0.000E+00

     add environment contribution to local potential

     total cpu time spent up to now is      932.3 secs

     total energy              =    -661.91354606 Ry
     estimated scf accuracy    <       0.00000007 Ry

     total charge of GC-SCF    =       3.24072412 e
     the Fermi energy          =      -4.40354669 eV
                        (error :       0.00045331 eV)
     electrostatic embedding   =      -1.40475117 Ry
     cavitation energy         =       0.02637035 Ry
     electrolyte free energy   =      -0.03428636 Ry
     correction to one-el term =     -91.53808819 Ry

     iteration # 27     ecut=    80.00 Ry     beta= 0.20
     Davidson diagonalization with overlap

---- Real-time Memory Report at c_bands before calling an iterative solver
           623 MiB given to the printing process from OS
           194 MiB allocation reported by mallinfo(arena+hblkhd)
        169477 MiB available memory on the node where the printing process lives
------------------
     c_bands:  1 eigenvalues not converged
     ethr =  5.57E-11,  avg # of iterations = 23.4

     negative rho (up, down):  4.602E-04 0.000E+00

     add environment contribution to local potential

     total cpu time spent up to now is      968.3 secs

     total energy              =    -661.91353170 Ry
     estimated scf accuracy    <       0.00000003 Ry

     total charge of GC-SCF    =       3.24001276 e
     the Fermi energy          =      -4.40456553 eV
                        (error :       0.00056553 eV)
     electrostatic embedding   =      -1.40596003 Ry
     cavitation energy         =       0.02637035 Ry
     electrolyte free energy   =      -0.03431415 Ry
     correction to one-el term =     -91.57436405 Ry

     iteration # 28     ecut=    80.00 Ry     beta= 0.20
     Davidson diagonalization with overlap

---- Real-time Memory Report at c_bands before calling an iterative solver
           623 MiB given to the printing process from OS
           194 MiB allocation reported by mallinfo(arena+hblkhd)
        169474 MiB available memory on the node where the printing process lives
------------------
     ethr =  2.19E-11,  avg # of iterations = 11.5

     negative rho (up, down):  4.573E-04 0.000E+00

     add environment contribution to local potential

     total cpu time spent up to now is      995.0 secs

     total energy              =    -661.91353861 Ry
     estimated scf accuracy    <       0.00000002 Ry

     total charge of GC-SCF    =       3.24130639 e
     the Fermi energy          =      -4.40410003 eV
                        (error :       0.00010003 eV)
     electrostatic embedding   =      -1.40529319 Ry
     cavitation energy         =       0.02637035 Ry
     electrolyte free energy   =      -0.03430027 Ry
     correction to one-el term =     -91.55253929 Ry

     iteration # 29     ecut=    80.00 Ry     beta= 0.20
     Davidson diagonalization with overlap

---- Real-time Memory Report at c_bands before calling an iterative solver
           623 MiB given to the printing process from OS
           194 MiB allocation reported by mallinfo(arena+hblkhd)
        169481 MiB available memory on the node where the printing process lives
------------------
     ethr =  1.57E-11,  avg # of iterations = 12.9

     negative rho (up, down):  4.487E-04 0.000E+00

     add environment contribution to local potential

     total cpu time spent up to now is     1024.5 secs

     total energy              =    -661.91352774 Ry
     estimated scf accuracy    <       0.00000002 Ry

     total charge of GC-SCF    =       3.24016841 e
     the Fermi energy          =      -4.40479175 eV
                        (error :       0.00079175 eV)
     electrostatic embedding   =      -1.40650780 Ry
     cavitation energy         =       0.02637035 Ry
     electrolyte free energy   =      -0.03432521 Ry
     correction to one-el term =     -91.59067185 Ry

     iteration # 30     ecut=    80.00 Ry     beta= 0.20
     Davidson diagonalization with overlap

---- Real-time Memory Report at c_bands before calling an iterative solver
           623 MiB given to the printing process from OS
           194 MiB allocation reported by mallinfo(arena+hblkhd)
        169481 MiB available memory on the node where the printing process lives
------------------
     ethr =  1.17E-11,  avg # of iterations = 14.0

     negative rho (up, down):  4.492E-04 0.000E+00

     add environment contribution to local potential

     total cpu time spent up to now is     1053.7 secs

     total energy              =    -661.91353795 Ry
     estimated scf accuracy    <          7.7E-09 Ry

     total charge of GC-SCF    =       3.24102156 e
     the Fermi energy          =      -4.40415993 eV
                        (error :       0.00015993 eV)
     electrostatic embedding   =      -1.40547188 Ry
     cavitation energy         =       0.02637035 Ry
     electrolyte free energy   =      -0.03430329 Ry
     correction to one-el term =     -91.55726401 Ry

     iteration # 31     ecut=    80.00 Ry     beta= 0.20
     Davidson diagonalization with overlap

---- Real-time Memory Report at c_bands before calling an iterative solver
           623 MiB given to the printing process from OS
           194 MiB allocation reported by mallinfo(arena+hblkhd)
        169471 MiB available memory on the node where the printing process lives
------------------
     ethr =  5.97E-12,  avg # of iterations = 13.4

     negative rho (up, down):  4.440E-04 0.000E+00

     add environment contribution to local potential

     total cpu time spent up to now is     1082.5 secs

     total energy              =    -661.91353015 Ry
     estimated scf accuracy    <          5.1E-09 Ry

     total charge of GC-SCF    =       3.23983898 e
     the Fermi energy          =      -4.40468593 eV
                        (error :       0.00068593 eV)
     electrostatic embedding   =      -1.40625517 Ry
     cavitation energy         =       0.02637035 Ry
     electrolyte free energy   =      -0.03431976 Ry
     correction to one-el term =     -91.58226777 Ry

     iteration # 32     ecut=    80.00 Ry     beta= 0.20
     Davidson diagonalization with overlap

---- Real-time Memory Report at c_bands before calling an iterative solver
           623 MiB given to the printing process from OS
           194 MiB allocation reported by mallinfo(arena+hblkhd)
        169472 MiB available memory on the node where the printing process lives
------------------
     ethr =  3.95E-12,  avg # of iterations = 30.0

     negative rho (up, down):  4.437E-04 0.000E+00

     add environment contribution to local potential

     total cpu time spent up to now is     1124.1 secs

     total energy              =    -661.91353943 Ry
     estimated scf accuracy    <          1.9E-09 Ry

     total charge of GC-SCF    =       3.23945148 e
     the Fermi energy          =      -4.40404621 eV
                        (error :       0.00004621 eV)
     electrostatic embedding   =      -1.40518415 Ry
     cavitation energy         =       0.02637035 Ry
     electrolyte free energy   =      -0.03429726 Ry
     correction to one-el term =     -91.54927496 Ry

     iteration # 33     ecut=    80.00 Ry     beta= 0.20
     Davidson diagonalization with overlap

---- Real-time Memory Report at c_bands before calling an iterative solver
           623 MiB given to the printing process from OS
           194 MiB allocation reported by mallinfo(arena+hblkhd)
        169472 MiB available memory on the node where the printing process lives
------------------
     ethr =  1.48E-12,  avg # of iterations = 14.1

     negative rho (up, down):  4.455E-04 0.000E+00

     add environment contribution to local potential

     total cpu time spent up to now is     1153.6 secs

     total energy              =    -661.91354202 Ry
     estimated scf accuracy    <          1.2E-09 Ry

     total charge of GC-SCF    =       3.23964609 e
     the Fermi energy          =      -4.40387347 eV
                        (error :       0.00012653 eV)
     electrostatic embedding   =      -1.40482498 Ry
     cavitation energy         =       0.02637035 Ry
     electrolyte free energy   =      -0.03428988 Ry
     correction to one-el term =     -91.53836167 Ry

     iteration # 34     ecut=    80.00 Ry     beta= 0.20
     Davidson diagonalization with overlap

---- Real-time Memory Report at c_bands before calling an iterative solver
           623 MiB given to the printing process from OS
           194 MiB allocation reported by mallinfo(arena+hblkhd)
        169467 MiB available memory on the node where the printing process lives
------------------
     ethr =  9.10E-13,  avg # of iterations = 12.6

     negative rho (up, down):  4.450E-04 0.000E+00

     add environment contribution to local potential

     total cpu time spent up to now is     1183.0 secs

     total energy              =    -661.91354027 Ry
     estimated scf accuracy    <          7.9E-10 Ry

     total charge of GC-SCF    =       3.23962657 e
     the Fermi energy          =      -4.40397679 eV
                        (error :       0.00002321 eV)
     electrostatic embedding   =      -1.40499865 Ry
     cavitation energy         =       0.02637035 Ry
     electrolyte free energy   =      -0.03429362 Ry
     correction to one-el term =     -91.54409099 Ry

     iteration # 35     ecut=    80.00 Ry     beta= 0.20
     Davidson diagonalization with overlap

---- Real-time Memory Report at c_bands before calling an iterative solver
           623 MiB given to the printing process from OS
           194 MiB allocation reported by mallinfo(arena+hblkhd)
        169467 MiB available memory on the node where the printing process lives
------------------
     ethr =  6.13E-13,  avg # of iterations = 12.6

     negative rho (up, down):  4.443E-04 0.000E+00

     add environment contribution to local potential

     total cpu time spent up to now is     1210.0 secs

     total energy              =    -661.91354030 Ry
     estimated scf accuracy    <          2.6E-10 Ry

     total charge of GC-SCF    =       3.23963569 e
     the Fermi energy          =      -4.40397542 eV
                        (error :       0.00002458 eV)
     electrostatic embedding   =      -1.40498094 Ry
     cavitation energy         =       0.02637035 Ry
     electrolyte free energy   =      -0.03429327 Ry
     correction to one-el term =     -91.54368564 Ry

     iteration # 36     ecut=    80.00 Ry     beta= 0.20
     Davidson diagonalization with overlap

---- Real-time Memory Report at c_bands before calling an iterative solver
           623 MiB given to the printing process from OS
           194 MiB allocation reported by mallinfo(arena+hblkhd)
        169460 MiB available memory on the node where the printing process lives
------------------
     ethr =  2.00E-13,  avg # of iterations = 13.9

     negative rho (up, down):  4.445E-04 0.000E+00

     add environment contribution to local potential

     total cpu time spent up to now is     1238.6 secs

     total energy              =    -661.91354050 Ry
     estimated scf accuracy    <          1.0E-10 Ry

     total charge of GC-SCF    =       3.23972135 e
     the Fermi energy          =      -4.40395590 eV
                        (error :       0.00004410 eV)
     electrostatic embedding   =      -1.40499040 Ry
     cavitation energy         =       0.02637035 Ry
     electrolyte free energy   =      -0.03429343 Ry
     correction to one-el term =     -91.54393501 Ry

     iteration # 37     ecut=    80.00 Ry     beta= 0.20
     Davidson diagonalization with overlap

---- Real-time Memory Report at c_bands before calling an iterative solver
           623 MiB given to the printing process from OS
           194 MiB allocation reported by mallinfo(arena+hblkhd)
        169467 MiB available memory on the node where the printing process lives
------------------
     ethr =  1.00E-13,  avg # of iterations = 15.5

     negative rho (up, down):  4.448E-04 0.000E+00

     add environment contribution to local potential

     total cpu time spent up to now is     1269.5 secs

     total energy              =    -661.91353978 Ry
     estimated scf accuracy    <          7.2E-11 Ry

     total charge of GC-SCF    =       3.23974276 e
     the Fermi energy          =      -4.40400643 eV
                        (error :       0.00000643 eV)
     electrostatic embedding   =      -1.40506768 Ry
     cavitation energy         =       0.02637035 Ry
     electrolyte free energy   =      -0.03429506 Ry
     correction to one-el term =     -91.54635007 Ry

     iteration # 38     ecut=    80.00 Ry     beta= 0.20
     Davidson diagonalization with overlap

---- Real-time Memory Report at c_bands before calling an iterative solver
           623 MiB given to the printing process from OS
           194 MiB allocation reported by mallinfo(arena+hblkhd)
        169461 MiB available memory on the node where the printing process lives
------------------
     ethr =  1.00E-13,  avg # of iterations = 14.5

     negative rho (up, down):  4.448E-04 0.000E+00

     add environment contribution to local potential

     total cpu time spent up to now is     1298.6 secs

     total energy              =    -661.91353962 Ry
     estimated scf accuracy    <          3.3E-11 Ry

     total charge of GC-SCF    =       3.23971358 e
     the Fermi energy          =      -4.40401740 eV
                        (error :       0.00001740 eV)
     electrostatic embedding   =      -1.40508484 Ry
     cavitation energy         =       0.02637035 Ry
     electrolyte free energy   =      -0.03429545 Ry
     correction to one-el term =     -91.54679850 Ry

     iteration # 39     ecut=    80.00 Ry     beta= 0.20
     Davidson diagonalization with overlap

---- Real-time Memory Report at c_bands before calling an iterative solver
           623 MiB given to the printing process from OS
           194 MiB allocation reported by mallinfo(arena+hblkhd)
        169465 MiB available memory on the node where the printing process lives
------------------
     ethr =  1.00E-13,  avg # of iterations = 11.5

     negative rho (up, down):  4.448E-04 0.000E+00

     add environment contribution to local potential

     total cpu time spent up to now is     1324.2 secs

     total energy              =    -661.91353987 Ry
     estimated scf accuracy    <          1.4E-11 Ry

     total charge of GC-SCF    =       3.23974877 e
     the Fermi energy          =      -4.40400167 eV
                        (error :       0.00000167 eV)
     electrostatic embedding   =      -1.40505687 Ry
     cavitation energy         =       0.02637035 Ry
     electrolyte free energy   =      -0.03429488 Ry
     correction to one-el term =     -91.54585599 Ry

     iteration # 40     ecut=    80.00 Ry     beta= 0.20
     Davidson diagonalization with overlap

---- Real-time Memory Report at c_bands before calling an iterative solver
           623 MiB given to the printing process from OS
           194 MiB allocation reported by mallinfo(arena+hblkhd)
        169466 MiB available memory on the node where the printing process lives
------------------
     ethr =  1.00E-13,  avg # of iterations = 11.8

     negative rho (up, down):  4.446E-04 0.000E+00

     add environment contribution to local potential

     total cpu time spent up to now is     1348.4 secs

     total energy              =    -661.91353955 Ry
     estimated scf accuracy    <          9.8E-12 Ry

     total charge of GC-SCF    =       3.23974203 e
     the Fermi energy          =      -4.40402474 eV
                        (error :       0.00002474 eV)
     electrostatic embedding   =      -1.40508880 Ry
     cavitation energy         =       0.02637035 Ry
     electrolyte free energy   =      -0.03429555 Ry
     correction to one-el term =     -91.54686442 Ry

     iteration # 41     ecut=    80.00 Ry     beta= 0.20
     Davidson diagonalization with overlap

---- Real-time Memory Report at c_bands before calling an iterative solver
           623 MiB given to the printing process from OS
           194 MiB allocation reported by mallinfo(arena+hblkhd)
        169462 MiB available memory on the node where the printing process lives
------------------
     ethr =  1.00E-13,  avg # of iterations = 10.0

     negative rho (up, down):  4.443E-04 0.000E+00

     add environment contribution to local potential

     total cpu time spent up to now is     1370.8 secs

     total energy              =    -661.91353963 Ry
     estimated scf accuracy    <          7.0E-12 Ry

     total charge of GC-SCF    =       3.23969997 e
     the Fermi energy          =      -4.40401832 eV
                        (error :       0.00001832 eV)
     electrostatic embedding   =      -1.40508333 Ry
     cavitation energy         =       0.02637035 Ry
     electrolyte free energy   =      -0.03429542 Ry
     correction to one-el term =     -91.54669768 Ry

     iteration # 42     ecut=    80.00 Ry     beta= 0.20
     Davidson diagonalization with overlap

---- Real-time Memory Report at c_bands before calling an iterative solver
           623 MiB given to the printing process from OS
           194 MiB allocation reported by mallinfo(arena+hblkhd)
        169456 MiB available memory on the node where the printing process lives
------------------
     ethr =  1.00E-13,  avg # of iterations = 13.5

     negative rho (up, down):  4.444E-04 0.000E+00

     add environment contribution to local potential

     total cpu time spent up to now is     1397.4 secs

     total energy              =    -661.91354002 Ry
     estimated scf accuracy    <          2.8E-12 Ry

     total charge of GC-SCF    =       3.23971550 e
     the Fermi energy          =      -4.40399056 eV
                        (error :       0.00000944 eV)
     electrostatic embedding   =      -1.40504583 Ry
     cavitation energy         =       0.02637035 Ry
     electrolyte free energy   =      -0.03429462 Ry
     correction to one-el term =     -91.54552158 Ry

     iteration # 43     ecut=    80.00 Ry     beta= 0.20
     Davidson diagonalization with overlap

---- Real-time Memory Report at c_bands before calling an iterative solver
           623 MiB given to the printing process from OS
           194 MiB allocation reported by mallinfo(arena+hblkhd)
        169457 MiB available memory on the node where the printing process lives
------------------
     ethr =  1.00E-13,  avg # of iterations =  9.4

     negative rho (up, down):  4.444E-04 0.000E+00

     add environment contribution to local potential

     total cpu time spent up to now is     1420.0 secs

     total energy              =    -661.91353986 Ry
     estimated scf accuracy    <          8.4E-13 Ry

     total charge of GC-SCF    =       3.23971623 e
     the Fermi energy          =      -4.40400244 eV
                        (error :       0.00000244 eV)
     electrostatic embedding   =      -1.40505948 Ry
     cavitation energy         =       0.02637035 Ry
     electrolyte free energy   =      -0.03429492 Ry
     correction to one-el term =     -91.54595698 Ry

     iteration # 44     ecut=    80.00 Ry     beta= 0.20
     Davidson diagonalization with overlap

---- Real-time Memory Report at c_bands before calling an iterative solver
           623 MiB given to the printing process from OS
           194 MiB allocation reported by mallinfo(arena+hblkhd)
        169457 MiB available memory on the node where the printing process lives
------------------
     ethr =  1.00E-13,  avg # of iterations =  5.0

     negative rho (up, down):  4.443E-04 0.000E+00

     add environment contribution to local potential

     total cpu time spent up to now is     1437.7 secs

     total energy              =    -661.91353985 Ry
     estimated scf accuracy    <          4.3E-13 Ry

     total charge of GC-SCF    =       3.23970906 e
     the Fermi energy          =      -4.40400309 eV
                        (error :       0.00000309 eV)
     electrostatic embedding   =      -1.40505996 Ry
     cavitation energy         =       0.02637035 Ry
     electrolyte free energy   =      -0.03429493 Ry
     correction to one-el term =     -91.54597322 Ry

     iteration # 45     ecut=    80.00 Ry     beta= 0.20
     Davidson diagonalization with overlap

---- Real-time Memory Report at c_bands before calling an iterative solver
           623 MiB given to the printing process from OS
           194 MiB allocation reported by mallinfo(arena+hblkhd)
        169457 MiB available memory on the node where the printing process lives
------------------
     ethr =  1.00E-13,  avg # of iterations =  3.0

     negative rho (up, down):  4.443E-04 0.000E+00

     add environment contribution to local potential

     total cpu time spent up to now is     1455.4 secs

     total energy              =    -661.91353991 Ry
     estimated scf accuracy    <          2.2E-13 Ry

     total charge of GC-SCF    =       3.23971152 e
     the Fermi energy          =      -4.40399923 eV
                        (error :       0.00000077 eV)
     electrostatic embedding   =      -1.40505337 Ry
     cavitation energy         =       0.02637035 Ry
     electrolyte free energy   =      -0.03429479 Ry
     correction to one-el term =     -91.54576556 Ry

     iteration # 46     ecut=    80.00 Ry     beta= 0.20
     Davidson diagonalization with overlap

---- Real-time Memory Report at c_bands before calling an iterative solver
           623 MiB given to the printing process from OS
           194 MiB allocation reported by mallinfo(arena+hblkhd)
        169445 MiB available memory on the node where the printing process lives
------------------
     ethr =  1.00E-13,  avg # of iterations =  2.4

     negative rho (up, down):  4.442E-04 0.000E+00

     add environment contribution to local potential

     total cpu time spent up to now is     1471.6 secs

     total energy              =    -661.91353989 Ry
     estimated scf accuracy    <          7.3E-14 Ry

     total charge of GC-SCF    =       3.23971122 e
     the Fermi energy          =      -4.40400014 eV
                        (error :       0.00000014 eV)
     electrostatic embedding   =      -1.40505570 Ry
     cavitation energy         =       0.02637035 Ry
     electrolyte free energy   =      -0.03429484 Ry
     correction to one-el term =     -91.54583955 Ry

     iteration # 47     ecut=    80.00 Ry     beta= 0.20
     Davidson diagonalization with overlap

---- Real-time Memory Report at c_bands before calling an iterative solver
           623 MiB given to the printing process from OS
           194 MiB allocation reported by mallinfo(arena+hblkhd)
        169454 MiB available memory on the node where the printing process lives
------------------
     ethr =  1.00E-13,  avg # of iterations =  1.0

     negative rho (up, down):  4.442E-04 0.000E+00

     add environment contribution to local potential

     total cpu time spent up to now is     1487.6 secs

     total energy              =    -661.91353989 Ry
     estimated scf accuracy    <          5.9E-14 Ry

     total charge of GC-SCF    =       3.23971170 e
     the Fermi energy          =      -4.40399999 eV
                        (error :       0.00000001 eV)
     electrostatic embedding   =      -1.40505541 Ry
     cavitation energy         =       0.02637035 Ry
     electrolyte free energy   =      -0.03429484 Ry
     correction to one-el term =     -91.54583078 Ry

     iteration # 48     ecut=    80.00 Ry     beta= 0.20
     Davidson diagonalization with overlap

---- Real-time Memory Report at c_bands before calling an iterative solver
           623 MiB given to the printing process from OS
           194 MiB allocation reported by mallinfo(arena+hblkhd)
        169434 MiB available memory on the node where the printing process lives
------------------
     ethr =  1.00E-13,  avg # of iterations =  2.2

     negative rho (up, down):  4.442E-04 0.000E+00

     add environment contribution to local potential

     total cpu time spent up to now is     1503.5 secs

     total energy              =    -661.91353989 Ry
     estimated scf accuracy    <          2.8E-14 Ry

     total charge of GC-SCF    =       3.23971027 e
     the Fermi energy          =      -4.40400039 eV
                        (error :       0.00000039 eV)
     electrostatic embedding   =      -1.40505583 Ry
     cavitation energy         =       0.02637035 Ry
     electrolyte free energy   =      -0.03429484 Ry
     correction to one-el term =     -91.54584419 Ry

     iteration # 49     ecut=    80.00 Ry     beta= 0.20
     Davidson diagonalization with overlap

---- Real-time Memory Report at c_bands before calling an iterative solver
           623 MiB given to the printing process from OS
           194 MiB allocation reported by mallinfo(arena+hblkhd)
        169452 MiB available memory on the node where the printing process lives
------------------
     ethr =  1.00E-13,  avg # of iterations =  1.2

     negative rho (up, down):  4.442E-04 0.000E+00

     add environment contribution to local potential

     total cpu time spent up to now is     1519.5 secs

     total energy              =    -661.91353990 Ry
     estimated scf accuracy    <          1.4E-14 Ry

     total charge of GC-SCF    =       3.23971078 e
     the Fermi energy          =      -4.40399961 eV
                        (error :       0.00000039 eV)
     electrostatic embedding   =      -1.40505452 Ry
     cavitation energy         =       0.02637035 Ry
     electrolyte free energy   =      -0.03429482 Ry
     correction to one-el term =     -91.54580269 Ry

     iteration # 50     ecut=    80.00 Ry     beta= 0.20
     Davidson diagonalization with overlap

---- Real-time Memory Report at c_bands before calling an iterative solver
           623 MiB given to the printing process from OS
           194 MiB allocation reported by mallinfo(arena+hblkhd)
        169453 MiB available memory on the node where the printing process lives
------------------
     ethr =  1.00E-13,  avg # of iterations =  1.4

     negative rho (up, down):  4.441E-04 0.000E+00

     total cpu time spent up to now is     1526.5 secs

     End of self-consistent calculation

          k = 0.0000 0.0000 0.0000 (250151 PWs)   bands (ev):

   -52.5425 -52.5422 -52.5422 -52.5419 -52.0301 -52.0301 -52.0300 -52.0300
   -51.1259 -51.1252 -51.1247 -51.1239 -51.0852 -51.0852 -51.0850 -51.0850
   -50.9572 -50.9555 -50.9506 -50.9505 -50.9470 -50.9470 -50.9446 -50.9427
   -50.9422 -50.9417 -50.9417 -50.9415 -50.9411 -50.9407 -50.9407 -50.9394
   -50.9324 -50.9323 -50.9320 -50.9315 -50.9301 -50.9288 -50.9288 -50.9241
   -50.8551 -50.8551 -50.8550 -50.8549  -7.8452  -7.5459  -7.0668  -6.6532
    -6.6532  -6.4118  -6.3479  -6.3479  -5.8594  -5.8594  -5.6480  -5.1952
    -5.1952  -4.8369  -4.5043  -4.4500  -4.4499  -4.3355  -4.0721  -4.0088
    -4.0058  -4.0058  -3.9841  -3.6530  -3.6530  -3.6123  -3.5815  -3.5333
    -3.5102  -3.5102  -3.4826  -3.1150  -3.1150  -3.0587  -3.0011  -2.8126
    -2.6063  -2.6063  -2.3904  -2.3653  -2.3653  -2.1345  -2.0598  -1.7933
    -1.5653  -1.3919  -1.3919  -1.1903  -1.1903  -1.1261  -1.1120  -1.1120
    -1.0805  -1.0713  -1.0459

     occupation numbers 
     1.0000   1.0000   1.0000   1.0000   1.0000   1.0000   1.0000   1.0000
     1.0000   1.0000   1.0000   1.0000   1.0000   1.0000   1.0000   1.0000
     1.0000   1.0000   1.0000   1.0000   1.0000   1.0000   1.0000   1.0000
     1.0000   1.0000   1.0000   1.0000   1.0000   1.0000   1.0000   1.0000
     1.0000   1.0000   1.0000   1.0000   1.0000   1.0000   1.0000   1.0000
     1.0000   1.0000   1.0000   1.0000   1.0000   1.0000   1.0000   1.0000
     1.0000   1.0000   1.0000   1.0000   1.0000   1.0000   1.0000   1.0000
     1.0000   1.0006   0.9157   0.6488   0.6486   0.1357   0.0000   0.0000
     0.0000   0.0000   0.0000   0.0000   0.0000   0.0000   0.0000   0.0000
     0.0000   0.0000   0.0000   0.0000   0.0000   0.0000   0.0000   0.0000
     0.0000   0.0000   0.0000   0.0000   0.0000   0.0000   0.0000   0.0000
     0.0000   0.0000   0.0000   0.0000   0.0000   0.0000   0.0000   0.0000
     0.0000   0.0000   0.0000

          k = 0.0000 0.1421 0.0000 (249995 PWs)   bands (ev):

   -52.5425 -52.5422 -52.5422 -52.5419 -52.0301 -52.0301 -52.0300 -52.0300
   -51.1259 -51.1252 -51.1247 -51.1239 -51.0852 -51.0852 -51.0850 -51.0850
   -50.9571 -50.9554 -50.9505 -50.9505 -50.9470 -50.9470 -50.9447 -50.9427
   -50.9423 -50.9417 -50.9417 -50.9415 -50.9412 -50.9407 -50.9407 -50.9394
   -50.9324 -50.9324 -50.9323 -50.9313 -50.9302 -50.9288 -50.9288 -50.9240
   -50.8551 -50.8551 -50.8550 -50.8549  -7.8211  -7.5217  -7.0426  -6.6288
    -6.6288  -6.3875  -6.3236  -6.3236  -5.8355  -5.8355  -5.6241  -5.1724
    -5.1724  -4.9351  -4.8160  -4.6316  -4.4312  -4.4311  -4.1440  -4.1292
    -4.1292  -3.9525  -3.7804  -3.7804  -3.7567  -3.6211  -3.5809  -3.5222
    -3.5221  -3.4473  -3.4014  -3.2520  -3.2520  -2.9699  -2.9420  -2.7030
    -2.7029  -2.6266  -2.4583  -2.2902  -2.2902  -2.1037  -2.0415  -1.7616
    -1.5058  -1.3892  -1.3892  -1.1578  -1.1124  -1.1124  -1.0975  -1.0498
    -1.0498  -1.0077  -0.8942

     occupation numbers 
     1.0000   1.0000   1.0000   1.0000   1.0000   1.0000   1.0000   1.0000
     1.0000   1.0000   1.0000   1.0000   1.0000   1.0000   1.0000   1.0000
     1.0000   1.0000   1.0000   1.0000   1.0000   1.0000   1.0000   1.0000
     1.0000   1.0000   1.0000   1.0000   1.0000   1.0000   1.0000   1.0000
     1.0000   1.0000   1.0000   1.0000   1.0000   1.0000   1.0000   1.0000
     1.0000   1.0000   1.0000   1.0000   1.0000   1.0000   1.0000   1.0000
     1.0000   1.0000   1.0000   1.0000   1.0000   1.0000   1.0000   1.0000
     1.0000   1.0000   1.0013   1.0710   0.5448   0.5446   0.0005   0.0003
     0.0003   0.0000   0.0000   0.0000   0.0000   0.0000   0.0000   0.0000
     0.0000   0.0000   0.0000   0.0000   0.0000   0.0000   0.0000   0.0000
     0.0000   0.0000   0.0000   0.0000   0.0000   0.0000   0.0000   0.0000
     0.0000   0.0000   0.0000   0.0000   0.0000   0.0000   0.0000   0.0000
     0.0000   0.0000   0.0000

          k = 0.0000 0.2843 0.0000 (249899 PWs)   bands (ev):

   -52.5425 -52.5422 -52.5422 -52.5419 -52.0301 -52.0301 -52.0300 -52.0300
   -51.1259 -51.1252 -51.1247 -51.1239 -51.0852 -51.0852 -51.0850 -51.0850
   -50.9567 -50.9551 -50.9505 -50.9505 -50.9468 -50.9468 -50.9449 -50.9428
[...]
     atom   10 type  1   force =    -0.00007225    0.03216025   -6.55248568
     atom   11 type  1   force =    -0.00000001   -0.03842840   -6.09269441
     atom   12 type  1   force =    -0.00000001    0.04513931   -2.43706011
     atom   13 type  1   force =    -0.00000001   -0.03155478    0.28281296
     atom   14 type  1   force =    -0.00000001    0.03493444    4.13227905
     atom   15 type  1   force =    -0.00020999    0.03844062    6.09317627
     atom   16 type  1   force =    -0.00034890   -0.06288398    9.04089415
     atom   17 type  1   force =    -0.00017353   -0.04513797    2.43719119
     atom   18 type  1   force =     0.00000000   -0.03215352    6.55371109
     atom   19 type  1   force =    -0.00000001    0.07466133   10.76846956
     atom   20 type  1   force =    -0.00000001   -0.08634039   12.66275642
     atom   21 type  1   force =    -0.00054130    0.05629708   12.57491188
     atom   22 type  1   force =    -0.00065534   -0.02351187   15.14614907
     atom   23 type  1   force =     0.00000002    0.02466204   15.85916907
     atom   24 type  1   force =     0.00009332   -0.02469134  -15.85942845
     atom   25 type  1   force =     0.00007131    0.08634127  -12.66503206
     atom   26 type  1   force =     0.00000001    0.02349891  -15.14615957
     atom   27 type  1   force =    -0.00000000   -0.05624461  -12.57502974
     atom   28 type  1   force =     0.00000002    0.06284634   -9.04100494
     atom   29 type  1   force =     0.00008744   -0.03493183   -4.13206830
     atom   30 type  1   force =     0.00012882    0.03155724   -0.28345193
     atom   31 type  1   force =     0.00008330   -0.07466280  -10.76809396
     atom   32 type  1   force =     0.00007225    0.03216023   -6.55248569
     atom   33 type  1   force =    -0.00000000   -0.03842404   -6.09351088
     atom   34 type  1   force =     0.00000003    0.04512898   -2.43736229
     atom   35 type  1   force =     0.00000003   -0.03155052    0.28419558
     atom   36 type  1   force =     0.00000003    0.03492414    4.13176837
     atom   37 type  1   force =     0.00020998    0.03844060    6.09317628
     atom   38 type  1   force =     0.00034888   -0.06288396    9.04089413
     atom   39 type  1   force =     0.00017352   -0.04513796    2.43719120
     atom   40 type  1   force =    -0.00000001   -0.03214553    6.55121997
     atom   41 type  1   force =     0.00000004    0.07473422   10.76777326
     atom   42 type  1   force =     0.00000003   -0.08644733   12.66711153
     atom   43 type  1   force =     0.00054127    0.05629708   12.57491188
     atom   44 type  1   force =     0.00065532   -0.02351188   15.14614908
     The local contribution  to forces
     atom    1 type  1   force =     0.00000137   -0.02674496  -15.94467737
     atom    2 type  1   force =     0.00011078    0.02663379   15.94439084
     atom    3 type  1   force =     0.00007547   -0.11078168   12.80223169
     atom    4 type  1   force =     0.00000136   -0.02154417   15.33359001
     atom    5 type  1   force =    -0.00000000    0.06538136   12.70706089
     atom    6 type  1   force =     0.00000136   -0.06346985    9.11717111
     atom    7 type  1   force =     0.00009313    0.03771201    4.17340227
     atom    8 type  1   force =     0.00013105   -0.03545132    0.28357147
     atom    9 type  1   force =     0.00009047    0.08247013   10.87415756
     atom   10 type  1   force =     0.00007459   -0.03415583    6.61259376
     atom   11 type  1   force =     0.00000000    0.04225204    6.14768215
     atom   12 type  1   force =     0.00000136   -0.04612233    2.45839300
     atom   13 type  1   force =     0.00000136    0.03544856   -0.28288257
     atom   14 type  1   force =     0.00000136   -0.03771412   -4.17359008
     atom   15 type  1   force =     0.00021147   -0.04226704   -6.14813155
     atom   16 type  1   force =     0.00037361    0.06351965   -9.11718586
     atom   17 type  1   force =     0.00018101    0.04612186   -2.45849350
     atom   18 type  1   force =     0.00000000    0.03415150   -6.61379970
     atom   19 type  1   force =     0.00000136   -0.08246172  -10.87449620
     atom   20 type  1   force =     0.00000136    0.11075260  -12.79973677
     atom   21 type  1   force =     0.00057933   -0.06540229  -12.70731856
     atom   22 type  1   force =     0.00073083    0.02160154  -15.33350892
     atom   23 type  1   force =     0.00000274   -0.02658497  -15.94409618
     atom   24 type  1   force =    -0.00010804    0.02663379   15.94439084
     atom   25 type  1   force =    -0.00007275   -0.11078168   12.80223169
     atom   26 type  1   force =     0.00000273   -0.02158557   15.33355333
     atom   27 type  1   force =     0.00000135    0.06534512   12.70746674
     atom   28 type  1   force =     0.00000272   -0.06348253    9.11734208
     atom   29 type  1   force =    -0.00009041    0.03771201    4.17340227
     atom   30 type  1   force =    -0.00012834   -0.03545132    0.28357147
     atom   31 type  1   force =    -0.00008775    0.08247013   10.87415756
     atom   32 type  1   force =    -0.00007186   -0.03415583    6.61259376
     atom   33 type  1   force =     0.00000136    0.04224869    6.14850965
     atom   34 type  1   force =     0.00000272   -0.04611487    2.45871436
     atom   35 type  1   force =     0.00000272    0.03544518   -0.28428787
     atom   36 type  1   force =     0.00000272   -0.03770198   -4.17304664
     atom   37 type  1   force =    -0.00020875   -0.04226704   -6.14813155
     atom   38 type  1   force =    -0.00037090    0.06351965   -9.11718586
     atom   39 type  1   force =    -0.00017829    0.04612186   -2.45849350
     atom   40 type  1   force =     0.00000136    0.03413914   -6.61127154
     atom   41 type  1   force =     0.00000272   -0.08254558  -10.87380256
     atom   42 type  1   force =     0.00000272    0.11090834  -12.80442012
     atom   43 type  1   force =    -0.00057662   -0.06540229  -12.70731856
     atom   44 type  1   force =    -0.00072810    0.02160154  -15.33350892
     The core correction contribution to forces
     atom    1 type  1   force =     0.00000000    0.00000000    0.00000000
     atom    2 type  1   force =     0.00000000    0.00000000    0.00000000
     atom    3 type  1   force =     0.00000000    0.00000000    0.00000000
     atom    4 type  1   force =     0.00000000    0.00000000    0.00000000
     atom    5 type  1   force =     0.00000000    0.00000000    0.00000000
     atom    6 type  1   force =     0.00000000    0.00000000    0.00000000
     atom    7 type  1   force =     0.00000000    0.00000000    0.00000000
     atom    8 type  1   force =     0.00000000    0.00000000    0.00000000
     atom    9 type  1   force =     0.00000000    0.00000000    0.00000000
     atom   10 type  1   force =     0.00000000    0.00000000    0.00000000
     atom   11 type  1   force =     0.00000000    0.00000000    0.00000000
     atom   12 type  1   force =     0.00000000    0.00000000    0.00000000
     atom   13 type  1   force =     0.00000000    0.00000000    0.00000000
     atom   14 type  1   force =     0.00000000    0.00000000    0.00000000
     atom   15 type  1   force =     0.00000000    0.00000000    0.00000000
     atom   16 type  1   force =     0.00000000    0.00000000    0.00000000
     atom   17 type  1   force =     0.00000000    0.00000000    0.00000000
     atom   18 type  1   force =     0.00000000    0.00000000    0.00000000
     atom   19 type  1   force =     0.00000000    0.00000000    0.00000000
     atom   20 type  1   force =     0.00000000    0.00000000    0.00000000
     atom   21 type  1   force =     0.00000000    0.00000000    0.00000000
     atom   22 type  1   force =     0.00000000    0.00000000    0.00000000
     atom   23 type  1   force =     0.00000000    0.00000000    0.00000000
     atom   24 type  1   force =     0.00000000    0.00000000    0.00000000
     atom   25 type  1   force =     0.00000000    0.00000000    0.00000000
     atom   26 type  1   force =     0.00000000    0.00000000    0.00000000
     atom   27 type  1   force =     0.00000000    0.00000000    0.00000000
     atom   28 type  1   force =     0.00000000    0.00000000    0.00000000
     atom   29 type  1   force =     0.00000000    0.00000000    0.00000000
     atom   30 type  1   force =     0.00000000    0.00000000    0.00000000
     atom   31 type  1   force =     0.00000000    0.00000000    0.00000000
     atom   32 type  1   force =     0.00000000    0.00000000    0.00000000
     atom   33 type  1   force =     0.00000000    0.00000000    0.00000000
     atom   34 type  1   force =     0.00000000    0.00000000    0.00000000
     atom   35 type  1   force =     0.00000000    0.00000000    0.00000000
     atom   36 type  1   force =     0.00000000    0.00000000    0.00000000
     atom   37 type  1   force =     0.00000000    0.00000000    0.00000000
     atom   38 type  1   force =     0.00000000    0.00000000    0.00000000
     atom   39 type  1   force =     0.00000000    0.00000000    0.00000000
     atom   40 type  1   force =     0.00000000    0.00000000    0.00000000
     atom   41 type  1   force =     0.00000000    0.00000000    0.00000000
     atom   42 type  1   force =     0.00000000    0.00000000    0.00000000
     atom   43 type  1   force =     0.00000000    0.00000000    0.00000000
     atom   44 type  1   force =     0.00000000    0.00000000    0.00000000
     The Hubbard contrib.    to forces
     atom    1 type  1   force =     0.00000000    0.00000000    0.00000000
     atom    2 type  1   force =     0.00000000    0.00000000    0.00000000
     atom    3 type  1   force =     0.00000000    0.00000000    0.00000000
     atom    4 type  1   force =     0.00000000    0.00000000    0.00000000
     atom    5 type  1   force =     0.00000000    0.00000000    0.00000000
     atom    6 type  1   force =     0.00000000    0.00000000    0.00000000
     atom    7 type  1   force =     0.00000000    0.00000000    0.00000000
     atom    8 type  1   force =     0.00000000    0.00000000    0.00000000
     atom    9 type  1   force =     0.00000000    0.00000000    0.00000000
     atom   10 type  1   force =     0.00000000    0.00000000    0.00000000
     atom   11 type  1   force =     0.00000000    0.00000000    0.00000000
     atom   12 type  1   force =     0.00000000    0.00000000    0.00000000
     atom   13 type  1   force =     0.00000000    0.00000000    0.00000000
     atom   14 type  1   force =     0.00000000    0.00000000    0.00000000
     atom   15 type  1   force =     0.00000000    0.00000000    0.00000000
     atom   16 type  1   force =     0.00000000    0.00000000    0.00000000
     atom   17 type  1   force =     0.00000000    0.00000000    0.00000000
     atom   18 type  1   force =     0.00000000    0.00000000    0.00000000
     atom   19 type  1   force =     0.00000000    0.00000000    0.00000000
     atom   20 type  1   force =     0.00000000    0.00000000    0.00000000
     atom   21 type  1   force =     0.00000000    0.00000000    0.00000000
     atom   22 type  1   force =     0.00000000    0.00000000    0.00000000
     atom   23 type  1   force =     0.00000000    0.00000000    0.00000000
     atom   24 type  1   force =     0.00000000    0.00000000    0.00000000
     atom   25 type  1   force =     0.00000000    0.00000000    0.00000000
     atom   26 type  1   force =     0.00000000    0.00000000    0.00000000
     atom   27 type  1   force =     0.00000000    0.00000000    0.00000000
     atom   28 type  1   force =     0.00000000    0.00000000    0.00000000
     atom   29 type  1   force =     0.00000000    0.00000000    0.00000000
     atom   30 type  1   force =     0.00000000    0.00000000    0.00000000
     atom   31 type  1   force =     0.00000000    0.00000000    0.00000000
     atom   32 type  1   force =     0.00000000    0.00000000    0.00000000
     atom   33 type  1   force =     0.00000000    0.00000000    0.00000000
     atom   34 type  1   force =     0.00000000    0.00000000    0.00000000
     atom   35 type  1   force =     0.00000000    0.00000000    0.00000000
     atom   36 type  1   force =     0.00000000    0.00000000    0.00000000
     atom   37 type  1   force =     0.00000000    0.00000000    0.00000000
     atom   38 type  1   force =     0.00000000    0.00000000    0.00000000
     atom   39 type  1   force =     0.00000000    0.00000000    0.00000000
     atom   40 type  1   force =     0.00000000    0.00000000    0.00000000
     atom   41 type  1   force =     0.00000000    0.00000000    0.00000000
     atom   42 type  1   force =     0.00000000    0.00000000    0.00000000
     atom   43 type  1   force =     0.00000000    0.00000000    0.00000000
     atom   44 type  1   force =     0.00000000    0.00000000    0.00000000
     The SCF correction term to forces
     atom    1 type  1   force =     0.00000000    0.00000000   -0.00000001
     atom    2 type  1   force =    -0.00000000   -0.00000001    0.00000003
     atom    3 type  1   force =    -0.00000000    0.00000001    0.00000003
     atom    4 type  1   force =     0.00000000    0.00000001    0.00000003
     atom    5 type  1   force =     0.00000000   -0.00000000    0.00000003
     atom    6 type  1   force =    -0.00000000   -0.00000000    0.00000003
     atom    7 type  1   force =    -0.00000000    0.00000000    0.00000001
     atom    8 type  1   force =    -0.00000000    0.00000000   -0.00000002
     atom    9 type  1   force =    -0.00000000   -0.00000001    0.00000004
     atom   10 type  1   force =    -0.00000000   -0.00000000    0.00000003
     atom   11 type  1   force =    -0.00000000    0.00000000    0.00000003
     atom   12 type  1   force =     0.00000000   -0.00000001    0.00000000
     atom   13 type  1   force =     0.00000000   -0.00000000   -0.00000002
     atom   14 type  1   force =    -0.00000000   -0.00000000   -0.00000006
     atom   15 type  1   force =     0.00000000   -0.00000000   -0.00000007
     atom   16 type  1   force =     0.00000000    0.00000000   -0.00000005
     atom   17 type  1   force =    -0.00000000    0.00000001   -0.00000005
     atom   18 type  1   force =     0.00000000    0.00000000   -0.00000007
     atom   19 type  1   force =     0.00000000    0.00000000   -0.00000006
     atom   20 type  1   force =     0.00000000   -0.00000001   -0.00000006
     atom   21 type  1   force =     0.00000000    0.00000000   -0.00000005
     atom   22 type  1   force =     0.00000000   -0.00000001   -0.00000003
     atom   23 type  1   force =     0.00000000    0.00000001    0.00000000
     atom   24 type  1   force =     0.00000000   -0.00000001    0.00000003
     atom   25 type  1   force =     0.00000000    0.00000001    0.00000003
     atom   26 type  1   force =    -0.00000000    0.00000001    0.00000004
     atom   27 type  1   force =    -0.00000000   -0.00000000    0.00000003
     atom   28 type  1   force =    -0.00000000   -0.00000000    0.00000003
     atom   29 type  1   force =     0.00000000    0.00000000    0.00000001
     atom   30 type  1   force =     0.00000000    0.00000000   -0.00000002
     atom   31 type  1   force =     0.00000000   -0.00000001    0.00000004
     atom   32 type  1   force =     0.00000000   -0.00000000    0.00000003
     atom   33 type  1   force =    -0.00000000    0.00000000    0.00000003
     atom   34 type  1   force =     0.00000000   -0.00000000   -0.00000000
     atom   35 type  1   force =    -0.00000000    0.00000000   -0.00000003
     atom   36 type  1   force =     0.00000000   -0.00000000   -0.00000005
     atom   37 type  1   force =    -0.00000000   -0.00000000   -0.00000007
     atom   38 type  1   force =    -0.00000000    0.00000000   -0.00000005
     atom   39 type  1   force =     0.00000000    0.00000001   -0.00000005
     atom   40 type  1   force =    -0.00000000    0.00000000   -0.00000006
     atom   41 type  1   force =    -0.00000000    0.00000001   -0.00000006
     atom   42 type  1   force =     0.00000000   -0.00000001   -0.00000005
     atom   43 type  1   force =    -0.00000000    0.00000000   -0.00000005
     atom   44 type  1   force =    -0.00000000   -0.00000001   -0.00000003

     Total force =     0.001354     Total SCF correction =     0.000000

     Writing all to output data dir ./Li/Lithium.save/ :
     XML data file
     init_run     :     11.16s CPU     11.68s WALL (       1 calls)
     electrons    :   1505.83s CPU   1514.67s WALL (       1 calls)
     forces       :     47.46s CPU     47.61s WALL (       1 calls)

     Called by init_run:
     wfcinit      :      2.51s CPU      2.56s WALL (       1 calls)
     wfcinit:wfcr :      2.37s CPU      2.41s WALL (      14 calls)
     potinit      :      0.14s CPU      0.15s WALL (       1 calls)
     hinit0       :      4.19s CPU      4.55s WALL (       1 calls)

     Called by electrons:
     c_bands      :   1023.76s CPU   1029.98s WALL (      50 calls)
     sum_band     :     61.23s CPU     61.68s WALL (      50 calls)
     v_of_rho     :      4.19s CPU      4.22s WALL (      51 calls)
     v_h          :      0.38s CPU      0.38s WALL (      51 calls)
     v_xc         :      3.81s CPU      3.84s WALL (      51 calls)
     newd         :      1.43s CPU      1.44s WALL (      51 calls)
     PAW_pot      :      0.99s CPU      1.00s WALL (      51 calls)
     mix_rho      :     11.03s CPU     11.10s WALL (      50 calls)

     Called by c_bands:
     init_us_2    :      7.18s CPU      7.21s WALL (    1428 calls)
     cegterg      :    924.45s CPU    930.29s WALL (     909 calls)

     Called by sum_band:
     sum_band:wei :      0.25s CPU      0.25s WALL (      50 calls)
     sum_band:loo :     57.60s CPU     58.01s WALL (      50 calls)
     sum_band:buf :      0.69s CPU      0.70s WALL (     700 calls)
     sum_band:ini :      3.56s CPU      3.58s WALL (     700 calls)
     sum_band:cal :     11.25s CPU     11.32s WALL (     700 calls)
     sum_band:bec :      0.32s CPU      0.32s WALL (     700 calls)
     addusdens    :      1.08s CPU      1.09s WALL (      50 calls)
                                        0.00s GPU  (      50 calls)
     addusd:skk   :      0.26s CPU      0.26s WALL (      50 calls)
                                        0.00s GPU  (      50 calls)

     Called by *egterg:
     cdiaghg      :    272.30s CPU    273.87s WALL (   11891 calls)
     cegterg:over :     77.15s CPU     77.67s WALL (   11063 calls)
     cegterg:upda :     38.20s CPU     38.38s WALL (   11063 calls)
     cegterg:last :     15.85s CPU     15.90s WALL (    1220 calls)
     h_psi        :    459.68s CPU    462.95s WALL (   11986 calls)
     s_psi        :     37.26s CPU     37.44s WALL (   11986 calls)
     g_psi        :      1.08s CPU      1.09s WALL (   11063 calls)

     Called by h_psi:
     h_psi:calbec :     60.99s CPU     61.37s WALL (   11986 calls)
     vloc_psi     :    357.64s CPU    360.35s WALL (   11986 calls)
                                        0.00s GPU  (   11986 calls)
     add_vuspsi   :     38.56s CPU     38.73s WALL (   11986 calls)

     General routines
     calbec       :     73.00s CPU     73.48s WALL (   12742 calls)
     fft          :      3.90s CPU      3.93s WALL (     663 calls)
     ffts         :      5.70s CPU      5.74s WALL (    6128 calls)
     fftw         :    379.25s CPU    382.13s WALL (  718088 calls)
     interpolate  :      0.31s CPU      0.31s WALL (      51 calls)
 
     Parallel routines

     PAW routines
     PAW_pot      :      0.99s CPU      1.00s WALL (      51 calls)
     PAW_symme    :      0.02s CPU      0.02s WALL (     101 calls)
 
     Environ routines
 
     PWSCF        :  26m 5.57s CPU  26m15.22s WALL

 
   This run was terminated on:  17:19:52   8Jan2025            

=------------------------------------------------------------------------------=
   JOB DONE.
=------------------------------------------------------------------------------=
