
     Program PWSCF v.7.4 starts on 23Jan2025 at  0:35:55 

     This program is part of the open-source Quantum ESPRESSO suite
     for quantum simulation of materials; please cite
         "P. Giannozzi et al., J. Phys.:Condens. Matter 21 395502 (2009);
         "P. Giannozzi et al., J. Phys.:Condens. Matter 29 465901 (2017);
         "P. Giannozzi et al., J. Chem. Phys. 152 154105 (2020);
          URL http://www.quantum-espresso.org", 
     in publications or presentations arising from this work. More details at
     http://www.quantum-espresso.org/quote

     Parallel version (MPI & OpenMP), running on     384 processor cores
     Number of MPI processes:               384
     Threads/MPI process:                     1

     MPI processes distributed on     2 nodes
     668671 MiB available memory on the printing compute node when the environment starts
 
     Reading input from espresso.pwi
Warning: card &CELL ignored
Warning: card    PRESS_CONV_THR   = 0.1 ignored
Warning: card    CELL_DOFREE      = 'ALL' ignored
Warning: card / ignored
Warning: card &FCP ignored
Warning: card / ignored
Warning: card &RISM ignored
Warning: card / ignored

     Current dimensions of program PWSCF are:
     Max number of different atomic species (ntypx) = 10
     Max number of k-points (npk) =  40000
     Max angular momentum in pseudopotentials (lmaxx) =  4

     IMPORTANT: XC functional enforced from input :
     Exchange-correlation= PBE
                           (   1   4   3   4   0   0   0)
     Any further DFT definition will be discarded
     Please, verify this is what you really want

     Found identity + (  0.5000 -0.0000 -0.0000) symmetry
     This is a supercell, fractional translations are disabled
 
     K-points division:     npool     =       3
     R & G space division:  proc/nbgrp/npool/nimage =     128
     Subspace diagonalization in iterative solution of the eigenvalue problem:
     a serial algorithm will be used

 
     Parallelization info
     --------------------
     sticks:   dense  smooth     PW     G-vecs:    dense   smooth      PW
     Min         139      55     14                53881    13623    1834
     Max         140      56     15                53909    13644    1869
     Sum       17801    7131   1879              6898845  1745437  236767
 
     Using Slab Decomposition
 


     bravais-lattice index     =            0
     lattice parameter (alat)  =      18.3607  a.u.
     unit-cell volume          =   18054.2689 (a.u.)^3
     number of atoms/cell      =           44
     number of atomic types    =            1
     number of electrons       =       132.00
     number of Kohn-Sham states=           99
     kinetic-energy cutoff     =      80.0000  Ry
     charge density cutoff     =     800.0000  Ry
     scf convergence threshold =      1.0E-06
     mixing beta               =       0.2000
     number of iterations used =            8  local-TF  mixing
     energy convergence thresh.=      1.0E-05
     force convergence thresh. =      3.9E-04
     Exchange-correlation= PBE
                           (   1   4   3   4   0   0   0)
     nstep                     =           50


     celldm(1)=  18.360747  celldm(2)=   0.000000  celldm(3)=   0.000000
     celldm(4)=   0.000000  celldm(5)=   0.000000  celldm(6)=   0.000000

     crystal axes: (cart. coord. in units of alat)
               a(1) = (   1.000000   0.000000   0.000000 )  
               a(2) = (  -0.250000   0.829156   0.000000 )  
               a(3) = (   0.000000   0.000000   3.517812 )  

     reciprocal axes: (cart. coord. in units 2 pi/alat)
               b(1) = (  1.000000  0.301511  0.000000 )  
               b(2) = (  0.000000  1.206046  0.000000 )  
               b(3) = (  0.000000  0.000000  0.284268 )  


     PseudoPot. # 1 for Li read from file:
     /iridisfs/home/ba3g18/Repos/Pseudopotentials/pslibrary.1.0.0/pbe/PSEUDOPOTENTIALS/Li.pbe-sl-kjpaw_psl.1.0.0.UPF
     MD5 check sum: 3f4d2cafebb47c6c3aa8ed472e6f074d
     Pseudo is Projector augmented-wave, Zval =  3.0
     Generated using 'atomic' code by A. Dal Corso  v.7.4
     Shape of augmentation charge: PSQ
     Using radial grid of 1017 points,  4 beta functions with: 
                l(1) =   0
                l(2) =   0
                l(3) =   1
                l(4) =   1
     Q(r) pseudized with 0 coefficients 


     atomic species   valence    mass     pseudopotential
     Li                3.00     6.94000     Li( 1.00)

     No symmetry found



   Cartesian axes

     site n.     atom                  positions (alat units)
         1        Li     tau(   1) = (  -0.2503316   0.7690285   1.1997267  )
         2        Li     tau(   2) = (   0.2498896   0.2578374   2.2817983  )
         3        Li     tau(   3) = (  -0.0001107   0.4572980   2.1650496  )
         4        Li     tau(   4) = (   0.2503998   0.6767336   2.0382614  )
         5        Li     tau(   5) = (   0.2497383   0.0811910   1.9440211  )
         6        Li     tau(   6) = (   0.0000121   0.3009873   1.8463539  )
         7        Li     tau(   7) = (   0.2502566   0.5234817   1.7390874  )
         8        Li     tau(   8) = (  -0.0002877   0.7529987   1.6273118  )
         9        Li     tau(   9) = (  -0.0000061   0.1518705   1.5070433  )
        10        Li     tau(  10) = (   0.2501046   0.3863927   1.3991886  )
        11        Li     tau(  11) = (  -0.0000401   0.5885510   1.3131991  )
        12        Li     tau(  12) = (  -0.0001045   0.1412525   2.1186229  )
        13        Li     tau(  13) = (   0.2500061   0.3757742   2.0107684  )
        14        Li     tau(  14) = (   0.0002877   0.6038023   1.8905001  )
        15        Li     tau(  15) = (   0.2497434   0.8333194   1.7787247  )
        16        Li     tau(  16) = (   0.2499878   0.2266578   1.6714579  )
        17        Li     tau(  17) = (   0.0002618   0.4464539   1.5737906  )
        18        Li     tau(  18) = (   0.2496004   0.6800673   1.4795504  )
        19        Li     tau(  19) = (   0.2501109   0.0703471   1.3527621  )
        20        Li     tau(  20) = (   0.0001103   0.2698078   1.2360136  )
        21        Li     tau(  21) = (   0.2503316   0.5877728   2.3180852  )
        22        Li     tau(  22) = (   0.0000398   0.7682501   2.2046128  )
        23        Li     tau(  23) = (   0.2496683   0.7690274   1.1997264  )
        24        Li     tau(  24) = (   0.7498891   0.2578373   2.2817981  )
        25        Li     tau(  25) = (   0.4998893   0.4572980   2.1650497  )
        26        Li     tau(  26) = (   0.7503997   0.6767338   2.0382613  )
        27        Li     tau(  27) = (   0.7497385   0.0811910   1.9440214  )
        28        Li     tau(  28) = (   0.5000121   0.3009874   1.8463537  )
        29        Li     tau(  29) = (   0.7502567   0.5234816   1.7390872  )
        30        Li     tau(  30) = (   0.4997123   0.7529988   1.6273119  )
        31        Li     tau(  31) = (   0.4999940   0.1518709   1.5070437  )
        32        Li     tau(  32) = (   0.7501044   0.3863923   1.3991895  )
        33        Li     tau(  33) = (   0.4999605   0.5885506   1.3131986  )
        34        Li     tau(  34) = (   0.4998955   0.1412524   2.1186226  )
        35        Li     tau(  35) = (   0.7500060   0.3757743   2.0107684  )
        36        Li     tau(  36) = (   0.5002878   0.6038023   1.8905001  )
        37        Li     tau(  37) = (   0.7497433   0.8333194   1.7787246  )
        38        Li     tau(  38) = (   0.7499880   0.2266576   1.6714582  )
        39        Li     tau(  39) = (   0.5002614   0.4464542   1.5737906  )
        40        Li     tau(  40) = (   0.7496002   0.6800672   1.4795505  )
        41        Li     tau(  41) = (   0.7501106   0.0703467   1.3527621  )
        42        Li     tau(  42) = (   0.5001111   0.2698071   1.2360134  )
        43        Li     tau(  43) = (   0.7503317   0.5877728   2.3180850  )
        44        Li     tau(  44) = (   0.5000398   0.7682501   2.2046131  )

     number of k points=    29  Marzari-Vanderbilt smearing, width (Ry)=  0.0100
                       cart. coord. in units 2pi/alat
        k(    1) = (   0.0000000   0.0000000   0.0000000), wk =   0.0357143
        k(    2) = (   0.0000000   0.1507557   0.0000000), wk =   0.0714286
        k(    3) = (   0.0000000   0.3015114   0.0000000), wk =   0.0714286
        k(    4) = (   0.0000000   0.4522671   0.0000000), wk =   0.0714286
        k(    5) = (   0.0000000  -0.6030228   0.0000000), wk =   0.0357143
        k(    6) = (   0.1428571   0.0430731   0.0000000), wk =   0.0714286
        k(    7) = (   0.1428571   0.1938288   0.0000000), wk =   0.0714286
        k(    8) = (   0.1428571   0.3445845   0.0000000), wk =   0.0714286
        k(    9) = (   0.1428571   0.4953402   0.0000000), wk =   0.0714286
        k(   10) = (   0.1428571  -0.5599498   0.0000000), wk =   0.0714286
        k(   11) = (   0.1428571  -0.4091941   0.0000000), wk =   0.0714286
        k(   12) = (   0.1428571  -0.2584384   0.0000000), wk =   0.0714286
        k(   13) = (   0.1428571  -0.1076826   0.0000000), wk =   0.0714286
        k(   14) = (   0.2857143   0.0861461   0.0000000), wk =   0.0714286
        k(   15) = (   0.2857143   0.2369018   0.0000000), wk =   0.0714286
        k(   16) = (   0.2857143   0.3876575   0.0000000), wk =   0.0714286
        k(   17) = (   0.2857143   0.5384132   0.0000000), wk =   0.0714286
        k(   18) = (   0.2857143  -0.5168767   0.0000000), wk =   0.0714286
        k(   19) = (   0.2857143  -0.3661210   0.0000000), wk =   0.0714286
        k(   20) = (   0.2857143  -0.2153653   0.0000000), wk =   0.0714286
        k(   21) = (   0.2857143  -0.0646096   0.0000000), wk =   0.0714286
        k(   22) = (   0.4285714   0.1292192   0.0000000), wk =   0.0714286
        k(   23) = (   0.4285714   0.2799749   0.0000000), wk =   0.0714286
        k(   24) = (   0.4285714   0.4307306   0.0000000), wk =   0.0714286
        k(   25) = (   0.4285714   0.5814863   0.0000000), wk =   0.0714286
        k(   26) = (   0.4285714  -0.4738037   0.0000000), wk =   0.0714286
        k(   27) = (   0.4285714  -0.3230479   0.0000000), wk =   0.0714286
        k(   28) = (   0.4285714  -0.1722922   0.0000000), wk =   0.0714286
        k(   29) = (   0.4285714  -0.0215365   0.0000000), wk =   0.0714286

     Dense  grid:  6898845 G-vectors     FFT dimensions: ( 180, 144, 600)

     Smooth grid:  1745437 G-vectors     FFT dimensions: ( 108,  96, 375)

     Estimated max dynamical RAM per process >     117.00 MB

     Estimated total dynamical RAM >      40.59 GB

     Initial potential from superposition of free atoms

     starting charge     131.7972, renormalised to     132.0000

     negative rho (up, down):  2.890E-03 0.000E+00
     Starting wfcs are  220 randomized atomic wfcs
     Checking if some PAW data can be deallocated... 

     total cpu time spent up to now is       11.8 secs

     Self-consistent Calculation

     iteration #  1     ecut=    80.00 Ry     beta= 0.20
     Davidson diagonalization with overlap
     ethr =  1.00E-02,  avg # of iterations =  3.7

     negative rho (up, down):  1.813E-04 0.000E+00

     total cpu time spent up to now is       22.3 secs

     total energy              =    -661.86645516 Ry
     estimated scf accuracy    <       5.64516467 Ry

     iteration #  2     ecut=    80.00 Ry     beta= 0.20
     Davidson diagonalization with overlap
     ethr =  4.28E-03,  avg # of iterations =  1.2

     total cpu time spent up to now is       29.6 secs

     total energy              =    -661.23121278 Ry
     estimated scf accuracy    <       4.19318187 Ry

     iteration #  3     ecut=    80.00 Ry     beta= 0.20
     Davidson diagonalization with overlap
     ethr =  3.18E-03,  avg # of iterations =  1.2

     total cpu time spent up to now is       36.2 secs

     total energy              =    -661.53667658 Ry
     estimated scf accuracy    <       0.46079860 Ry

     iteration #  4     ecut=    80.00 Ry     beta= 0.20
     Davidson diagonalization with overlap
     ethr =  3.49E-04,  avg # of iterations =  4.0

     total cpu time spent up to now is       44.6 secs

     total energy              =    -661.58601621 Ry
     estimated scf accuracy    <       1.15758283 Ry

     iteration #  5     ecut=    80.00 Ry     beta= 0.20
     Davidson diagonalization with overlap
     ethr =  3.49E-04,  avg # of iterations =  1.3

     total cpu time spent up to now is       51.2 secs

     total energy              =    -661.57124699 Ry
     estimated scf accuracy    <       0.41448828 Ry

     iteration #  6     ecut=    80.00 Ry     beta= 0.20
     Davidson diagonalization with overlap
     ethr =  3.14E-04,  avg # of iterations =  1.1

     total cpu time spent up to now is       57.5 secs

     total energy              =    -661.57962517 Ry
     estimated scf accuracy    <       0.08566301 Ry

     iteration #  7     ecut=    80.00 Ry     beta= 0.20
     Davidson diagonalization with overlap
     ethr =  6.49E-05,  avg # of iterations =  7.0

     total cpu time spent up to now is       66.8 secs

     total energy              =    -661.62254368 Ry
     estimated scf accuracy    <       0.42979911 Ry

     iteration #  8     ecut=    80.00 Ry     beta= 0.20
     Davidson diagonalization with overlap
     ethr =  6.49E-05,  avg # of iterations =  1.0

     total cpu time spent up to now is       73.2 secs

     total energy              =    -661.58431766 Ry
     estimated scf accuracy    <       0.57727330 Ry

     iteration #  9     ecut=    80.00 Ry     beta= 0.20
     Davidson diagonalization with overlap
     ethr =  6.49E-05,  avg # of iterations =  4.0

     negative rho (up, down):  7.007E-02 0.000E+00

     total cpu time spent up to now is       80.8 secs

     total energy              =    -661.58067684 Ry
     estimated scf accuracy    <       0.24999344 Ry

     iteration # 10     ecut=    80.00 Ry     beta= 0.20
     Davidson diagonalization with overlap
     ethr =  6.49E-05,  avg # of iterations =  3.9

     negative rho (up, down):  7.305E-02 0.000E+00

     total cpu time spent up to now is       88.2 secs

     total energy              =    -661.58541399 Ry
     estimated scf accuracy    <       0.13146074 Ry

     iteration # 11     ecut=    80.00 Ry     beta= 0.20
     Davidson diagonalization with overlap
     ethr =  6.49E-05,  avg # of iterations =  1.0

     negative rho (up, down):  1.673E-01 0.000E+00

     total cpu time spent up to now is       94.5 secs

     total energy              =    -661.55065183 Ry
     estimated scf accuracy    <       0.18577127 Ry

     iteration # 12     ecut=    80.00 Ry     beta= 0.20
     Davidson diagonalization with overlap
     ethr =  6.49E-05,  avg # of iterations = 14.3

     negative rho (up, down):  6.647E-02 0.000E+00

     total cpu time spent up to now is      107.8 secs

     total energy              =    -661.56673868 Ry
     estimated scf accuracy    <       0.01116447 Ry

     iteration # 13     ecut=    80.00 Ry     beta= 0.20
     Davidson diagonalization with overlap
     c_bands:  1 eigenvalues not converged
     c_bands:  1 eigenvalues not converged
     c_bands:  2 eigenvalues not converged
     c_bands:  1 eigenvalues not converged
     c_bands:  1 eigenvalues not converged
     c_bands:  2 eigenvalues not converged
     c_bands:  1 eigenvalues not converged
     c_bands:  1 eigenvalues not converged
     ethr =  8.46E-06,  avg # of iterations = 19.9

     negative rho (up, down):  6.527E-02 0.000E+00

     total cpu time spent up to now is      124.6 secs

     total energy              =    -661.56301472 Ry
     estimated scf accuracy    <       0.24494434 Ry

     iteration # 14     ecut=    80.00 Ry     beta= 0.20
     Davidson diagonalization with overlap
     c_bands:  1 eigenvalues not converged
     ethr =  8.46E-06,  avg # of iterations = 15.5

     negative rho (up, down):  6.747E-02 0.000E+00

     total cpu time spent up to now is      138.7 secs

     total energy              =    -661.56648627 Ry
     estimated scf accuracy    <       0.04314970 Ry

     iteration # 15     ecut=    80.00 Ry     beta= 0.20
     Davidson diagonalization with overlap
     ethr =  8.46E-06,  avg # of iterations =  7.2

     negative rho (up, down):  3.036E-02 0.000E+00

     total cpu time spent up to now is      147.4 secs

     total energy              =    -661.56451781 Ry
     estimated scf accuracy    <       0.01587947 Ry

     iteration # 16     ecut=    80.00 Ry     beta= 0.20
     Davidson diagonalization with overlap
     ethr =  8.46E-06,  avg # of iterations =  9.2

     negative rho (up, down):  1.959E-02 0.000E+00

     total cpu time spent up to now is      157.1 secs

     total energy              =    -661.56566548 Ry
     estimated scf accuracy    <       0.00013258 Ry

     iteration # 17     ecut=    80.00 Ry     beta= 0.20
     Davidson diagonalization with overlap
     c_bands:  1 eigenvalues not converged
     ethr =  1.00E-07,  avg # of iterations = 10.1

     negative rho (up, down):  1.373E-02 0.000E+00

     total cpu time spent up to now is      169.2 secs

     total energy              =    -661.56591210 Ry
     estimated scf accuracy    <       0.00021381 Ry

     iteration # 18     ecut=    80.00 Ry     beta= 0.20
     Davidson diagonalization with overlap
     ethr =  1.00E-07,  avg # of iterations =  3.1

     negative rho (up, down):  7.324E-03 0.000E+00

     total cpu time spent up to now is      176.4 secs

     total energy              =    -661.56594496 Ry
     estimated scf accuracy    <       0.00007683 Ry

     iteration # 19     ecut=    80.00 Ry     beta= 0.20
     Davidson diagonalization with overlap
     ethr =  5.82E-08,  avg # of iterations = 11.9

     negative rho (up, down):  1.855E-03 0.000E+00

     total cpu time spent up to now is      186.9 secs

     total energy              =    -661.56593556 Ry
     estimated scf accuracy    <       0.00002764 Ry

     iteration # 20     ecut=    80.00 Ry     beta= 0.20
     Davidson diagonalization with overlap
     c_bands:  1 eigenvalues not converged
     c_bands:  1 eigenvalues not converged
     ethr =  2.09E-08,  avg # of iterations = 12.1

     negative rho (up, down):  3.212E-04 0.000E+00

     total cpu time spent up to now is      197.4 secs

     total energy              =    -661.56597384 Ry
     estimated scf accuracy    <       0.00001184 Ry

     iteration # 21     ecut=    80.00 Ry     beta= 0.20
     Davidson diagonalization with overlap
     c_bands:  1 eigenvalues not converged
     ethr =  8.97E-09,  avg # of iterations = 12.9

     negative rho (up, down):  3.911E-04 0.000E+00

     total cpu time spent up to now is      208.8 secs

     total energy              =    -661.56597856 Ry
     estimated scf accuracy    <       0.00000175 Ry

     iteration # 22     ecut=    80.00 Ry     beta= 0.20
     Davidson diagonalization with overlap
     ethr =  1.33E-09,  avg # of iterations =  4.8

     negative rho (up, down):  2.688E-04 0.000E+00

     total cpu time spent up to now is      217.9 secs

     End of self-consistent calculation

          k = 0.0000 0.0000 0.0000 (218227 PWs)   bands (ev):

   -49.1194 -49.1194 -49.1194 -49.1194 -49.0535 -49.0535 -49.0535 -49.0535
   -48.4900 -48.4900 -48.4899 -48.4899 -48.2708 -48.2708 -48.2707 -48.2707
   -48.2385 -48.2385 -48.2384 -48.2384 -48.1225 -48.1170 -48.1170 -48.1168
   -48.1139 -48.1139 -48.1115 -48.1106 -48.1046 -48.1042 -48.1039 -48.1039
   -48.0996 -48.0984 -48.0957 -48.0942 -48.0757 -48.0755 -48.0744 -48.0743
   -48.0480 -48.0474 -48.0450 -48.0444  -4.9822  -4.5200  -3.7564  -3.6830
    -3.6815  -3.2561  -3.2491  -3.2259  -3.2125  -2.8136  -2.8016  -2.8007
    -2.7694  -2.7647  -2.5452  -2.4163  -2.3467  -2.2853  -2.0183  -1.9533
    -1.7805  -1.7322  -1.6177  -1.4469  -1.4185  -1.3251  -1.2649  -1.0609
    -0.9931  -0.8840  -0.8657  -0.7650  -0.7112  -0.5882  -0.4914  -0.4828
    -0.2212  -0.1339   0.0033   0.1172   0.1364   0.1822   0.2065   0.2903
     0.3744   0.6976   0.9833   1.0880   1.0925   1.1341   1.1370   1.2081
     1.2677   1.4347   1.7040

          k = 0.0000 0.1508 0.0000 (218165 PWs)   bands (ev):

   -49.1194 -49.1194 -49.1194 -49.1194 -49.0535 -49.0535 -49.0535 -49.0535
   -48.4900 -48.4900 -48.4899 -48.4899 -48.2708 -48.2708 -48.2707 -48.2707
   -48.2385 -48.2385 -48.2384 -48.2384 -48.1225 -48.1170 -48.1170 -48.1168
   -48.1139 -48.1139 -48.1115 -48.1106 -48.1046 -48.1042 -48.1039 -48.1039
   -48.0996 -48.0984 -48.0957 -48.0942 -48.0757 -48.0755 -48.0744 -48.0743
   -48.0480 -48.0474 -48.0450 -48.0444  -4.9552  -4.4929  -3.7652  -3.7307
    -3.6548  -3.5451  -3.3018  -3.1799  -3.1128  -3.0673  -2.8139  -2.7485
    -2.6753  -2.5120  -2.4540  -2.3919  -2.3163  -2.3119  -2.0082  -1.9058
    -1.7565  -1.6635  -1.6177  -1.5656  -1.3661  -1.3467  -1.3303  -1.2471
    -1.0286  -0.8863  -0.7905  -0.7450  -0.6412  -0.5704  -0.4022  -0.2410
    -0.2200  -0.2092  -0.1671  -0.0385   0.1511   0.2994   0.3528   0.3744
     0.4860   0.6056   0.8158   0.8629   1.1285   1.1573   1.2218   1.2469
     1.2820   1.3670   1.5330

          k = 0.0000 0.3015 0.0000 (218084 PWs)   bands (ev):

   -49.1194 -49.1194 -49.1194 -49.1194 -49.0535 -49.0535 -49.0535 -49.0535
   -48.4900 -48.4900 -48.4899 -48.4899 -48.2708 -48.2708 -48.2707 -48.2707
   -48.2385 -48.2385 -48.2384 -48.2384 -48.1224 -48.1170 -48.1170 -48.1168
   -48.1139 -48.1139 -48.1115 -48.1107 -48.1048 -48.1042 -48.1040 -48.1039
   -48.0994 -48.0984 -48.0957 -48.0942 -48.0757 -48.0755 -48.0744 -48.0743
   -48.0480 -48.0474 -48.0450 -48.0444  -4.8741  -4.4118  -4.0057  -3.7929
    -3.6654  -3.5104  -3.3707  -3.3610  -3.2951  -2.9143  -2.8753  -2.7994
    -2.6094  -2.5495  -2.2896  -2.1548  -2.1058  -2.0756  -2.0639  -1.8605
    -1.7846  -1.7263  -1.6448  -1.5841  -1.5685  -1.2560  -1.1660  -1.1179
    -1.0121  -0.9699  -0.9653  -0.7517  -0.6202  -0.5354  -0.3674  -0.2668
    -0.2162  -0.1796   0.0289   0.0885   0.1719   0.2371   0.3509   0.3881
     0.4781   0.6039   0.6048   0.7999   0.8814   1.1200   1.2097   1.3420
     1.3612   1.4019   1.5205

          k = 0.0000 0.4523 0.0000 (218136 PWs)   bands (ev):

   -49.1194 -49.1194 -49.1194 -49.1194 -49.0535 -49.0535 -49.0535 -49.0535
   -48.4900 -48.4900 -48.4899 -48.4899 -48.2708 -48.2708 -48.2707 -48.2707
   -48.2385 -48.2385 -48.2384 -48.2384 -48.1223 -48.1170 -48.1170 -48.1168
   -48.1139 -48.1139 -48.1115 -48.1107 -48.1049 -48.1042 -48.1040 -48.1039
   -48.0993 -48.0984 -48.0956 -48.0942 -48.0757 -48.0755 -48.0744 -48.0743
   -48.0480 -48.0474 -48.0450 -48.0444  -4.7391  -4.3157  -4.2636  -3.8425
    -3.7652  -3.5452  -3.4935  -3.3015  -3.1130  -3.0674  -3.0587  -2.6747
    -2.5126  -2.5039  -2.4542  -2.3117  -2.0532  -2.0087  -1.9052  -1.7532
    -1.6634  -1.6176  -1.5005  -1.3650  -1.3566  -1.3306  -1.2490  -1.0709
    -1.0288  -1.0209  -0.8853  -0.7741  -0.6419  -0.4711  -0.4584  -0.4008
    -0.3616  -0.2201  -0.0393   0.0157   0.0619   0.1509   0.3540   0.5243
     0.6061   0.6270   0.6535   0.6916   1.1061   1.1578   1.2249   1.2471
     1.3991   1.4434   1.5539

          k = 0.0000-0.6030 0.0000 (218100 PWs)   bands (ev):

   -49.1194 -49.1194 -49.1194 -49.1194 -49.0535 -49.0535 -49.0535 -49.0535
   -48.4900 -48.4900 -48.4899 -48.4899 -48.2708 -48.2708 -48.2707 -48.2707
   -48.2385 -48.2385 -48.2384 -48.2384 -48.1223 -48.1170 -48.1170 -48.1168
   -48.1139 -48.1139 -48.1115 -48.1108 -48.1050 -48.1042 -48.1041 -48.1039
   -48.0993 -48.0984 -48.0956 -48.0942 -48.0757 -48.0755 -48.0744 -48.0743
   -48.0480 -48.0474 -48.0450 -48.0444  -4.5650  -4.5338  -4.1070  -4.0593
    -3.6830  -3.6815  -3.3391  -3.2671  -3.2255  -3.2127  -2.8018  -2.8009
    -2.5443  -2.4162  -2.3474  -2.3472  -2.2861  -2.2630  -1.7303  -1.6173
    -1.4496  -1.4191  -1.3242  -1.3133  -1.3004  -1.2647  -1.2567  -1.1989
    -1.1061  -0.9933  -0.8841  -0.8451  -0.7116  -0.5059  -0.5051  -0.4811
    -0.2741  -0.2635  -0.2220  -0.1338  -0.0063   0.2061   0.3757   0.4926
     0.5826   0.6991   0.8600   0.8735   1.0882   1.1345   1.1638   1.2673
     1.4457   1.5770   1.5982

          k = 0.1429 0.0431 0.0000 (218195 PWs)   bands (ev):

   -49.1194 -49.1194 -49.1194 -49.1194 -49.0535 -49.0535 -49.0535 -49.0535
   -48.4900 -48.4900 -48.4899 -48.4899 -48.2708 -48.2708 -48.2707 -48.2707
   -48.2385 -48.2385 -48.2384 -48.2384 -48.1224 -48.1181 -48.1170 -48.1160
   -48.1141 -48.1135 -48.1115 -48.1107 -48.1045 -48.1042 -48.1039 -48.1039
   -48.0995 -48.0984 -48.0957 -48.0943 -48.0756 -48.0754 -48.0745 -48.0744
   -48.0480 -48.0474 -48.0450 -48.0445  -4.9557  -4.4935  -4.0268  -3.7300
    -3.5651  -3.3483  -3.2829  -3.1045  -3.0303  -2.8788  -2.8671  -2.7620
    -2.7589  -2.6331  -2.5609  -2.5240  -2.1256  -2.0827  -2.0208  -1.8898
    -1.8417  -1.7554  -1.7453  -1.6197  -1.3891  -1.2740  -1.1932  -1.0900
    -0.9915  -0.8747  -0.8141  -0.7948  -0.7520  -0.7207  -0.6323  -0.3967
    -0.2557  -0.1988  -0.0994   0.0062   0.0677   0.1664   0.2906   0.2951
     0.4297   0.6959   0.7114   0.8472   1.1138   1.1643   1.1829   1.2543
     1.2821   1.4999   1.6746

          k = 0.1429 0.1938 0.0000 (218178 PWs)   bands (ev):

   -49.1194 -49.1194 -49.1194 -49.1194 -49.0535 -49.0535 -49.0535 -49.0535
   -48.4900 -48.4900 -48.4899 -48.4899 -48.2708 -48.2708 -48.2707 -48.2707
   -48.2385 -48.2385 -48.2384 -48.2384 -48.1223 -48.1181 -48.1170 -48.1160
   -48.1141 -48.1135 -48.1115 -48.1108 -48.1046 -48.1042 -48.1039 -48.1039
   -48.0995 -48.0984 -48.0956 -48.0943 -48.0756 -48.0754 -48.0745 -48.0744
   -48.0480 -48.0474 -48.0450 -48.0445  -4.9132  -4.4509  -4.0936  -3.7373
    -3.6884  -3.6307  -3.2591  -3.1290  -2.8874  -2.8110  -2.7404  -2.6870
    -2.6287  -2.6267  -2.4479  -2.3453  -2.2284  -2.1753  -2.0749  -1.9800
    -1.8435  -1.7218  -1.7088  -1.5437  -1.4682  -1.4679  -1.3712  -1.1728
    -1.0192  -1.0024  -0.8717  -0.7203  -0.6455  -0.4852  -0.4626  -0.3197
    -0.2963  -0.2614  -0.1973   0.0554   0.1475   0.2605   0.2969   0.4948
     0.4951   0.6222   0.6972   0.8131   0.9327   1.1667   1.1772   1.2675
     1.3088   1.4684   1.6772

          k = 0.1429 0.3446 0.0000 (218103 PWs)   bands (ev):

   -49.1194 -49.1194 -49.1194 -49.1194 -49.0535 -49.0535 -49.0535 -49.0535
   -48.4900 -48.4900 -48.4899 -48.4899 -48.2708 -48.2708 -48.2707 -48.2707
   -48.2385 -48.2385 -48.2384 -48.2384 -48.1222 -48.1181 -48.1170 -48.1160
   -48.1141 -48.1135 -48.1115 -48.1108 -48.1048 -48.1042 -48.1040 -48.1039
   -48.0994 -48.0984 -48.0956 -48.0943 -48.0756 -48.0754 -48.0745 -48.0744
   -48.0480 -48.0474 -48.0450 -48.0445  -4.8167  -4.3547  -4.1055  -4.0711
    -3.6498  -3.6424  -3.5342  -3.0484  -2.9155  -2.8936  -2.8437  -2.5882
    -2.5717  -2.4899  -2.4396  -2.2577  -2.1168  -2.0733  -1.9745  -1.8596
    -1.8312  -1.7945  -1.7068  -1.6330  -1.5379  -1.3505  -1.1960  -1.1682
    -1.0650  -0.9951  -0.8670  -0.7798  -0.6278  -0.6013  -0.5265  -0.2715
    -0.1931  -0.1730   0.0311   0.0553   0.1256   0.2104   0.2678   0.3870
     0.5475   0.5547   0.6686   0.6728   0.9883   1.1628   1.1898   1.2744
     1.4363   1.4466   1.5953

          k = 0.1429 0.4953 0.0000 (218084 PWs)   bands (ev):

   -49.1194 -49.1194 -49.1194 -49.1194 -49.0535 -49.0535 -49.0535 -49.0535
   -48.4900 -48.4900 -48.4899 -48.4899 -48.2708 -48.2708 -48.2707 -48.2707
   -48.2385 -48.2385 -48.2384 -48.2384 -48.1221 -48.1181 -48.1170 -48.1160
   -48.1141 -48.1135 -48.1115 -48.1109 -48.1049 -48.1042 -48.1041 -48.1039
   -48.0993 -48.0984 -48.0955 -48.0943 -48.0756 -48.0754 -48.0745 -48.0743
   -48.0480 -48.0475 -48.0450 -48.0444  -4.6664  -4.3576  -4.1995  -4.0622
    -3.8906  -3.5998  -3.4233  -3.2234  -3.1073  -2.8837  -2.8699  -2.7310
    -2.6485  -2.4321  -2.4240  -2.2060  -2.1033  -2.0190  -1.8758  -1.8127
    -1.6490  -1.5761  -1.5082  -1.4208  -1.3892  -1.2505  -1.2328  -1.1819
    -1.0706  -0.9582  -0.8625  -0.7571  -0.6966  -0.6813  -0.4404  -0.4005
    -0.3335  -0.2343  -0.1075  -0.0289   0.0417   0.2110   0.3240   0.3603
     0.4615   0.6749   0.7044   0.7616   1.0366   1.1685   1.1894   1.2849
     1.4069   1.4870   1.6464

          k = 0.1429-0.5599 0.0000 (218137 PWs)   bands (ev):

   -49.1194 -49.1194 -49.1194 -49.1194 -49.0535 -49.0535 -49.0535 -49.0535
   -48.4900 -48.4900 -48.4899 -48.4899 -48.2708 -48.2708 -48.2707 -48.2707
   -48.2385 -48.2385 -48.2384 -48.2384 -48.1221 -48.1180 -48.1170 -48.1161
   -48.1141 -48.1135 -48.1115 -48.1109 -48.1049 -48.1042 -48.1041 -48.1039
   -48.0992 -48.0984 -48.0955 -48.0942 -48.0756 -48.0754 -48.0745 -48.0743
   -48.0480 -48.0475 -48.0450 -48.0444  -4.5864  -4.4592  -4.1225  -3.9908
    -3.9640  -3.5048  -3.3484  -3.3455  -3.2129  -3.2054  -2.8999  -2.7905
    -2.6788  -2.3557  -2.3424  -2.2027  -2.1459  -1.9990  -1.8860  -1.7442
    -1.3839  -1.3598  -1.3332  -1.2808  -1.2645  -1.2145  -1.1956  -1.1501
    -1.1410  -1.0655  -0.9436  -0.8203  -0.7259  -0.6953  -0.4905  -0.4443
    -0.3380  -0.2120  -0.1152  -0.0768  -0.0614   0.1190   0.3200   0.3646
     0.4018   0.6523   0.7648   0.8314   0.9508   1.1424   1.1960   1.2284
     1.4536   1.5408   1.6800

          k = 0.1429-0.4092 0.0000 (218073 PWs)   bands (ev):

   -49.1194 -49.1194 -49.1194 -49.1194 -49.0535 -49.0535 -49.0535 -49.0535
   -48.4900 -48.4900 -48.4899 -48.4899 -48.2708 -48.2708 -48.2707 -48.2707
   -48.2385 -48.2385 -48.2384 -48.2384 -48.1222 -48.1179 -48.1170 -48.1161
   -48.1141 -48.1135 -48.1115 -48.1109 -48.1049 -48.1042 -48.1040 -48.1039
   -48.0993 -48.0984 -48.0956 -48.0942 -48.0756 -48.0754 -48.0745 -48.0744
   -48.0480 -48.0475 -48.0450 -48.0445  -4.7588  -4.2997  -4.1955  -3.8118
    -3.7439  -3.5087  -3.4997  -3.4231  -3.3402  -3.0377  -2.9589  -2.9536
    -2.5737  -2.5225  -2.2745  -2.1770  -1.9897  -1.9569  -1.8790  -1.6348
    -1.5673  -1.5463  -1.4540  -1.4409  -1.3411  -1.2419  -1.2117  -1.1736
    -0.9387  -0.9125  -0.8799  -0.8020  -0.6790  -0.6436  -0.4897  -0.4164
    -0.2693  -0.2257  -0.0203   0.0540   0.0646   0.0710   0.1832   0.2366
     0.3720   0.4682   0.5899   0.6946   1.0483   1.1601   1.1702   1.3054
     1.4324   1.5049   1.5582

          k = 0.1429-0.2584 0.0000 (218152 PWs)   bands (ev):

   -49.1194 -49.1194 -49.1194 -49.1194 -49.0535 -49.0535 -49.0535 -49.0535
   -48.4900 -48.4900 -48.4899 -48.4899 -48.2708 -48.2708 -48.2707 -48.2707
   -48.2385 -48.2385 -48.2384 -48.2384 -48.1223 -48.1179 -48.1170 -48.1161
   -48.1141 -48.1135 -48.1115 -48.1108 -48.1047 -48.1042 -48.1040 -48.1039
   -48.0994 -48.0984 -48.0956 -48.0942 -48.0756 -48.0754 -48.0745 -48.0744
   -48.0480 -48.0474 -48.0450 -48.0445  -4.8785  -4.4161  -3.8867  -3.7314
    -3.6590  -3.6014  -3.4323  -3.4031  -3.2676  -3.1350  -2.9653  -2.7368
    -2.5636  -2.5050  -2.4101  -2.3594  -2.1934  -1.9743  -1.8305  -1.7216
    -1.6199  -1.5650  -1.5441  -1.4393  -1.4033  -1.2931  -1.2178  -1.2134
    -1.0911  -0.8475  -0.8367  -0.7129  -0.6179  -0.5275  -0.4955  -0.4025
    -0.2810  -0.2490  -0.1725  -0.0156   0.0507   0.1906   0.2308   0.3234
     0.4028   0.4235   0.5880   0.7052   0.9521   1.1759   1.1763   1.3216
     1.3561   1.4821   1.6322

          k = 0.1429-0.1077 0.0000 (218136 PWs)   bands (ev):

   -49.1194 -49.1194 -49.1194 -49.1194 -49.0535 -49.0535 -49.0535 -49.0535
   -48.4900 -48.4900 -48.4899 -48.4899 -48.2708 -48.2708 -48.2707 -48.2707
   -48.2385 -48.2385 -48.2384 -48.2384 -48.1224 -48.1180 -48.1170 -48.1161
   -48.1141 -48.1135 -48.1115 -48.1107 -48.1046 -48.1042 -48.1039 -48.1039
   -48.0995 -48.0984 -48.0956 -48.0942 -48.0756 -48.0754 -48.0745 -48.0744
   -48.0480 -48.0474 -48.0450 -48.0445  -4.9441  -4.4819  -3.9053  -3.7188
    -3.5208  -3.4527  -3.3791  -3.3366  -3.0490  -2.9304  -2.9107  -2.8876
    -2.7471  -2.6536  -2.4479  -2.2419  -2.1984  -2.1816  -2.0979  -1.7619
    -1.7452  -1.6954  -1.6633  -1.2946  -1.2811  -1.2312  -1.2280  -1.1450
    -1.0438  -0.9444  -0.9060  -0.7423  -0.7263  -0.6515  -0.5153  -0.4404
    -0.3416  -0.1465  -0.0997  -0.0525   0.0159   0.0896   0.2946   0.3030
     0.4292   0.5813   0.6587   0.8990   0.9939   1.1799   1.1866   1.2443
     1.2707   1.4905   1.7034

          k = 0.2857 0.0861 0.0000 (218176 PWs)   bands (ev):

   -49.1194 -49.1194 -49.1194 -49.1194 -49.0535 -49.0535 -49.0535 -49.0535
   -48.4900 -48.4900 -48.4899 -48.4899 -48.2708 -48.2708 -48.2707 -48.2707
   -48.2385 -48.2385 -48.2384 -48.2384 -48.1219 -48.1192 -48.1168 -48.1159
   -48.1135 -48.1130 -48.1117 -48.1111 -48.1045 -48.1042 -48.1039 -48.1039
   -48.0994 -48.0986 -48.0954 -48.0945 -48.0755 -48.0753 -48.0747 -48.0745
   -48.0479 -48.0475 -48.0449 -48.0445  -4.8763  -4.4139  -4.3190  -3.8560
    -3.6509  -3.3910  -3.1999  -3.1010  -2.9286  -2.8963  -2.8418  -2.7270
    -2.6808  -2.4407  -2.3764  -2.2019  -2.1571  -2.1227  -2.0041  -1.9193
    -1.7496  -1.6857  -1.6581  -1.6111  -1.5974  -1.2850  -1.2182  -1.1155
    -1.0470  -1.0051  -0.9959  -0.9465  -0.7737  -0.7113  -0.6424  -0.6136
    -0.5023  -0.2434  -0.0448  -0.0286   0.0293   0.1372   0.1598   0.3608
     0.5019   0.5430   0.5711   0.7559   0.9782   1.1729   1.2935   1.3417
     1.3606   1.4910   1.5851

          k = 0.2857 0.2369 0.0000 (218183 PWs)   bands (ev):

   -49.1194 -49.1194 -49.1194 -49.1194 -49.0535 -49.0535 -49.0535 -49.0535
   -48.4900 -48.4900 -48.4899 -48.4899 -48.2708 -48.2708 -48.2707 -48.2707
   -48.2385 -48.2385 -48.2384 -48.2384 -48.1219 -48.1193 -48.1168 -48.1159
   -48.1135 -48.1130 -48.1117 -48.1112 -48.1046 -48.1042 -48.1039 -48.1039
   -48.0993 -48.0986 -48.0954 -48.0945 -48.0755 -48.0753 -48.0747 -48.0745
   -48.0479 -48.0475 -48.0449 -48.0445  -4.8182  -4.3698  -4.3558  -3.9066
    -3.7643  -3.5966  -3.2846  -3.1484  -2.8225  -2.6681  -2.6611  -2.4732
    -2.4699  -2.4645  -2.4031  -2.3694  -2.2278  -2.1580  -2.0245  -1.9944
    -1.9769  -1.6508  -1.6088  -1.4698  -1.4584  -1.4424  -1.3165  -1.2680
    -1.2241  -1.2021  -0.9452  -0.7015  -0.6968  -0.6679  -0.5710  -0.4499
    -0.3397  -0.2822  -0.2056  -0.0684  -0.0390   0.1123   0.3931   0.4090
     0.4639   0.5949   0.6868   0.7641   0.8685   1.0829   1.2864   1.3632
     1.3968   1.5048   1.5948

          k = 0.2857 0.3877 0.0000 (218098 PWs)   bands (ev):

   -49.1194 -49.1194 -49.1194 -49.1194 -49.0535 -49.0535 -49.0535 -49.0535
   -48.4900 -48.4900 -48.4899 -48.4899 -48.2708 -48.2708 -48.2707 -48.2707
   -48.2385 -48.2385 -48.2384 -48.2384 -48.1218 -48.1193 -48.1168 -48.1159
   -48.1135 -48.1130 -48.1117 -48.1112 -48.1047 -48.1042 -48.1040 -48.1039
   -48.0992 -48.0986 -48.0954 -48.0945 -48.0755 -48.0753 -48.0746 -48.0745
   -48.0479 -48.0475 -48.0449 -48.0445  -4.7061  -4.3659  -4.2453  -4.0824
    -3.9027  -3.6348  -3.4516  -3.1448  -2.8792  -2.8492  -2.6953  -2.4694
    -2.4401  -2.4307  -2.3936  -2.2409  -2.1657  -1.9705  -1.9594  -1.8997
    -1.8349  -1.6546  -1.5851  -1.5293  -1.4804  -1.4164  -1.2911  -1.2332
    -1.1858  -1.0605  -0.8832  -0.7601  -0.7334  -0.5722  -0.5308  -0.3688
    -0.3193  -0.2231  -0.1763  -0.1094  -0.0384   0.1161   0.2076   0.3638
     0.3934   0.6018   0.6201   0.8235   0.8547   1.0300   1.2863   1.3715
     1.4484   1.5398   1.6172

          k = 0.2857 0.5384 0.0000 (218081 PWs)   bands (ev):

   -49.1194 -49.1194 -49.1194 -49.1194 -49.0535 -49.0535 -49.0535 -49.0535
   -48.4900 -48.4900 -48.4899 -48.4899 -48.2708 -48.2708 -48.2707 -48.2707
   -48.2385 -48.2385 -48.2384 -48.2384 -48.1217 -48.1192 -48.1168 -48.1159
   -48.1135 -48.1130 -48.1117 -48.1113 -48.1048 -48.1043 -48.1040 -48.1039
   -48.0991 -48.0986 -48.0953 -48.0945 -48.0755 -48.0753 -48.0746 -48.0745
   -48.0479 -48.0475 -48.0449 -48.0445  -4.5407  -4.3530  -4.3073  -4.0759
    -3.8858  -3.8444  -3.3010  -3.2495  -3.1028  -3.0914  -2.8629  -2.7729
    -2.3945  -2.3096  -2.1744  -2.1418  -2.1018  -1.9785  -1.9134  -1.7173
    -1.6443  -1.6078  -1.5537  -1.3547  -1.2966  -1.2102  -1.1274  -1.1027
    -1.0633  -1.0429  -1.0053  -0.9285  -0.7633  -0.6224  -0.4962  -0.4602
    -0.2851  -0.2462  -0.2274  -0.0430  -0.0181   0.1047   0.1529   0.1563
     0.3783   0.5541   0.6835   0.7445   0.8002   0.9586   1.2888   1.3439
     1.3763   1.4204   1.6680

          k = 0.2857-0.5169 0.0000 (218099 PWs)   bands (ev):

   -49.1194 -49.1194 -49.1194 -49.1194 -49.0535 -49.0535 -49.0535 -49.0535
   -48.4900 -48.4900 -48.4899 -48.4899 -48.2708 -48.2708 -48.2707 -48.2707
   -48.2385 -48.2385 -48.2384 -48.2384 -48.1217 -48.1191 -48.1168 -48.1159
   -48.1135 -48.1130 -48.1117 -48.1113 -48.1048 -48.1043 -48.1040 -48.1039
   -48.0991 -48.0986 -48.0953 -48.0945 -48.0755 -48.0753 -48.0746 -48.0745
   -48.0479 -48.0475 -48.0449 -48.0445  -4.5674  -4.3190  -4.1941  -4.1018
    -3.8523  -3.7336  -3.5670  -3.3263  -3.1285  -3.0699  -2.9640  -2.9463
    -2.5088  -2.3353  -2.3247  -2.0685  -1.9898  -1.8336  -1.7295  -1.6397
    -1.4605  -1.4286  -1.3908  -1.3342  -1.3265  -1.1925  -1.1334  -1.1177
    -1.1085  -1.0407  -0.8711  -0.7845  -0.7349  -0.6836  -0.4888  -0.4541
    -0.3739  -0.2778  -0.2205  -0.1546  -0.0501   0.0395   0.1139   0.1650
     0.3600   0.3795   0.6153   0.6746   0.8040   0.9664   1.2429   1.2697
     1.3791   1.4374   1.6981

          k = 0.2857-0.3661 0.0000 (218135 PWs)   bands (ev):

   -49.1194 -49.1194 -49.1194 -49.1194 -49.0535 -49.0535 -49.0535 -49.0535
   -48.4900 -48.4900 -48.4899 -48.4899 -48.2708 -48.2708 -48.2707 -48.2707
   -48.2385 -48.2385 -48.2384 -48.2384 -48.1218 -48.1191 -48.1168 -48.1160
   -48.1136 -48.1130 -48.1117 -48.1112 -48.1047 -48.1044 -48.1040 -48.1039
   -48.0992 -48.0985 -48.0954 -48.0944 -48.0754 -48.0753 -48.0747 -48.0745
   -48.0479 -48.0475 -48.0449 -48.0445  -4.7254  -4.2639  -4.0407  -4.0276
    -3.8382  -3.6018  -3.5644  -3.4619  -3.3752  -3.0169  -2.8107  -2.8022
    -2.6387  -2.4905  -2.4859  -1.9709  -1.8686  -1.8012  -1.7686  -1.5877
    -1.5752  -1.5674  -1.4776  -1.4474  -1.2033  -1.1467  -1.0520  -1.0476
    -1.0232  -0.9099  -0.8378  -0.7811  -0.7434  -0.6460  -0.5402  -0.4621
    -0.4219  -0.4121  -0.2095  -0.1590  -0.0916   0.0031   0.1466   0.2090
     0.2547   0.3886   0.4130   0.6142   0.8182   1.0400   1.2574   1.2899
     1.4556   1.5432   1.6115

          k = 0.2857-0.2154 0.0000 (218153 PWs)   bands (ev):

   -49.1194 -49.1194 -49.1194 -49.1194 -49.0535 -49.0535 -49.0535 -49.0535
   -48.4900 -48.4900 -48.4899 -48.4899 -48.2708 -48.2708 -48.2707 -48.2707
   -48.2385 -48.2385 -48.2384 -48.2384 -48.1219 -48.1191 -48.1168 -48.1160
   -48.1136 -48.1130 -48.1117 -48.1112 -48.1046 -48.1044 -48.1039 -48.1039
   -48.0993 -48.0985 -48.0954 -48.0944 -48.0754 -48.0753 -48.0747 -48.0745
   -48.0479 -48.0475 -48.0449 -48.0445  -4.8299  -4.3674  -4.0545  -3.8041
    -3.7144  -3.6066  -3.5901  -3.3421  -3.2366  -3.0127  -2.8265  -2.6627
    -2.6153  -2.4921  -2.4783  -2.4141  -2.0434  -1.8820  -1.7717  -1.6515
    -1.5540  -1.5211  -1.4480  -1.4125  -1.2774  -1.1870  -1.1612  -1.0775
    -1.0324  -0.9249  -0.8713  -0.7716  -0.7407  -0.6791  -0.6492  -0.4562
    -0.4370  -0.3824  -0.3062  -0.2216  -0.0550   0.0125   0.1371   0.2528
     0.4214   0.4364   0.4602   0.6850   0.7824   1.0866   1.2529   1.2876
     1.3846   1.4980   1.5924

          k = 0.2857-0.0646 0.0000 (218227 PWs)   bands (ev):

   -49.1194 -49.1194 -49.1194 -49.1194 -49.0535 -49.0535 -49.0535 -49.0535
   -48.4900 -48.4900 -48.4899 -48.4899 -48.2708 -48.2708 -48.2707 -48.2707
   -48.2385 -48.2385 -48.2384 -48.2384 -48.1219 -48.1192 -48.1168 -48.1159
   -48.1135 -48.1130 -48.1117 -48.1111 -48.1045 -48.1043 -48.1039 -48.1039
   -48.0994 -48.0986 -48.0955 -48.0945 -48.0755 -48.0753 -48.0747 -48.0745
   -48.0479 -48.0475 -48.0449 -48.0445  -4.8802  -4.4178  -4.2136  -3.7522
    -3.6546  -3.5253  -3.3336  -3.0970  -2.9693  -2.9626  -2.9441  -2.8635
    -2.6846  -2.5023  -2.4948  -2.2905  -2.0697  -2.0042  -1.8791  -1.7227
    -1.7221  -1.6839  -1.5218  -1.4360  -1.2979  -1.2552  -1.2363  -1.1270
    -1.0689  -1.0325  -0.8666  -0.8080  -0.7528  -0.7101  -0.6879  -0.6764
    -0.5353  -0.3549  -0.1192   0.0036   0.0235   0.0529   0.1293   0.3382
     0.3882   0.4877   0.5294   0.6418   1.0003   1.1966   1.2467   1.2696
     1.3385   1.4930   1.5500

          k = 0.4286 0.1292 0.0000 (218191 PWs)   bands (ev):

   -49.1194 -49.1194 -49.1194 -49.1194 -49.0535 -49.0535 -49.0535 -49.0535
   -48.4900 -48.4900 -48.4900 -48.4899 -48.2708 -48.2708 -48.2707 -48.2707
   -48.2385 -48.2385 -48.2385 -48.2384 -48.1212 -48.1203 -48.1165 -48.1162
   -48.1126 -48.1125 -48.1121 -48.1118 -48.1044 -48.1043 -48.1039 -48.1039
   -48.0992 -48.0989 -48.0951 -48.0948 -48.0752 -48.0750 -48.0749 -48.0748
   -48.0478 -48.0476 -48.0448 -48.0447  -4.7438  -4.5580  -4.2811  -4.0951
    -3.5193  -3.3803  -3.3380  -3.3139  -2.9123  -2.8499  -2.6555  -2.5490
    -2.4096  -2.3418  -2.3242  -2.2076  -2.1075  -2.0657  -1.9249  -1.8491
    -1.8191  -1.8060  -1.5652  -1.4473  -1.4240  -1.4118  -1.3782  -1.3172
    -1.1890  -1.1372  -1.1082  -1.0101  -0.9400  -0.7488  -0.7445  -0.4776
    -0.4557  -0.4133  -0.2584  -0.1364   0.0917   0.1554   0.2133   0.3432
     0.4245   0.5601   0.7175   0.7196   0.8930   1.0671   1.3210   1.3269
     1.4884   1.5533   1.5855

          k = 0.4286 0.2800 0.0000 (218244 PWs)   bands (ev):

   -49.1194 -49.1194 -49.1194 -49.1194 -49.0535 -49.0535 -49.0535 -49.0535
   -48.4900 -48.4900 -48.4900 -48.4899 -48.2708 -48.2708 -48.2707 -48.2707
   -48.2385 -48.2385 -48.2385 -48.2384 -48.1212 -48.1204 -48.1165 -48.1162
   -48.1126 -48.1125 -48.1121 -48.1118 -48.1045 -48.1043 -48.1039 -48.1039
   -48.0991 -48.0989 -48.0951 -48.0948 -48.0752 -48.0750 -48.0749 -48.0747
   -48.0478 -48.0477 -48.0448 -48.0447  -4.6701  -4.5931  -4.2076  -4.1302
    -3.7383  -3.4553  -3.3687  -3.2536  -2.9238  -2.8030  -2.5648  -2.4773
    -2.4075  -2.3892  -2.3448  -2.1573  -2.1493  -2.0688  -1.9755  -1.7434
    -1.7404  -1.6748  -1.6061  -1.5585  -1.5441  -1.4706  -1.4242  -1.3825
    -1.1149  -1.0361  -0.9882  -0.9119  -0.7950  -0.7512  -0.6681  -0.5459
    -0.5265  -0.3595  -0.3542  -0.1488   0.1151   0.2263   0.3048   0.3864
     0.4223   0.4349   0.5242   0.7036   0.9656   0.9820   1.3023   1.3786
     1.5888   1.6212   1.6448

          k = 0.4286 0.4307 0.0000 (218157 PWs)   bands (ev):

   -49.1194 -49.1194 -49.1194 -49.1194 -49.0535 -49.0535 -49.0535 -49.0535
   -48.4900 -48.4900 -48.4900 -48.4899 -48.2708 -48.2708 -48.2707 -48.2707
   -48.2385 -48.2385 -48.2385 -48.2384 -48.1211 -48.1203 -48.1165 -48.1162
   -48.1126 -48.1125 -48.1121 -48.1119 -48.1046 -48.1043 -48.1040 -48.1039
   -48.0990 -48.0989 -48.0951 -48.0948 -48.0752 -48.0750 -48.0749 -48.0747
   -48.0478 -48.0477 -48.0448 -48.0446  -4.5736  -4.5423  -4.1107  -4.0891
    -4.0338  -3.5866  -3.3503  -3.2967  -3.2091  -2.8073  -2.7467  -2.4894
    -2.3905  -2.3127  -2.2890  -2.0743  -2.0560  -1.9652  -1.8957  -1.8043
    -1.7919  -1.6209  -1.5682  -1.4586  -1.4314  -1.3495  -1.2802  -1.2287
    -1.0943  -0.9367  -0.8437  -0.8290  -0.7936  -0.7909  -0.6776  -0.4817
    -0.4184  -0.3358  -0.3070  -0.2762  -0.0002   0.1451   0.2553   0.2745
     0.3396   0.4064   0.5061   0.6898   0.8893   0.9325   1.2481   1.3465
     1.5156   1.5246   1.7161

          k = 0.4286 0.5815 0.0000 (218138 PWs)   bands (ev):

   -49.1194 -49.1194 -49.1194 -49.1194 -49.0535 -49.0535 -49.0535 -49.0535
   -48.4900 -48.4900 -48.4900 -48.4899 -48.2708 -48.2708 -48.2707 -48.2707
   -48.2385 -48.2385 -48.2385 -48.2384 -48.1210 -48.1203 -48.1165 -48.1162
   -48.1126 -48.1125 -48.1121 -48.1119 -48.1047 -48.1044 -48.1040 -48.1039
   -48.0989 -48.0988 -48.0951 -48.0948 -48.0752 -48.0750 -48.0749 -48.0747
   -48.0478 -48.0477 -48.0448 -48.0446  -4.4997  -4.3639  -4.2938  -4.0370
    -3.9026  -3.8241  -3.5666  -3.2864  -3.1331  -3.0849  -3.0394  -2.4533
    -2.4013  -2.2227  -2.1485  -2.1205  -2.0271  -1.9887  -1.9526  -1.6346
    -1.6068  -1.5736  -1.4326  -1.2447  -1.2081  -1.1426  -1.1396  -1.0997
    -1.0637  -0.9833  -0.9317  -0.8594  -0.7723  -0.6323  -0.6056  -0.5537
    -0.4648  -0.4083  -0.2053  -0.1832  -0.1278  -0.0227   0.1440   0.2022
     0.2993   0.3774   0.4508   0.6474   0.8098   0.8232   1.2341   1.2627
     1.4154   1.4701   1.7064

          k = 0.4286-0.4738 0.0000 (218142 PWs)   bands (ev):

   -49.1194 -49.1194 -49.1194 -49.1194 -49.0535 -49.0535 -49.0535 -49.0535
   -48.4900 -48.4900 -48.4900 -48.4899 -48.2708 -48.2708 -48.2707 -48.2707
   -48.2385 -48.2385 -48.2385 -48.2384 -48.1211 -48.1202 -48.1165 -48.1162
   -48.1127 -48.1125 -48.1121 -48.1119 -48.1047 -48.1045 -48.1040 -48.1039
   -48.0990 -48.0988 -48.0951 -48.0947 -48.0752 -48.0750 -48.0749 -48.0747
   -48.0478 -48.0477 -48.0448 -48.0446  -4.4960  -4.3715  -4.1266  -4.0274
    -3.9183  -3.8623  -3.6601  -3.4165  -3.2538  -3.1282  -2.8809  -2.6442
    -2.5435  -2.2684  -2.1488  -2.0918  -2.0459  -1.8770  -1.6545  -1.5857
    -1.4716  -1.4673  -1.3199  -1.2861  -1.2730  -1.2000  -1.1249  -1.1133
    -0.9090  -0.8930  -0.8436  -0.7674  -0.7158  -0.6711  -0.6488  -0.4850
    -0.4774  -0.3921  -0.3304  -0.2781  -0.1493  -0.0295   0.0904   0.1828
     0.2422   0.4060   0.4251   0.4689   0.6723   0.8643   1.2184   1.2419
     1.4335   1.4770   1.7448

          k = 0.4286-0.3230 0.0000 (218073 PWs)   bands (ev):

   -49.1194 -49.1194 -49.1194 -49.1194 -49.0535 -49.0535 -49.0535 -49.0535
   -48.4900 -48.4900 -48.4900 -48.4899 -48.2708 -48.2708 -48.2707 -48.2707
   -48.2385 -48.2385 -48.2385 -48.2384 -48.1211 -48.1201 -48.1165 -48.1162
   -48.1127 -48.1125 -48.1121 -48.1118 -48.1046 -48.1045 -48.1040 -48.1039
   -48.0990 -48.0987 -48.0951 -48.0947 -48.0752 -48.0750 -48.0749 -48.0747
   -48.0478 -48.0477 -48.0448 -48.0446  -4.6391  -4.1929  -4.1768  -4.1221
    -3.8306  -3.7321  -3.6534  -3.4455  -3.3239  -2.9647  -2.8741  -2.6204
    -2.5810  -2.3906  -2.0927  -2.0104  -2.0026  -1.9726  -1.8829  -1.6224
    -1.6018  -1.5034  -1.3791  -1.3321  -1.0284  -1.0247  -0.9867  -0.9616
    -0.9372  -0.9345  -0.9008  -0.8393  -0.8044  -0.7564  -0.6693  -0.6119
    -0.5909  -0.4264  -0.3551  -0.3043  -0.1369   0.0823   0.0964   0.2001
     0.2915   0.3606   0.4025   0.5451   0.6417   0.9495   1.2380   1.2813
     1.3914   1.6317   1.6692

          k = 0.4286-0.1723 0.0000 (218152 PWs)   bands (ev):

   -49.1194 -49.1194 -49.1194 -49.1194 -49.0535 -49.0535 -49.0535 -49.0535
   -48.4900 -48.4900 -48.4900 -48.4899 -48.2708 -48.2708 -48.2707 -48.2707
   -48.2385 -48.2385 -48.2385 -48.2384 -48.1212 -48.1202 -48.1165 -48.1162
   -48.1127 -48.1125 -48.1121 -48.1118 -48.1045 -48.1044 -48.1040 -48.1039
   -48.0991 -48.0987 -48.0951 -48.0947 -48.0752 -48.0750 -48.0749 -48.0748
   -48.0478 -48.0476 -48.0448 -48.0447  -4.7282  -4.3251  -4.2656  -3.9549
    -3.8567  -3.5071  -3.4898  -3.4853  -3.0854  -3.0166  -2.7168  -2.5651
    -2.5602  -2.4946  -2.2196  -2.1100  -2.0634  -2.0569  -1.8691  -1.7256
    -1.5520  -1.3792  -1.3405  -1.3277  -1.3195  -1.3141  -1.1944  -1.1928
    -1.1307  -1.0367  -0.8707  -0.8505  -0.7993  -0.7517  -0.6962  -0.4761
    -0.4629  -0.4240  -0.3986  -0.2050  -0.1553   0.0925   0.1276   0.1770
     0.3732   0.4196   0.5282   0.6241   0.7657   1.0166   1.2210   1.3212
     1.4210   1.5839   1.5961

          k = 0.4286-0.0215 0.0000 (218237 PWs)   bands (ev):

   -49.1194 -49.1194 -49.1194 -49.1194 -49.0535 -49.0535 -49.0535 -49.0535
   -48.4900 -48.4900 -48.4900 -48.4899 -48.2708 -48.2708 -48.2707 -48.2707
   -48.2385 -48.2385 -48.2385 -48.2384 -48.1213 -48.1202 -48.1165 -48.1162
   -48.1127 -48.1125 -48.1121 -48.1118 -48.1044 -48.1044 -48.1039 -48.1039
   -48.0992 -48.0988 -48.0952 -48.0948 -48.0752 -48.0750 -48.0749 -48.0748
   -48.0478 -48.0476 -48.0448 -48.0447  -4.7632  -4.4686  -4.3006  -4.0062
    -3.6587  -3.5378  -3.2766  -3.1548  -3.0939  -2.9723  -2.6381  -2.5683
    -2.5049  -2.4858  -2.4573  -2.2228  -1.9863  -1.8569  -1.8443  -1.7286
    -1.6856  -1.5924  -1.5671  -1.5346  -1.4804  -1.4592  -1.2601  -1.2007
    -1.1911  -1.0986  -1.0863  -0.8914  -0.8580  -0.7705  -0.6492  -0.6076
    -0.4942  -0.4378  -0.1945  -0.1377  -0.0504   0.1200   0.2615   0.3415
     0.4240   0.4491   0.5817   0.6613   0.7801   1.1638   1.2404   1.3303
     1.4584   1.4904   1.5741

     the Fermi energy is    -1.5666 ev

!    total energy              =    -661.56598062 Ry
     total all-electron energy =      -661.566338 Ry
     estimated scf accuracy    <       0.00000069 Ry
     smearing contrib. (-TS)   =      -0.00166971 Ry
     internal energy E=F+TS    =    -661.56431091 Ry

     The total energy is F=E-TS. E is the sum of the following terms:
     one-electron contribution =   -4170.13737483 Ry
     hartree contribution      =    2018.81827540 Ry
     xc contribution           =    -157.53007092 Ry
     ewald contribution        =    1643.40444966 Ry
     one-center paw contrib.   =       3.88040979 Ry

     convergence has been achieved in  22 iterations

     Forces acting on atoms (cartesian axes, Ry/au):

     atom    1 type  1   force =     0.00012373    0.00017074    0.00092051
     atom    2 type  1   force =    -0.00000669    0.00013138   -0.00067802
     atom    3 type  1   force =     0.00013464    0.00015448    0.00013436
     atom    4 type  1   force =    -0.00009948    0.00005422    0.00045672
     atom    5 type  1   force =     0.00004467   -0.00002052    0.00037166
     atom    6 type  1   force =    -0.00001811   -0.00003026    0.00006611
     atom    7 type  1   force =    -0.00001471    0.00003183   -0.00008309
     atom    8 type  1   force =     0.00000787   -0.00006940   -0.00024124
     atom    9 type  1   force =     0.00000931    0.00000565   -0.00054835
     atom   10 type  1   force =     0.00000294    0.00000503   -0.00012845
     atom   11 type  1   force =    -0.00012482    0.00005371    0.00026197
     atom   12 type  1   force =     0.00000093   -0.00000450    0.00013222
     atom   13 type  1   force =    -0.00000578   -0.00000016    0.00054952
     atom   14 type  1   force =    -0.00000975    0.00006851    0.00023728
     atom   15 type  1   force =     0.00001022   -0.00002763    0.00008146
     atom   16 type  1   force =     0.00001327    0.00003408   -0.00007096
     atom   17 type  1   force =    -0.00004488    0.00002792   -0.00037477
     atom   18 type  1   force =     0.00009854   -0.00005998   -0.00045235
     atom   19 type  1   force =    -0.00013206   -0.00015468   -0.00013650
     atom   20 type  1   force =     0.00000529   -0.00012652    0.00067268
     atom   21 type  1   force =    -0.00012559   -0.00017729   -0.00092259
     atom   22 type  1   force =     0.00012687   -0.00005498   -0.00026122
     atom   23 type  1   force =     0.00012616    0.00017072    0.00092153
     atom   24 type  1   force =    -0.00000654    0.00012861   -0.00068353
     atom   25 type  1   force =     0.00013440    0.00015601    0.00013530
     atom   26 type  1   force =    -0.00009443    0.00006131    0.00046415
     atom   27 type  1   force =     0.00005005   -0.00002976    0.00037594
     atom   28 type  1   force =    -0.00001460   -0.00003280    0.00006694
     atom   29 type  1   force =    -0.00001710    0.00002791   -0.00008340
     atom   30 type  1   force =     0.00000695   -0.00006817   -0.00023413
     atom   31 type  1   force =     0.00000996   -0.00000161   -0.00055035
     atom   32 type  1   force =    -0.00000081    0.00000335   -0.00012709
     atom   33 type  1   force =    -0.00012548    0.00005511    0.00026469
     atom   34 type  1   force =     0.00000134   -0.00000506    0.00012941
     atom   35 type  1   force =    -0.00000948    0.00000256    0.00055308
     atom   36 type  1   force =    -0.00000774    0.00006634    0.00023301
     atom   37 type  1   force =     0.00001458   -0.00003134    0.00008208
     atom   38 type  1   force =     0.00001123    0.00003053   -0.00006226
     atom   39 type  1   force =    -0.00004578    0.00002240   -0.00037436
     atom   40 type  1   force =     0.00009515   -0.00005723   -0.00045500
     atom   41 type  1   force =    -0.00013298   -0.00015433   -0.00014073
     atom   42 type  1   force =     0.00000512   -0.00012702    0.00068378
     atom   43 type  1   force =    -0.00012304   -0.00017354   -0.00092169
     atom   44 type  1   force =     0.00012663   -0.00005563   -0.00026434

     Total force =     0.003020     Total SCF correction =     0.000848
     SCF correction compared to forces is large: reduce conv_thr to get better values

     BFGS Geometry Optimization
     Energy error            =      9.1E-06 Ry
     Gradient error          =      9.2E-04 Ry/Bohr

     number of scf cycles    =   1
     number of bfgs steps    =   0

     energy             new  =    -661.5659806238 Ry

     new trust radius        =       0.0009478255 bohr
     new conv_thr            =       0.0000010000 Ry


ATOMIC_POSITIONS (angstrom)
Li              -2.4321783868        7.4720395324       11.6571384819
Li               2.4279457811        2.5052401208       22.1697959096
Li              -0.0010045994        4.4432294463       21.0358852305
Li               2.4328538466        6.5752327216       19.8041701482
Li               2.4265033971        0.7888481039       18.8884786943
Li               0.0001081280        2.9244033351       17.9393738751
Li               2.4315075378        5.0862118424       16.8970833810
Li              -0.0027914248        7.3161656575       15.8109781302
Li              -0.0000546819        1.4755907307       14.6422759666
Li               2.4300397642        3.7542286332       13.5945726465
Li              -0.0004558734        5.7184418832       12.7592976387
Li              -0.0010144974        1.3724190294       20.5847985369
Li               2.4290783588        3.6510555474       19.5370952333
Li               0.0027898283        5.8666327714       18.3683928027
Li               2.4265341103        8.0965905781       17.2822902193
Li               2.4289106607        2.2022452062       16.2399954219
Li               0.0025195617        4.3378001838       15.2908911528
Li               2.4251915260        6.6075624198       14.3752039192
Li               2.4300294944        0.6834169290       13.1434848299
Li               0.0010744301        2.6214099163       12.0095734554
Li               2.4321775185        5.7107593146       22.5222333373
Li               0.0004540667        7.4643573346       21.4200758362
Li               2.4258656615        7.4720290520       11.6571362640
Li               7.2859858287        2.5052381496       22.1697917904
Li               4.8570396197        4.4432306866       21.0358863857
Li               7.2909000688        6.5752385240       19.8041737974
Li               7.2845522329        0.7888434116       18.8884838665
Li               4.8581538755        2.9244028911       17.9393722223
Li               7.2895518030        5.0862080507       16.8970816044
Li               4.8552526673        7.3161667035       15.8109827423
Li               4.8579917416        1.4755900665       14.6422788285
Li               7.2880809416        3.7542234736       13.5945817986
Li               4.8575938700        5.7184391738       12.7592939680
Li               4.8570294380        1.3724181244       20.5847938790
Li               7.2871201149        3.6510578742       19.5370968651
Li               4.8608361929        5.8666321746       18.3683900844
Li               7.2845804470        8.0965884835       17.2822892353
Li               7.2869563220        2.2022412970       16.2400035456
Li               4.8605600062        4.3378002456       15.2908908678
Li               7.2832320099        6.6075628848       14.3752037463
Li               7.2880704709        0.6834130441       13.1434826989
Li               4.8591263808        2.6214027616       12.0095782707
Li               7.2902246219        5.7107610758       22.5222324947
Li               4.8584982985        7.4643569737       21.4200765469


     Message from routine punch:
     Nothing written, as per user request (disk_io='none')
     NEW-OLD atomic charge density approx. for the potential

     negative rho (up, down):  2.699E-04 0.000E+00

     total cpu time spent up to now is      220.0 secs

     Self-consistent Calculation

     iteration #  1     ecut=    80.00 Ry     beta= 0.20
     Davidson diagonalization with overlap
     ethr =  1.00E-06,  avg # of iterations =  2.0

     Threshold (ethr) on eigenvalues was too large:
     Diagonalizing with lowered threshold

     Davidson diagonalization with overlap
     ethr =  2.88E-09,  avg # of iterations =  2.0

     negative rho (up, down):  2.660E-04 0.000E+00

     total cpu time spent up to now is      236.2 secs

     total energy              =    -661.56598929 Ry
     estimated scf accuracy    <       0.00000418 Ry

     iteration #  2     ecut=    80.00 Ry     beta= 0.20
     Davidson diagonalization with overlap
     ethr =  3.16E-09,  avg # of iterations =  1.0

     negative rho (up, down):  2.512E-04 0.000E+00

     total cpu time spent up to now is      242.5 secs

     total energy              =    -661.56598889 Ry
     estimated scf accuracy    <       0.00000270 Ry

     iteration #  3     ecut=    80.00 Ry     beta= 0.20
     Davidson diagonalization with overlap
     ethr =  2.04E-09,  avg # of iterations =  1.0

     negative rho (up, down):  2.682E-04 0.000E+00

     total cpu time spent up to now is      248.7 secs

     End of self-consistent calculation

          k = 0.0000 0.0000 0.0000 (218227 PWs)   bands (ev):

   -49.1184 -49.1184 -49.1184 -49.1183 -49.0528 -49.0528 -49.0527 -49.0527
   -48.4940 -48.4940 -48.4939 -48.4939 -48.2750 -48.2750 -48.2749 -48.2749
   -48.2435 -48.2434 -48.2433 -48.2433 -48.1240 -48.1186 -48.1184 -48.1182
   -48.1157 -48.1157 -48.1132 -48.1121 -48.1061 -48.1058 -48.1056 -48.1055
   -48.1008 -48.0994 -48.0969 -48.0952 -48.0791 -48.0789 -48.0777 -48.0776
   -48.0511 -48.0504 -48.0480 -48.0475  -4.9836  -4.5216  -3.7578  -3.6844
    -3.6830  -3.2575  -3.2505  -3.2275  -3.2142  -2.8151  -2.8030  -2.8021
    -2.7708  -2.7664  -2.5467  -2.4178  -2.3484  -2.2869  -2.0197  -1.9548
    -1.7815  -1.7336  -1.6191  -1.4484  -1.4197  -1.3264  -1.2665  -1.0621
    -0.9947  -0.8852  -0.8670  -0.7663  -0.7125  -0.5897  -0.4927  -0.4841
    -0.2223  -0.1349   0.0014   0.1154   0.1354   0.1812   0.2055   0.2877
     0.3730   0.6967   0.9817   1.0830   1.0869   1.1326   1.1340   1.2109
     1.2664   1.4347   1.7002

          k = 0.0000 0.1508 0.0000 (218165 PWs)   bands (ev):

   -49.1184 -49.1184 -49.1184 -49.1183 -49.0528 -49.0528 -49.0527 -49.0527
   -48.4940 -48.4940 -48.4939 -48.4939 -48.2750 -48.2750 -48.2749 -48.2749
   -48.2435 -48.2434 -48.2433 -48.2433 -48.1240 -48.1186 -48.1184 -48.1182
   -48.1157 -48.1157 -48.1132 -48.1122 -48.1062 -48.1058 -48.1056 -48.1055
   -48.1008 -48.0994 -48.0969 -48.0952 -48.0791 -48.0789 -48.0777 -48.0776
   -48.0511 -48.0504 -48.0480 -48.0475  -4.9566  -4.4945  -3.7666  -3.7321
    -3.6562  -3.5465  -3.3034  -3.1815  -3.1143  -3.0689  -2.8153  -2.7497
    -2.6769  -2.5135  -2.4554  -2.3933  -2.3179  -2.3133  -2.0098  -1.9072
    -1.7576  -1.6649  -1.6190  -1.5671  -1.3673  -1.3479  -1.3319  -1.2485
    -1.0300  -0.8877  -0.7919  -0.7462  -0.6424  -0.5717  -0.4035  -0.2425
    -0.2212  -0.2103  -0.1688  -0.0395   0.1502   0.2969   0.3514   0.3725
     0.4849   0.6045   0.8142   0.8613   1.1175   1.1562   1.2213   1.2458
     1.2857   1.3654   1.5315

          k = 0.0000 0.3015 0.0000 (218084 PWs)   bands (ev):

   -49.1184 -49.1184 -49.1184 -49.1183 -49.0528 -49.0528 -49.0527 -49.0527
   -48.4940 -48.4940 -48.4939 -48.4939 -48.2750 -48.2750 -48.2749 -48.2749
   -48.2435 -48.2434 -48.2433 -48.2433 -48.1239 -48.1186 -48.1184 -48.1182
   -48.1157 -48.1157 -48.1132 -48.1122 -48.1064 -48.1058 -48.1056 -48.1055
   -48.1007 -48.0994 -48.0968 -48.0952 -48.0791 -48.0789 -48.0777 -48.0776
   -48.0511 -48.0504 -48.0480 -48.0474  -4.8755  -4.4134  -4.0071  -3.7943
    -3.6669  -3.5120  -3.3721  -3.3625  -3.2966  -2.9160  -2.8769  -2.8007
    -2.6107  -2.5510  -2.2910  -2.1563  -2.1072  -2.0770  -2.0653  -1.8622
    -1.7858  -1.7278  -1.6465  -1.5852  -1.5699  -1.2572  -1.1672  -1.1193
    -1.0136  -0.9713  -0.9667  -0.7529  -0.6213  -0.5365  -0.3693  -0.2681
    -0.2175  -0.1809   0.0279   0.0876   0.1705   0.2355   0.3495   0.3866
     0.4769   0.6022   0.6025   0.7982   0.8797   1.1189   1.2004   1.3409
     1.3645   1.3993   1.5193

          k = 0.0000 0.4523 0.0000 (218136 PWs)   bands (ev):

   -49.1184 -49.1184 -49.1184 -49.1183 -49.0528 -49.0528 -49.0527 -49.0527
   -48.4940 -48.4940 -48.4939 -48.4939 -48.2750 -48.2750 -48.2749 -48.2749
   -48.2435 -48.2434 -48.2433 -48.2433 -48.1238 -48.1186 -48.1184 -48.1182
   -48.1157 -48.1157 -48.1132 -48.1123 -48.1065 -48.1058 -48.1057 -48.1055
   -48.1005 -48.0994 -48.0968 -48.0952 -48.0791 -48.0789 -48.0777 -48.0776
   -48.0511 -48.0504 -48.0480 -48.0474  -4.7405  -4.3172  -4.2652  -3.8441
    -3.7666  -3.5466  -3.4949  -3.3031  -3.1145  -3.0690  -3.0601  -2.6763
    -2.5141  -2.5051  -2.4556  -2.3131  -2.0544  -2.0103  -1.9066  -1.7545
    -1.6648  -1.6189  -1.5017  -1.3663  -1.3581  -1.3322  -1.2505  -1.0723
    -1.0301  -1.0219  -0.8868  -0.7756  -0.6431  -0.4730  -0.4596  -0.4022
    -0.3630  -0.2212  -0.0403   0.0143   0.0605   0.1499   0.3526   0.5227
     0.6050   0.6256   0.6517   0.6893   1.1037   1.1568   1.2231   1.2459
     1.3894   1.4415   1.5575

          k = 0.0000-0.6030 0.0000 (218100 PWs)   bands (ev):

   -49.1184 -49.1184 -49.1184 -49.1183 -49.0528 -49.0528 -49.0527 -49.0527
   -48.4940 -48.4940 -48.4939 -48.4939 -48.2750 -48.2750 -48.2749 -48.2749
   -48.2435 -48.2434 -48.2433 -48.2433 -48.1237 -48.1186 -48.1184 -48.1182
   -48.1157 -48.1157 -48.1132 -48.1123 -48.1065 -48.1058 -48.1057 -48.1055
   -48.1005 -48.0994 -48.0968 -48.0952 -48.0791 -48.0789 -48.0777 -48.0776
   -48.0511 -48.0504 -48.0480 -48.0474  -4.5665  -4.5352  -4.1087  -4.0609
    -3.6844  -3.6829  -3.3406  -3.2685  -3.2272  -3.2143  -2.8032  -2.8023
    -2.5459  -2.4176  -2.3489  -2.3487  -2.2877  -2.2642  -1.7317  -1.6188
    -1.4510  -1.4203  -1.3256  -1.3144  -1.3017  -1.2663  -1.2578  -1.2003
    -1.1075  -0.9949  -0.8853  -0.8467  -0.7128  -0.5078  -0.5067  -0.4825
    -0.2754  -0.2647  -0.2231  -0.1348  -0.0079   0.2051   0.3742   0.4910
     0.5812   0.6982   0.8574   0.8709   1.0870   1.1330   1.1623   1.2660
     1.4433   1.5688   1.5941

          k = 0.1429 0.0431 0.0000 (218195 PWs)   bands (ev):

   -49.1184 -49.1184 -49.1184 -49.1183 -49.0528 -49.0528 -49.0527 -49.0527
   -48.4940 -48.4940 -48.4939 -48.4939 -48.2750 -48.2750 -48.2749 -48.2749
   -48.2435 -48.2434 -48.2433 -48.2433 -48.1238 -48.1195 -48.1186 -48.1174
   -48.1158 -48.1152 -48.1132 -48.1123 -48.1061 -48.1058 -48.1056 -48.1055
   -48.1008 -48.0995 -48.0968 -48.0953 -48.0791 -48.0789 -48.0778 -48.0777
   -48.0510 -48.0504 -48.0480 -48.0475  -4.9572  -4.4951  -4.0282  -3.7314
    -3.5667  -3.3497  -3.2843  -3.1059  -3.0317  -2.8805  -2.8687  -2.7635
    -2.7600  -2.6347  -2.5625  -2.5254  -2.1271  -2.0842  -2.0223  -1.8911
    -1.8432  -1.7565  -1.7466  -1.6211  -1.3907  -1.2756  -1.1944  -1.0912
    -0.9928  -0.8761  -0.8155  -0.7961  -0.7532  -0.7219  -0.6336  -0.3981
    -0.2575  -0.1999  -0.1012   0.0053   0.0666   0.1654   0.2888   0.2936
     0.4283   0.6949   0.7092   0.8448   1.1117   1.1631   1.1735   1.2585
     1.2807   1.4998   1.6727

          k = 0.1429 0.1938 0.0000 (218178 PWs)   bands (ev):

   -49.1184 -49.1184 -49.1184 -49.1183 -49.0528 -49.0528 -49.0527 -49.0527
   -48.4940 -48.4940 -48.4939 -48.4939 -48.2750 -48.2750 -48.2749 -48.2749
   -48.2435 -48.2434 -48.2433 -48.2433 -48.1238 -48.1195 -48.1186 -48.1174
   -48.1158 -48.1152 -48.1132 -48.1123 -48.1062 -48.1058 -48.1056 -48.1055
   -48.1007 -48.0995 -48.0968 -48.0953 -48.0791 -48.0789 -48.0778 -48.0777
   -48.0510 -48.0505 -48.0480 -48.0475  -4.9146  -4.4525  -4.0951  -3.7387
    -3.6898  -3.6324  -3.2607  -3.1304  -2.8888  -2.8124  -2.7416  -2.6885
    -2.6302  -2.6281  -2.4493  -2.3470  -2.2300  -2.1770  -2.0763  -1.9813
    -1.8448  -1.7228  -1.7104  -1.5451  -1.4695  -1.4693  -1.3725  -1.1741
    -1.0206  -1.0038  -0.8729  -0.7215  -0.6467  -0.4864  -0.4644  -0.3211
    -0.2975  -0.2626  -0.1985   0.0544   0.1457   0.2595   0.2951   0.4935
     0.4936   0.6201   0.6960   0.8114   0.9309   1.1583   1.1760   1.2663
     1.3125   1.4647   1.6762

          k = 0.1429 0.3446 0.0000 (218103 PWs)   bands (ev):

   -49.1184 -49.1184 -49.1184 -49.1183 -49.0528 -49.0528 -49.0527 -49.0527
   -48.4940 -48.4940 -48.4939 -48.4939 -48.2750 -48.2750 -48.2749 -48.2749
   -48.2435 -48.2434 -48.2433 -48.2433 -48.1237 -48.1196 -48.1186 -48.1174
   -48.1158 -48.1152 -48.1132 -48.1124 -48.1064 -48.1058 -48.1056 -48.1055
   -48.1006 -48.0995 -48.0967 -48.0953 -48.0791 -48.0789 -48.0778 -48.0776
   -48.0510 -48.0505 -48.0480 -48.0475  -4.8181  -4.3563  -4.1069  -4.0726
    -3.6514  -3.6440  -3.5356  -3.0498  -2.9169  -2.8951  -2.8451  -2.5899
    -2.5730  -2.4913  -2.4412  -2.2592  -2.1182  -2.0749  -1.9758  -1.8612
    -1.8324  -1.7960  -1.7083  -1.6344  -1.5391  -1.3519  -1.1974  -1.1696
    -1.0663  -0.9965  -0.8683  -0.7810  -0.6290  -0.6031  -0.5277  -0.2728
    -0.1944  -0.1742   0.0297   0.0544   0.1243   0.2089   0.2667   0.3855
     0.5462   0.5528   0.6674   0.6702   0.9867   1.1616   1.1846   1.2733
     1.4336   1.4453   1.5939

          k = 0.1429 0.4953 0.0000 (218084 PWs)   bands (ev):

   -49.1184 -49.1184 -49.1184 -49.1183 -49.0528 -49.0528 -49.0527 -49.0527
   -48.4940 -48.4940 -48.4939 -48.4939 -48.2750 -48.2750 -48.2749 -48.2749
   -48.2435 -48.2434 -48.2433 -48.2433 -48.1236 -48.1195 -48.1186 -48.1174
   -48.1158 -48.1152 -48.1132 -48.1124 -48.1065 -48.1058 -48.1057 -48.1055
   -48.1005 -48.0995 -48.0967 -48.0953 -48.0791 -48.0789 -48.0778 -48.0776
   -48.0510 -48.0505 -48.0480 -48.0475  -4.6678  -4.3590  -4.2012  -4.0636
    -3.8922  -3.6014  -3.4248  -3.2248  -3.1087  -2.8851  -2.8714  -2.7327
    -2.6499  -2.4333  -2.4256  -2.2077  -2.1045  -2.0204  -1.8772  -1.8140
    -1.6505  -1.5774  -1.5097  -1.4219  -1.3907  -1.2519  -1.2344  -1.1831
    -1.0716  -0.9596  -0.8638  -0.7586  -0.6978  -0.6831  -0.4420  -0.4017
    -0.3348  -0.2354  -0.1089  -0.0304   0.0408   0.2100   0.3225   0.3589
     0.4600   0.6733   0.7033   0.7590   1.0342   1.1673   1.1876   1.2835
     1.4037   1.4808   1.6490

          k = 0.1429-0.5599 0.0000 (218137 PWs)   bands (ev):

   -49.1184 -49.1184 -49.1184 -49.1183 -49.0528 -49.0528 -49.0527 -49.0527
   -48.4940 -48.4940 -48.4939 -48.4939 -48.2750 -48.2750 -48.2749 -48.2749
   -48.2435 -48.2434 -48.2433 -48.2433 -48.1236 -48.1194 -48.1186 -48.1174
   -48.1158 -48.1152 -48.1132 -48.1125 -48.1065 -48.1058 -48.1057 -48.1055
   -48.1005 -48.0995 -48.0967 -48.0953 -48.0791 -48.0789 -48.0778 -48.0776
   -48.0510 -48.0505 -48.0480 -48.0475  -4.5879  -4.4607  -4.1241  -3.9924
    -3.9654  -3.5064  -3.3498  -3.3469  -3.2143  -3.2067  -2.9015  -2.7921
    -2.6803  -2.3569  -2.3438  -2.2039  -2.1473  -2.0005  -1.8876  -1.7455
    -1.3854  -1.3612  -1.3343  -1.2822  -1.2659  -1.2160  -1.1968  -1.1516
    -1.1424  -1.0668  -0.9451  -0.8219  -0.7271  -0.6972  -0.4921  -0.4458
    -0.3393  -0.2133  -0.1163  -0.0778  -0.0630   0.1180   0.3185   0.3632
     0.4003   0.6513   0.7632   0.8289   0.9482   1.1410   1.1948   1.2271
     1.4496   1.5369   1.6733

          k = 0.1429-0.4092 0.0000 (218073 PWs)   bands (ev):

   -49.1184 -49.1184 -49.1184 -49.1183 -49.0528 -49.0528 -49.0527 -49.0527
   -48.4940 -48.4940 -48.4939 -48.4939 -48.2750 -48.2750 -48.2749 -48.2749
   -48.2435 -48.2434 -48.2433 -48.2433 -48.1237 -48.1194 -48.1186 -48.1175
   -48.1158 -48.1152 -48.1132 -48.1124 -48.1064 -48.1058 -48.1057 -48.1055
   -48.1005 -48.0995 -48.0967 -48.0953 -48.0791 -48.0789 -48.0778 -48.0776
   -48.0510 -48.0505 -48.0480 -48.0475  -4.7602  -4.3013  -4.1969  -3.8132
    -3.7455  -3.5101  -3.5011  -3.4245  -3.3418  -3.0393  -2.9603  -2.9552
    -2.5752  -2.5237  -2.2759  -2.1785  -1.9912  -1.9581  -1.8804  -1.6362
    -1.5689  -1.5476  -1.4554  -1.4423  -1.3424  -1.2432  -1.2131  -1.1751
    -0.9398  -0.9140  -0.8814  -0.8035  -0.6802  -0.6454  -0.4909  -0.4178
    -0.2708  -0.2269  -0.0215   0.0526   0.0632   0.0701   0.1818   0.2352
     0.3705   0.4671   0.5881   0.6920   1.0466   1.1570   1.1690   1.3042
     1.4232   1.5058   1.5602

          k = 0.1429-0.2584 0.0000 (218152 PWs)   bands (ev):

   -49.1184 -49.1184 -49.1184 -49.1183 -49.0528 -49.0528 -49.0527 -49.0527
   -48.4940 -48.4940 -48.4939 -48.4939 -48.2750 -48.2750 -48.2749 -48.2749
   -48.2435 -48.2434 -48.2433 -48.2433 -48.1237 -48.1194 -48.1186 -48.1175
   -48.1158 -48.1152 -48.1132 -48.1124 -48.1063 -48.1058 -48.1056 -48.1055
   -48.1006 -48.0995 -48.0968 -48.0953 -48.0791 -48.0789 -48.0778 -48.0777
   -48.0510 -48.0505 -48.0480 -48.0475  -4.8799  -4.4177  -3.8881  -3.7328
    -3.6604  -3.6028  -3.4337  -3.4047  -3.2693  -3.1366  -2.9669  -2.7380
    -2.5650  -2.5065  -2.4114  -2.3608  -2.1949  -1.9760  -1.8319  -1.7227
    -1.6214  -1.5663  -1.5453  -1.4409  -1.4046  -1.2947  -1.2192  -1.2147
    -1.0925  -0.8490  -0.8382  -0.7141  -0.6191  -0.5293  -0.4966  -0.4037
    -0.2823  -0.2503  -0.1739  -0.0167   0.0498   0.1888   0.2295   0.3218
     0.4017   0.4221   0.5858   0.7032   0.9506   1.1684   1.1752   1.3204
     1.3603   1.4761   1.6306

          k = 0.1429-0.1077 0.0000 (218136 PWs)   bands (ev):

   -49.1184 -49.1184 -49.1184 -49.1183 -49.0528 -49.0528 -49.0527 -49.0527
   -48.4940 -48.4940 -48.4939 -48.4939 -48.2750 -48.2750 -48.2749 -48.2749
   -48.2435 -48.2434 -48.2433 -48.2433 -48.1238 -48.1194 -48.1186 -48.1175
   -48.1158 -48.1152 -48.1132 -48.1123 -48.1062 -48.1058 -48.1056 -48.1055
   -48.1007 -48.0995 -48.0968 -48.0953 -48.0791 -48.0789 -48.0778 -48.0777
   -48.0510 -48.0504 -48.0480 -48.0475  -4.9456  -4.4835  -3.9067  -3.7202
    -3.5222  -3.4543  -3.3805  -3.3380  -3.0507  -2.9320  -2.9121  -2.8893
    -2.7483  -2.6550  -2.4495  -2.2433  -2.1998  -2.1830  -2.0994  -1.7635
    -1.7463  -1.6967  -1.6648  -1.2960  -1.2824  -1.2324  -1.2295  -1.1464
    -1.0452  -0.9459  -0.9074  -0.7435  -0.7275  -0.6528  -0.5167  -0.4418
    -0.3434  -0.1475  -0.1008  -0.0537   0.0141   0.0887   0.2923   0.3016
     0.4281   0.5802   0.6565   0.8966   0.9924   1.1705   1.1854   1.2430
     1.2749   1.4888   1.7017

          k = 0.2857 0.0861 0.0000 (218176 PWs)   bands (ev):

   -49.1184 -49.1184 -49.1184 -49.1183 -49.0528 -49.0528 -49.0527 -49.0527
   -48.4940 -48.4939 -48.4939 -48.4939 -48.2750 -48.2750 -48.2750 -48.2749
   -48.2434 -48.2434 -48.2433 -48.2433 -48.1234 -48.1207 -48.1184 -48.1174
   -48.1152 -48.1147 -48.1134 -48.1127 -48.1061 -48.1058 -48.1056 -48.1055
   -48.1006 -48.0997 -48.0966 -48.0955 -48.0789 -48.0787 -48.0780 -48.0778
   -48.0509 -48.0505 -48.0479 -48.0476  -4.8777  -4.4155  -4.3204  -3.8577
    -3.6523  -3.3924  -3.2013  -3.1025  -2.9302  -2.8977  -2.8433  -2.7286
    -2.6820  -2.4423  -2.3780  -2.2033  -2.1584  -2.1241  -2.0055  -1.9207
    -1.7513  -1.6869  -1.6595  -1.6127  -1.5988  -1.2864  -1.2193  -1.1167
    -1.0484  -1.0064  -0.9972  -0.9479  -0.7754  -0.7125  -0.6436  -0.6149
    -0.5040  -0.2447  -0.0459  -0.0299   0.0280   0.1362   0.1587   0.3592
     0.5002   0.5408   0.5698   0.7547   0.9756   1.1695   1.2921   1.3440
     1.3591   1.4815   1.5846

          k = 0.2857 0.2369 0.0000 (218183 PWs)   bands (ev):

   -49.1184 -49.1184 -49.1184 -49.1183 -49.0528 -49.0528 -49.0527 -49.0527
   -48.4940 -48.4939 -48.4939 -48.4939 -48.2750 -48.2750 -48.2750 -48.2749
   -48.2434 -48.2434 -48.2433 -48.2433 -48.1233 -48.1207 -48.1184 -48.1174
   -48.1151 -48.1147 -48.1134 -48.1127 -48.1062 -48.1058 -48.1056 -48.1055
   -48.1005 -48.0997 -48.0966 -48.0955 -48.0789 -48.0787 -48.0780 -48.0778
   -48.0509 -48.0505 -48.0479 -48.0476  -4.8197  -4.3712  -4.3574  -3.9083
    -3.7657  -3.5980  -3.2862  -3.1499  -2.8239  -2.6695  -2.6624  -2.4746
    -2.4713  -2.4659  -2.4045  -2.3710  -2.2292  -2.1595  -2.0261  -1.9961
    -1.9786  -1.6519  -1.6102  -1.4711  -1.4598  -1.4437  -1.3180  -1.2694
    -1.2255  -1.2033  -0.9470  -0.7028  -0.6981  -0.6691  -0.5723  -0.4511
    -0.3410  -0.2838  -0.2070  -0.0699  -0.0401   0.1113   0.3920   0.4074
     0.4620   0.5937   0.6849   0.7627   0.8673   1.0797   1.2851   1.3617
     1.3961   1.4938   1.6000

          k = 0.2857 0.3877 0.0000 (218098 PWs)   bands (ev):

   -49.1184 -49.1184 -49.1184 -49.1183 -49.0528 -49.0528 -49.0527 -49.0527
   -48.4940 -48.4939 -48.4939 -48.4939 -48.2750 -48.2750 -48.2750 -48.2749
   -48.2434 -48.2434 -48.2433 -48.2433 -48.1232 -48.1207 -48.1184 -48.1174
   -48.1151 -48.1147 -48.1134 -48.1128 -48.1063 -48.1058 -48.1056 -48.1055
   -48.1004 -48.0997 -48.0965 -48.0955 -48.0789 -48.0787 -48.0780 -48.0778
   -48.0509 -48.0506 -48.0479 -48.0475  -4.7075  -4.3673  -4.2469  -4.0838
    -3.9044  -3.6364  -3.4531  -3.1462  -2.8806  -2.8506  -2.6967  -2.4706
    -2.4415  -2.4322  -2.3951  -2.2425  -2.1671  -1.9721  -1.9610  -1.9010
    -1.8361  -1.6560  -1.5865  -1.5307  -1.4819  -1.4177  -1.2924  -1.2347
    -1.1871  -1.0623  -0.8844  -0.7614  -0.7347  -0.5734  -0.5321  -0.3703
    -0.3206  -0.2245  -0.1777  -0.1110  -0.0394   0.1150   0.2062   0.3627
     0.3919   0.6005   0.6180   0.8219   0.8535   1.0274   1.2850   1.3699
     1.4446   1.5336   1.6185

          k = 0.2857 0.5384 0.0000 (218081 PWs)   bands (ev):

   -49.1184 -49.1184 -49.1184 -49.1183 -49.0528 -49.0528 -49.0527 -49.0527
   -48.4940 -48.4939 -48.4939 -48.4939 -48.2750 -48.2750 -48.2750 -48.2749
   -48.2434 -48.2434 -48.2433 -48.2433 -48.1232 -48.1207 -48.1184 -48.1174
   -48.1152 -48.1147 -48.1134 -48.1128 -48.1064 -48.1058 -48.1057 -48.1055
   -48.1003 -48.0997 -48.0965 -48.0955 -48.0789 -48.0787 -48.0780 -48.0778
   -48.0509 -48.0506 -48.0479 -48.0475  -4.5422  -4.3544  -4.3087  -4.0775
    -3.8874  -3.8460  -3.3024  -3.2509  -3.1042  -3.0928  -2.8644  -2.7744
    -2.3962  -2.3108  -2.1757  -2.1432  -2.1030  -1.9799  -1.9148  -1.7189
    -1.6457  -1.6093  -1.5553  -1.3561  -1.2977  -1.2113  -1.1289  -1.1043
    -1.0646  -1.0442  -1.0067  -0.9300  -0.7648  -0.6236  -0.4977  -0.4616
    -0.2868  -0.2476  -0.2286  -0.0440  -0.0196   0.1037   0.1516   0.1553
     0.3768   0.5527   0.6817   0.7434   0.7988   0.9562   1.2874   1.3424
     1.3739   1.4167   1.6654

          k = 0.2857-0.5169 0.0000 (218099 PWs)   bands (ev):

   -49.1184 -49.1184 -49.1184 -49.1183 -49.0528 -49.0528 -49.0527 -49.0527
   -48.4940 -48.4939 -48.4939 -48.4939 -48.2750 -48.2750 -48.2750 -48.2749
   -48.2434 -48.2434 -48.2433 -48.2433 -48.1232 -48.1206 -48.1184 -48.1174
   -48.1152 -48.1147 -48.1134 -48.1128 -48.1064 -48.1059 -48.1057 -48.1055
   -48.1003 -48.0997 -48.0965 -48.0955 -48.0788 -48.0787 -48.0780 -48.0778
   -48.0510 -48.0506 -48.0479 -48.0475  -4.5689  -4.3204  -4.1955  -4.1034
    -3.8539  -3.7353  -3.5684  -3.3277  -3.1302  -3.0713  -2.9654  -2.9477
    -2.5104  -2.3365  -2.3261  -2.0696  -1.9910  -1.8350  -1.7310  -1.6411
    -1.4619  -1.4300  -1.3924  -1.3354  -1.3276  -1.1941  -1.1350  -1.1189
    -1.1103  -1.0418  -0.8726  -0.7859  -0.7364  -0.6849  -0.4902  -0.4556
    -0.3754  -0.2794  -0.2217  -0.1557  -0.0515   0.0384   0.1127   0.1638
     0.3587   0.3779   0.6141   0.6728   0.8025   0.9641   1.2415   1.2682
     1.3767   1.4335   1.6957

          k = 0.2857-0.3661 0.0000 (218135 PWs)   bands (ev):

   -49.1184 -49.1184 -49.1184 -49.1183 -49.0528 -49.0528 -49.0527 -49.0527
   -48.4940 -48.4939 -48.4939 -48.4939 -48.2750 -48.2750 -48.2750 -48.2749
   -48.2434 -48.2434 -48.2433 -48.2433 -48.1233 -48.1205 -48.1184 -48.1174
   -48.1152 -48.1147 -48.1134 -48.1128 -48.1063 -48.1060 -48.1056 -48.1056
   -48.1004 -48.0996 -48.0965 -48.0955 -48.0788 -48.0787 -48.0780 -48.0778
   -48.0510 -48.0506 -48.0479 -48.0476  -4.7268  -4.2655  -4.0421  -4.0290
    -3.8396  -3.6034  -3.5661  -3.4633  -3.3768  -3.0183  -2.8121  -2.8036
    -2.6402  -2.4921  -2.4872  -1.9722  -1.8699  -1.8024  -1.7699  -1.5892
    -1.5764  -1.5688  -1.4790  -1.4486  -1.2048  -1.1483  -1.0533  -1.0494
    -1.0248  -0.9113  -0.8393  -0.7823  -0.7446  -0.6474  -0.5415  -0.4636
    -0.4231  -0.4135  -0.2109  -0.1604  -0.0932   0.0017   0.1456   0.2076
     0.2535   0.3873   0.4116   0.6121   0.8166   1.0374   1.2561   1.2884
     1.4516   1.5363   1.6134

          k = 0.2857-0.2154 0.0000 (218153 PWs)   bands (ev):

   -49.1184 -49.1184 -49.1184 -49.1183 -49.0528 -49.0528 -49.0527 -49.0527
   -48.4940 -48.4939 -48.4939 -48.4939 -48.2750 -48.2750 -48.2750 -48.2749
   -48.2434 -48.2434 -48.2433 -48.2433 -48.1233 -48.1205 -48.1184 -48.1174
   -48.1152 -48.1147 -48.1134 -48.1127 -48.1062 -48.1060 -48.1056 -48.1056
   -48.1005 -48.0996 -48.0966 -48.0955 -48.0788 -48.0787 -48.0780 -48.0778
   -48.0510 -48.0505 -48.0479 -48.0476  -4.8313  -4.3690  -4.0559  -3.8055
    -3.7158  -3.6080  -3.5918  -3.3437  -3.2382  -3.0141  -2.8279  -2.6640
    -2.6168  -2.4935  -2.4799  -2.4155  -2.0451  -1.8833  -1.7730  -1.6526
    -1.5553  -1.5225  -1.4493  -1.4138  -1.2788  -1.1887  -1.1626  -1.0789
    -1.0339  -0.9266  -0.8729  -0.7728  -0.7421  -0.6804  -0.6507  -0.4576
    -0.4383  -0.3836  -0.3078  -0.2229  -0.0565   0.0112   0.1361   0.2516
     0.4202   0.4346   0.4585   0.6831   0.7811   1.0832   1.2515   1.2862
     1.3843   1.4869   1.5974

          k = 0.2857-0.0646 0.0000 (218227 PWs)   bands (ev):

   -49.1184 -49.1184 -49.1184 -49.1183 -49.0528 -49.0528 -49.0527 -49.0527
   -48.4940 -48.4939 -48.4939 -48.4939 -48.2750 -48.2750 -48.2750 -48.2749
   -48.2434 -48.2434 -48.2433 -48.2433 -48.1234 -48.1206 -48.1184 -48.1174
   -48.1152 -48.1147 -48.1134 -48.1127 -48.1061 -48.1059 -48.1056 -48.1055
   -48.1006 -48.0997 -48.0966 -48.0955 -48.0788 -48.0787 -48.0780 -48.0778
   -48.0509 -48.0505 -48.0479 -48.0476  -4.8816  -4.4194  -4.2150  -3.7539
    -3.6560  -3.5267  -3.3350  -3.0986  -2.9708  -2.9641  -2.9456  -2.8652
    -2.6858  -2.5040  -2.4965  -2.2919  -2.0712  -2.0054  -1.8805  -1.7241
    -1.7235  -1.6850  -1.5233  -1.4376  -1.2992  -1.2566  -1.2379  -1.1282
    -1.0701  -1.0339  -0.8681  -0.8094  -0.7544  -0.7115  -0.6891  -0.6776
    -0.5370  -0.3563  -0.1202   0.0022   0.0224   0.0517   0.1281   0.3368
     0.3869   0.4863   0.5269   0.6407   0.9973   1.1934   1.2453   1.2682
     1.3410   1.4839   1.5485

          k = 0.4286 0.1292 0.0000 (218191 PWs)   bands (ev):

   -49.1184 -49.1184 -49.1184 -49.1183 -49.0528 -49.0527 -49.0527 -49.0527
   -48.4940 -48.4939 -48.4939 -48.4939 -48.2750 -48.2750 -48.2750 -48.2749
   -48.2434 -48.2434 -48.2434 -48.2434 -48.1227 -48.1218 -48.1181 -48.1178
   -48.1142 -48.1142 -48.1138 -48.1134 -48.1060 -48.1059 -48.1055 -48.1055
   -48.1003 -48.1000 -48.0963 -48.0959 -48.0786 -48.0784 -48.0783 -48.0781
   -48.0508 -48.0507 -48.0478 -48.0477  -4.7452  -4.5594  -4.2827  -4.0968
    -3.5207  -3.3817  -3.3394  -3.3153  -2.9139  -2.8515  -2.6569  -2.5502
    -2.4109  -2.3432  -2.3255  -2.2092  -2.1089  -2.0671  -1.9265  -1.8507
    -1.8205  -1.8075  -1.5663  -1.4488  -1.4252  -1.4132  -1.3799  -1.3189
    -1.1904  -1.1385  -1.1095  -1.0115  -0.9417  -0.7501  -0.7459  -0.4789
    -0.4571  -0.4146  -0.2597  -0.1377   0.0905   0.1542   0.2122   0.3420
     0.4227   0.5589   0.7159   0.7183   0.8916   1.0655   1.3172   1.3245
     1.4868   1.5563   1.5735

          k = 0.4286 0.2800 0.0000 (218244 PWs)   bands (ev):

   -49.1184 -49.1184 -49.1184 -49.1183 -49.0528 -49.0527 -49.0527 -49.0527
   -48.4940 -48.4939 -48.4939 -48.4939 -48.2750 -48.2750 -48.2750 -48.2749
   -48.2434 -48.2434 -48.2434 -48.2434 -48.1226 -48.1218 -48.1181 -48.1178
   -48.1142 -48.1142 -48.1138 -48.1134 -48.1061 -48.1058 -48.1056 -48.1055
   -48.1002 -48.1000 -48.0962 -48.0959 -48.0786 -48.0784 -48.0782 -48.0781
   -48.0508 -48.0507 -48.0478 -48.0477  -4.6715  -4.5945  -4.2092  -4.1318
    -3.7397  -3.4568  -3.3701  -3.2552  -2.9252  -2.8044  -2.5661  -2.4789
    -2.4088  -2.3906  -2.3464  -2.1587  -2.1506  -2.0702  -1.9769  -1.7449
    -1.7420  -1.6764  -1.6077  -1.5597  -1.5456  -1.4723  -1.4253  -1.3837
    -1.1163  -1.0375  -0.9896  -0.9134  -0.7965  -0.7525  -0.6697  -0.5471
[...]
   -48.4861 -48.4861 -48.4861 -48.4861 -48.2696 -48.2696 -48.2696 -48.2696
   -48.2349 -48.2349 -48.2348 -48.2348 -48.1284 -48.1262 -48.1233 -48.1225
   -48.1123 -48.1119 -48.1116 -48.1113 -48.1069 -48.1064 -48.1047 -48.1046
   -48.1027 -48.1024 -48.1005 -48.0997 -48.0742 -48.0740 -48.0736 -48.0734
   -48.0573 -48.0569 -48.0543 -48.0540  -4.8314  -4.3726  -4.0561  -3.8057
    -3.7160  -3.6083  -3.5964  -3.3486  -3.2424  -3.0141  -2.8286  -2.6622
    -2.6190  -2.4935  -2.4842  -2.4148  -2.0503  -1.8833  -1.7719  -1.6482
    -1.5539  -1.5221  -1.4488  -1.4120  -1.2791  -1.1950  -1.1636  -1.0786
    -1.0346  -0.9352  -0.8760  -0.7689  -0.7425  -0.6754  -0.6530  -0.4587
    -0.4360  -0.3796  -0.3141  -0.2213  -0.0568   0.0119   0.1422   0.2542
     0.4228   0.4408   0.4588   0.6902   0.7834   1.0902   1.2591   1.2913
     1.3856   1.4904   1.5991

          k = 0.2857-0.0646 0.0000 (218227 PWs)   bands (ev):

   -49.1066 -49.1066 -49.1066 -49.1065 -49.0422 -49.0421 -49.0421 -49.0421
   -48.4861 -48.4861 -48.4861 -48.4861 -48.2696 -48.2696 -48.2696 -48.2696
   -48.2349 -48.2349 -48.2348 -48.2348 -48.1285 -48.1262 -48.1233 -48.1224
   -48.1123 -48.1120 -48.1116 -48.1114 -48.1067 -48.1063 -48.1046 -48.1045
   -48.1028 -48.1025 -48.1006 -48.0997 -48.0742 -48.0740 -48.0736 -48.0734
   -48.0572 -48.0569 -48.0544 -48.0540  -4.8817  -4.4229  -4.2152  -3.7583
    -3.6560  -3.5268  -3.3351  -3.1035  -2.9712  -2.9642  -2.9461  -2.8698
    -2.6828  -2.5090  -2.5016  -2.2937  -2.0720  -2.0037  -1.8811  -1.7251
    -1.7245  -1.6806  -1.5252  -1.4423  -1.2968  -1.2568  -1.2435  -1.1243
    -1.0664  -1.0340  -0.8710  -0.8106  -0.7596  -0.7098  -0.6875  -0.6750
    -0.5454  -0.3571  -0.1135   0.0027   0.0278   0.0556   0.1314   0.3391
     0.3881   0.4904   0.5335   0.6459   1.0037   1.2003   1.2534   1.2712
     1.3412   1.4869   1.5534

          k = 0.4286 0.1292 0.0000 (218191 PWs)   bands (ev):

   -49.1066 -49.1066 -49.1066 -49.1065 -49.0422 -49.0421 -49.0421 -49.0421
   -48.4861 -48.4861 -48.4861 -48.4861 -48.2696 -48.2696 -48.2696 -48.2696
   -48.2349 -48.2349 -48.2349 -48.2348 -48.1279 -48.1271 -48.1228 -48.1226
   -48.1121 -48.1118 -48.1118 -48.1115 -48.1065 -48.1063 -48.1045 -48.1045
   -48.1027 -48.1026 -48.1003 -48.1000 -48.0740 -48.0738 -48.0738 -48.0736
   -48.0571 -48.0570 -48.0542 -48.0541  -4.7453  -4.5596  -4.2865  -4.1007
    -3.5210  -3.3818  -3.3400  -3.3154  -2.9187  -2.8563  -2.6575  -2.5469
    -2.4103  -2.3430  -2.3242  -2.2143  -2.1101  -2.0679  -1.9329  -1.8562
    -1.8206  -1.8081  -1.5615  -1.4510  -1.4223  -1.4138  -1.3863  -1.3262
    -1.1924  -1.1379  -1.1061  -1.0101  -0.9492  -0.7482  -0.7465  -0.4768
    -0.4579  -0.4120  -0.2583  -0.1355   0.0968   0.1588   0.2201   0.3474
     0.4301   0.5661   0.7203   0.7223   0.8977   1.0715   1.3231   1.3323
     1.4909   1.5576   1.5767

          k = 0.4286 0.2800 0.0000 (218244 PWs)   bands (ev):

   -49.1066 -49.1066 -49.1066 -49.1065 -49.0422 -49.0421 -49.0421 -49.0421
   -48.4861 -48.4861 -48.4861 -48.4861 -48.2696 -48.2696 -48.2696 -48.2696
   -48.2349 -48.2349 -48.2349 -48.2348 -48.1278 -48.1272 -48.1228 -48.1226
   -48.1121 -48.1118 -48.1118 -48.1115 -48.1068 -48.1062 -48.1046 -48.1045
   -48.1027 -48.1026 -48.1002 -48.1000 -48.0740 -48.0738 -48.0738 -48.0736
   -48.0571 -48.0570 -48.0542 -48.0541  -4.6716  -4.5946  -4.2130  -4.1357
    -3.7398  -3.4578  -3.3704  -3.2588  -2.9255  -2.8048  -2.5657  -2.4834
    -2.4073  -2.3891  -2.3514  -2.1590  -2.1502  -2.0698  -1.9769  -1.7482
    -1.7476  -1.6823  -1.6127  -1.5567  -1.5476  -1.4796  -1.4216  -1.3797
    -1.1169  -1.0392  -0.9903  -0.9147  -0.7991  -0.7500  -0.6749  -0.5439
    -0.5256  -0.3574  -0.3530  -0.1483   0.1142   0.2320   0.3096   0.3903
     0.4289   0.4391   0.5304   0.7031   0.9708   0.9864   1.3036   1.3856
     1.5891   1.6151   1.6499

          k = 0.4286 0.4307 0.0000 (218157 PWs)   bands (ev):

   -49.1066 -49.1066 -49.1066 -49.1065 -49.0422 -49.0421 -49.0421 -49.0421
   -48.4861 -48.4861 -48.4861 -48.4861 -48.2696 -48.2696 -48.2696 -48.2696
   -48.2349 -48.2349 -48.2349 -48.2348 -48.1278 -48.1271 -48.1228 -48.1226
   -48.1121 -48.1118 -48.1118 -48.1114 -48.1070 -48.1063 -48.1047 -48.1045
   -48.1027 -48.1025 -48.1001 -48.1000 -48.0740 -48.0738 -48.0738 -48.0736
   -48.0571 -48.0570 -48.0542 -48.0541  -4.5751  -4.5439  -4.1163  -4.0942
    -4.0358  -3.5928  -3.3521  -3.2979  -3.2107  -2.8091  -2.7535  -2.4916
    -2.3888  -2.3110  -2.2902  -2.0757  -2.0626  -1.9690  -1.8976  -1.8028
    -1.7991  -1.6221  -1.5774  -1.4664  -1.4288  -1.3493  -1.2846  -1.2320
    -1.0963  -0.9349  -0.8472  -0.8272  -0.7959  -0.7917  -0.6818  -0.4902
    -0.4163  -0.3350  -0.3076  -0.2766  -0.0012   0.1510   0.2605   0.2793
     0.3450   0.4063   0.5079   0.6923   0.8906   0.9362   1.2504   1.3523
     1.5196   1.5273   1.7162

          k = 0.4286 0.5815 0.0000 (218138 PWs)   bands (ev):

   -49.1066 -49.1066 -49.1066 -49.1065 -49.0422 -49.0421 -49.0421 -49.0421
   -48.4861 -48.4861 -48.4861 -48.4861 -48.2696 -48.2696 -48.2696 -48.2696
   -48.2349 -48.2349 -48.2349 -48.2348 -48.1277 -48.1271 -48.1228 -48.1226
   -48.1121 -48.1118 -48.1117 -48.1114 -48.1071 -48.1065 -48.1048 -48.1046
   -48.1025 -48.1024 -48.1001 -48.1000 -48.0740 -48.0738 -48.0738 -48.0736
   -48.0571 -48.0570 -48.0542 -48.0541  -4.5012  -4.3655  -4.2953  -4.0427
    -3.9085  -3.8298  -3.5681  -3.2891  -3.1346  -3.0904  -3.0410  -2.4546
    -2.4027  -2.2227  -2.1470  -2.1211  -2.0259  -1.9899  -1.9605  -1.6388
    -1.6161  -1.5781  -1.4320  -1.2425  -1.2147  -1.1454  -1.1361  -1.1004
    -1.0609  -0.9851  -0.9358  -0.8620  -0.7772  -0.6331  -0.6117  -0.5614
    -0.4637  -0.4144  -0.1993  -0.1861  -0.1294  -0.0174   0.1498   0.2043
     0.3024   0.3710   0.4564   0.6473   0.8134   0.8235   1.2369   1.2686
     1.4199   1.4693   1.7076

          k = 0.4286-0.4738 0.0000 (218142 PWs)   bands (ev):

   -49.1066 -49.1066 -49.1066 -49.1065 -49.0422 -49.0421 -49.0421 -49.0421
   -48.4861 -48.4861 -48.4861 -48.4861 -48.2696 -48.2696 -48.2696 -48.2696
   -48.2349 -48.2349 -48.2349 -48.2348 -48.1278 -48.1270 -48.1229 -48.1226
   -48.1121 -48.1118 -48.1117 -48.1114 -48.1070 -48.1067 -48.1048 -48.1047
   -48.1024 -48.1024 -48.1001 -48.0999 -48.0740 -48.0738 -48.0738 -48.0736
   -48.0571 -48.0570 -48.0542 -48.0541  -4.4975  -4.3731  -4.1285  -4.0326
    -3.9236  -3.8643  -3.6662  -3.4231  -3.2551  -3.1296  -2.8827  -2.6464
    -2.5448  -2.2667  -2.1475  -2.0930  -2.0540  -1.8754  -1.6535  -1.5950
    -1.4730  -1.4683  -1.3226  -1.2837  -1.2749  -1.2020  -1.1299  -1.1149
    -0.9173  -0.8908  -0.8450  -0.7676  -0.7183  -0.6721  -0.6529  -0.4929
    -0.4797  -0.3977  -0.3338  -0.2747  -0.1463  -0.0308   0.0936   0.1831
     0.2463   0.4023   0.4290   0.4734   0.6716   0.8659   1.2242   1.2441
     1.4362   1.4806   1.7411

          k = 0.4286-0.3230 0.0000 (218073 PWs)   bands (ev):

   -49.1066 -49.1066 -49.1066 -49.1065 -49.0422 -49.0421 -49.0421 -49.0421
   -48.4861 -48.4861 -48.4861 -48.4861 -48.2696 -48.2696 -48.2696 -48.2696
   -48.2349 -48.2349 -48.2349 -48.2348 -48.1278 -48.1270 -48.1229 -48.1226
   -48.1121 -48.1118 -48.1117 -48.1115 -48.1068 -48.1068 -48.1047 -48.1047
   -48.1026 -48.1024 -48.1002 -48.0999 -48.0740 -48.0738 -48.0738 -48.0736
   -48.0571 -48.0570 -48.0542 -48.0541  -4.6406  -4.1946  -4.1823  -4.1236
    -3.8321  -3.7383  -3.6593  -3.4496  -3.3275  -2.9664  -2.8759  -2.6221
    -2.5824  -2.3895  -2.1006  -2.0116  -2.0038  -1.9713  -1.8817  -1.6258
    -1.6036  -1.5123  -1.3760  -1.3353  -1.0273  -1.0267  -0.9900  -0.9612
    -0.9401  -0.9324  -0.9030  -0.8404  -0.8077  -0.7637  -0.6770  -0.6164
    -0.5921  -0.4316  -0.3537  -0.3004  -0.1387   0.0818   0.0917   0.2045
     0.2975   0.3653   0.4074   0.5429   0.6414   0.9541   1.2437   1.2831
     1.3941   1.6265   1.6728

          k = 0.4286-0.1723 0.0000 (218152 PWs)   bands (ev):

   -49.1066 -49.1066 -49.1066 -49.1065 -49.0422 -49.0421 -49.0421 -49.0421
   -48.4861 -48.4861 -48.4861 -48.4861 -48.2696 -48.2696 -48.2696 -48.2696
   -48.2349 -48.2349 -48.2349 -48.2348 -48.1279 -48.1270 -48.1229 -48.1226
   -48.1121 -48.1118 -48.1117 -48.1115 -48.1067 -48.1066 -48.1047 -48.1046
   -48.1027 -48.1024 -48.1003 -48.0999 -48.0740 -48.0738 -48.0738 -48.0736
   -48.0571 -48.0570 -48.0542 -48.0541  -4.7298  -4.3267  -4.2710  -3.9569
    -3.8622  -3.5089  -3.4962  -3.4868  -3.0869  -3.0229  -2.7188  -2.5657
    -2.5615  -2.4942  -2.2216  -2.1104  -2.0703  -2.0634  -1.8705  -1.7243
    -1.5485  -1.3875  -1.3442  -1.3301  -1.3219  -1.3165  -1.1969  -1.1905
    -1.1290  -1.0410  -0.8803  -0.8590  -0.7967  -0.7510  -0.7003  -0.4769
    -0.4655  -0.4265  -0.3990  -0.2018  -0.1539   0.0932   0.1297   0.1779
     0.3786   0.4250   0.5341   0.6222   0.7671   1.0212   1.2266   1.3222
     1.4245   1.5865   1.5902

          k = 0.4286-0.0215 0.0000 (218237 PWs)   bands (ev):

   -49.1066 -49.1066 -49.1066 -49.1065 -49.0422 -49.0421 -49.0421 -49.0421
   -48.4861 -48.4861 -48.4861 -48.4861 -48.2696 -48.2696 -48.2696 -48.2696
   -48.2349 -48.2349 -48.2349 -48.2348 -48.1279 -48.1271 -48.1228 -48.1226
   -48.1121 -48.1118 -48.1117 -48.1116 -48.1065 -48.1065 -48.1046 -48.1045
   -48.1028 -48.1025 -48.1003 -48.0999 -48.0740 -48.0738 -48.0738 -48.0736
   -48.0571 -48.0570 -48.0542 -48.0541  -4.7647  -4.4701  -4.3059  -4.0120
    -3.6602  -3.5394  -3.2809  -3.1586  -3.0955  -2.9740  -2.6441  -2.5677
    -2.5110  -2.4874  -2.4590  -2.2218  -1.9948  -1.8595  -1.8455  -1.7316
    -1.6870  -1.5930  -1.5644  -1.5391  -1.4799  -1.4631  -1.2597  -1.2023
    -1.2010  -1.1075  -1.0940  -0.8890  -0.8613  -0.7696  -0.6483  -0.6073
    -0.4950  -0.4412  -0.1962  -0.1377  -0.0459   0.1261   0.2631   0.3457
     0.4299   0.4551   0.5833   0.6653   0.7828   1.1662   1.2467   1.3372
     1.4577   1.4926   1.5646

     the Fermi energy is    -1.5686 ev

!    total energy              =    -661.56611384 Ry
     total all-electron energy =      -661.566471 Ry
     estimated scf accuracy    <          6.5E-13 Ry
     smearing contrib. (-TS)   =      -0.00165485 Ry
     internal energy E=F+TS    =    -661.56445899 Ry

     The total energy is F=E-TS. E is the sum of the following terms:
     one-electron contribution =   -4172.77934368 Ry
     hartree contribution      =    2020.15857485 Ry
     xc contribution           =    -157.54353614 Ry
     ewald contribution        =    1644.71948574 Ry
     one-center paw contrib.   =       3.88036023 Ry

     convergence has been achieved in  15 iterations

     Forces acting on atoms (cartesian axes, Ry/au):

     atom    1 type  1   force =    -0.00001777    0.00018206    0.00012948
     atom    2 type  1   force =     0.00001945   -0.00014034   -0.00007063
     atom    3 type  1   force =    -0.00002633   -0.00005695   -0.00006003
     atom    4 type  1   force =     0.00002902    0.00008461   -0.00031147
     atom    5 type  1   force =     0.00000569    0.00016379   -0.00000982
     atom    6 type  1   force =     0.00001263    0.00008680    0.00004381
     atom    7 type  1   force =    -0.00002481    0.00000912    0.00003530
     atom    8 type  1   force =     0.00004156   -0.00006120   -0.00003745
     atom    9 type  1   force =    -0.00004032   -0.00021391    0.00013940
     atom   10 type  1   force =    -0.00003655   -0.00001719   -0.00000482
     atom   11 type  1   force =     0.00003142    0.00001006    0.00001214
     atom   12 type  1   force =     0.00003592    0.00001717    0.00000428
     atom   13 type  1   force =     0.00003961    0.00021352   -0.00013992
     atom   14 type  1   force =    -0.00004163    0.00006187    0.00003755
     atom   15 type  1   force =     0.00002501   -0.00000977   -0.00003488
     atom   16 type  1   force =    -0.00001180   -0.00008733   -0.00004328
     atom   17 type  1   force =    -0.00000597   -0.00016455    0.00001029
     atom   18 type  1   force =    -0.00002891   -0.00008371    0.00031034
     atom   19 type  1   force =     0.00002571    0.00005708    0.00006014
     atom   20 type  1   force =    -0.00001910    0.00013962    0.00007135
     atom   21 type  1   force =     0.00001823   -0.00018179   -0.00012935
     atom   22 type  1   force =    -0.00003137   -0.00000944   -0.00001177
     atom   23 type  1   force =    -0.00001791    0.00018206    0.00012968
     atom   24 type  1   force =     0.00001923   -0.00014003   -0.00006988
     atom   25 type  1   force =    -0.00002630   -0.00005718   -0.00005997
     atom   26 type  1   force =     0.00002821    0.00008363   -0.00031252
     atom   27 type  1   force =     0.00000522    0.00016513   -0.00001038
     atom   28 type  1   force =     0.00001215    0.00008711    0.00004371
     atom   29 type  1   force =    -0.00002421    0.00000949    0.00003515
     atom   30 type  1   force =     0.00004159   -0.00006151   -0.00003848
     atom   31 type  1   force =    -0.00003995   -0.00021348    0.00014003
     atom   32 type  1   force =    -0.00003553   -0.00001682   -0.00000473
     atom   33 type  1   force =     0.00003165    0.00000982    0.00001154
     atom   34 type  1   force =     0.00003572    0.00001696    0.00000453
     atom   35 type  1   force =     0.00003990    0.00021329   -0.00014059
     atom   36 type  1   force =    -0.00004146    0.00006184    0.00003863
     atom   37 type  1   force =     0.00002486   -0.00000936   -0.00003519
     atom   38 type  1   force =    -0.00001174   -0.00008712   -0.00004421
     atom   39 type  1   force =    -0.00000584   -0.00016426    0.00001026
     atom   40 type  1   force =    -0.00002855   -0.00008374    0.00031089
     atom   41 type  1   force =     0.00002622    0.00005703    0.00006089
     atom   42 type  1   force =    -0.00001912    0.00013989    0.00007015
     atom   43 type  1   force =     0.00001808   -0.00018246   -0.00012909
     atom   44 type  1   force =    -0.00003189   -0.00000981   -0.00001108

     Total force =     0.001101     Total SCF correction =     0.000023
     Energy error            =      7.1E-06 Ry
     Gradient error          =      3.1E-04 Ry/Bohr

     bfgs converged in   9 scf cycles and   8 bfgs steps
     (criteria: energy <  1.0E-05 Ry, force <  3.9E-04 Ry/Bohr)

     End of BFGS Geometry Optimization

     Final energy             =    -661.5661138422 Ry

     File ./pwscf.bfgs deleted, as requested
Begin final coordinates

ATOMIC_POSITIONS (angstrom)
Li              -2.4299813237        7.4753930262       11.6715995478
Li               2.4278995037        2.5062314528       22.1581072402
Li               0.0013132345        4.4454777854       21.0370967338
Li               2.4312240591        6.5758001943       19.8107284365
Li               2.4273854134        0.7896210702       18.8952627870
Li              -0.0000774954        2.9235229238       17.9407982888
Li               2.4312295845        5.0856857132       16.8954033187
Li              -0.0025265756        7.3151778665       15.8064679225
Li              -0.0000981231        1.4753869369       14.6325839539
Li               2.4298898496        3.7535743045       13.5928773195
Li              -0.0026154619        5.7195969647       12.7653278637
Li              -0.0008549336        1.3730775919       20.5865032450
Li               2.4291294043        3.6512793219       19.5467884794
Li               0.0025169405        5.8676160705       18.3728927448
Li               2.4268022848        8.0971197020       17.2839743860
Li               2.4290837421        2.2031397984       16.2385624456
Li               0.0016355008        4.3370511298       15.2841038625
Li               2.4268206211        6.6069806759       14.3686570677
Li               2.4277217483        0.6811716600       13.1422657358
Li               0.0011200706        2.6204254863       12.0212308402
Li               2.4299751147        5.7073817566       22.5077608562
Li               0.0026179227        7.4632017255       21.4140475053
Li               2.4280688336        7.4753877618       11.6715999002
Li               7.2859416371        2.5062209999       22.1580886692
Li               4.8593541826        4.4454840011       21.0370985015
Li               7.2892807866        6.5758229036       19.8107492344
Li               7.2854511985        0.7895910237       18.8952781188
Li               4.8579783951        2.9235150134       17.9407982814
Li               7.2892651538        5.0856746458       16.8954005317
Li               4.8555146080        7.3151821731       15.8064926549
Li               4.8579508820        1.4753633324       14.6325836945
Li               7.2879226444        3.7535620186       13.5928960463
Li               4.8554279517        5.7196006888       12.7653440112
Li               4.8571885134        1.3730754270       20.5864821961
Li               7.2871625924        3.6512881162       19.5467984012
Li               4.8605712586        5.8676064016       18.3728816350
Li               7.2848613967        8.0971076757       17.2839729406
Li               7.2871237976        2.2031255990       16.2385932555
Li               4.8596715843        4.3370320262       15.2841060616
Li               7.2848510102        6.6069881404       14.3686508478
Li               7.2857616860        0.6811710965       13.1422546742
Li               4.8591709301        2.6204188305       12.0212681959
Li               7.2880308523        5.7073985918       22.5077646187
Li               4.8606601835        7.4631967357       21.4140432983
End final coordinates


     Message from routine punch:
     Nothing written, as per user request (disk_io='none')
 
     init_run     :     10.50s CPU     10.88s WALL (       1 calls)
     electrons    :   1031.11s CPU   1045.55s WALL (       9 calls)
     update_pot   :      1.22s CPU      1.24s WALL (       8 calls)
     forces       :     11.04s CPU     11.35s WALL (       9 calls)

     Called by init_run:
     wfcinit      :      4.31s CPU      4.54s WALL (       1 calls)
     potinit      :      0.44s CPU      0.49s WALL (       1 calls)
     hinit0       :      0.02s CPU      0.05s WALL (       1 calls)

     Called by electrons:
     c_bands      :    851.09s CPU    860.21s WALL (     128 calls)
     sum_band     :    133.89s CPU    136.81s WALL (     128 calls)
     v_of_rho     :     12.40s CPU     12.62s WALL (     129 calls)
     newd         :      3.61s CPU      4.71s WALL (     129 calls)
     PAW_pot      :      5.07s CPU      5.12s WALL (     137 calls)
     mix_rho      :     21.85s CPU     22.06s WALL (     128 calls)

     Called by c_bands:
     init_us_2    :     24.88s CPU     25.09s WALL (    2740 calls)
     cegterg      :    710.12s CPU    718.88s WALL (    1280 calls)

     Called by *egterg:
     cdiaghg      :     59.19s CPU     59.41s WALL (    5697 calls)
     h_psi        :    430.19s CPU    438.30s WALL (    5867 calls)
     s_psi        :     61.83s CPU     62.02s WALL (    5867 calls)
     g_psi        :      0.53s CPU      0.54s WALL (    4577 calls)

     Called by h_psi:
     h_psi:calbec :     76.53s CPU     76.91s WALL (    5867 calls)
     vloc_psi     :    275.17s CPU    282.73s WALL (    5867 calls)
                                        0.00s GPU  (    5867 calls)
     add_vuspsi   :     74.42s CPU     74.57s WALL (    5867 calls)

     General routines
     calbec       :    112.54s CPU    113.04s WALL (    7587 calls)
     fft          :      9.24s CPU      9.29s WALL (    1693 calls)
     ffts         :     12.01s CPU     12.13s WALL (   13674 calls)
     fftw         :    309.63s CPU    318.10s WALL (  731762 calls)
     interpolate  :      0.73s CPU      0.74s WALL (     129 calls)
 
     Parallel routines
 
     PWSCF        :  17m37.31s CPU  17m57.03s WALL

 
   This run was terminated on:   0:53:52  23Jan2025            

=------------------------------------------------------------------------------=
   JOB DONE.
=------------------------------------------------------------------------------=
