
     Program PWSCF v.7.4 starts on  3Jan2025 at 12: 0: 9 

     This program is part of the open-source Quantum ESPRESSO suite
     for quantum simulation of materials; please cite
         "P. Giannozzi et al., J. Phys.:Condens. Matter 21 395502 (2009);
         "P. Giannozzi et al., J. Phys.:Condens. Matter 29 465901 (2017);
         "P. Giannozzi et al., J. Chem. Phys. 152 154105 (2020);
          URL http://www.quantum-espresso.org", 
     in publications or presentations arising from this work. More details at
     http://www.quantum-espresso.org/quote

     Parallel version (MPI & OpenMP), running on     512 processor cores
     Number of MPI processes:               512
     Threads/MPI process:                     1

     MPI processes distributed on     4 nodes
     230124 MiB available memory on the printing compute node when the environment starts

     Reading input from espresso.pwi
Warning: card &CELL ignored
Warning: card    PRESS_CONV_THR   = 0.1 ignored
Warning: card    CELL_DOFREE      = 'ALL' ignored
Warning: card / ignored
Warning: card &FCP ignored
Warning: card / ignored
Warning: card &RISM ignored
Warning: card / ignored

     Current dimensions of program PWSCF are:
     Max number of different atomic species (ntypx) = 10
     Max number of k-points (npk) =  40000
     Max angular momentum in pseudopotentials (lmaxx) =  4

     IMPORTANT: XC functional enforced from input :
     Exchange-correlation= PBE
                           (   1   4   3   4   0   0   0)
     Any further DFT definition will be discarded
     Please, verify this is what you really want


     Reading input from environ.in:
     * using ionic solvent mode
     * setting boundary derivatives method to SSCS default
     * setting electrolyte-boundary derivatives method to SSCS default

Environ Warning (1001): card EOF ignored

     
     Found identity + ( -0.5000  0.0000 -0.0000) symmetry
     This is a supercell, fractional translations are disabled

     K-points division:     npool     =       2
     R & G space division:  proc/nbgrp/npool/nimage =     256
     Subspace diagonalization in iterative solution of the eigenvalue problem:
     a serial algorithm will be used


     Parallelization info
     --------------------
     sticks:   dense  smooth     PW     G-vecs:    dense   smooth      PW
     Min          33      13      3                18746     4723     645
     Max          34      14      4                18791     4776     724
     Sum        8497    3389    941              4805333  1215433  176195

     Using Slab Decomposition



     bravais-lattice index     =           12
     lattice parameter (alat)  =      12.9830  a.u.
     unit-cell volume          =   12574.0527 (a.u.)^3
     number of atoms/cell      =           20
     number of atomic types    =            1
     number of electrons       =        60.00
     number of Kohn-Sham states=           45
     kinetic-energy cutoff     =      80.0000  Ry
     charge density cutoff     =     800.0000  Ry
     scf convergence threshold =      1.0E-06
     mixing beta               =       0.2000
     number of iterations used =            8  local-TF  mixing
     energy convergence thresh.=      1.0E-05
     force convergence thresh. =      3.9E-04
     Exchange-correlation= PBE
                           (   1   4   3   4   0   0   0)
     nstep                     =          999


     ================================================================================

                                  Environ Setup Summary

     ================================================================================

     Please cite

          O. Andreussi, I. Dabo and N. Marzari, J. Chem. Phys. 136, 064102 (2012)
          F. Nattino, M. Truscott, N. Marzari, and O. Andreussi, J. Chem. Phys. 150, 041722 (2019)

     in publications or presentations arising from this work.

     ================================================================================

     Parameters
     ==========

     compensation onset threshold      =               0.1000E+00
     static permittivity               =                    89.90
     surface tension in input (dyn/cm) =                    37.30
     surface tension in internal units =               0.4792E-04

     Solvent Boundary
     ================

     solvent mode                      =                    ionic
     derivatives method                =                   lowmem
     electrolyte derivatives method    =                   lowmem
     numerical core for derivatives    =                      fft
     switching function adopted        =                     SCCS
     density limit for vacuum region   =               0.5000E-02
     density limit for bulk solvent    =               0.1000E-03
     soft-sphere radius mode           =                    bondi
     soft-sphere softness              =                     0.50
     alpha                             =                     1.32

     Electrostatic Setup
     ===================

     electrostatic problem to solve    =                    modpb
     numerical solver adopted          =                   newton
     type of auxiliary density adopted =                     none
     numerical core for poisson        =                      fft
     adopting a nested solver scheme
     inner solver                      =                       cg
     inner core                        =                      fft
     type of pbc corrections           =                parabolic
     numerical core for corrections    =                      1da

     ================================================================================


     >>>>> Grand-Canonical SCF is activated <<<<<
     Initial Total Charge  =     0.000000 e
     Target Fermi Energy   =    -2.404000 eV
     Thr. of Fermi Energy  =     0.001000 eV
     Wave-shift of Kerker  =     0.400000 bohr^-1
     Wave-shift of Hartree =     1.500000 bohr^-1
     Mixing Rate of Fermi  =     0.050000

     celldm(1)=  12.983009  celldm(2)=   0.829156  celldm(3)=   7.267908
     celldm(4)=  -0.301511  celldm(5)=   0.000000  celldm(6)=   0.000000

     crystal axes: (cart. coord. in units of alat)
               a(1) = (   1.000000   0.000000   0.000000 )  
               a(2) = (  -0.250000   0.790569   0.000000 )  
               a(3) = (   0.000000   0.000000   7.267908 )  

     reciprocal axes: (cart. coord. in units 2 pi/alat)
               b(1) = (  1.000000  0.316228 -0.000000 )  
               b(2) = (  0.000000  1.264912  0.000000 )  
               b(3) = (  0.000000 -0.000000  0.137591 )  


     PseudoPot. # 1 for Li read from file:
     /work/e89/e89/ba3g18/Repos/Pseudopotentials/Pslibrary/Li.pbe-sl-kjpaw_psl.1.0.0.UPF
     MD5 check sum: 3f4d2cafebb47c6c3aa8ed472e6f074d
     Pseudo is Projector augmented-wave, Zval =  3.0
     Generated using 'atomic' code by A. Dal Corso  v.7.4
     Shape of augmentation charge: PSQ
     Using radial grid of 1017 points,  4 beta functions with: 
                l(1) =   0
                l(2) =   0
                l(3) =   1
                l(4) =   1
     Q(r) pseudized with 0 coefficients 


     atomic species   valence    mass     pseudopotential
     Li                3.00     6.94000     Li( 1.00)

     No symmetry found


                                    s                        frac. trans.

      isym =  1     identity                                     

 cryst.   s( 1) = (     1          0          0      )
                  (     0          1          0      )
                  (     0          0          1      )

 cart.    s( 1) = (  1.0000000 -0.0000000  0.0000000 )
                  (  0.0000000  1.0000000  0.0000000 )
                  (  0.0000000  0.0000000  1.0000000 )


     point group C_1 (1)    
     there are  1 classes
     the character table:

       E    
A      1.00

     the symmetry operations in each class and the name of the first element:

     E        1
          identity                                               

   Cartesian axes

     site n.     atom                  positions (alat units)
         1        Li     tau(   1) = (   0.2502923   0.3183407   3.0679473  )
         2        Li     tau(   2) = (   0.0002632   0.6327761   3.2473280  )
         3        Li     tau(   3) = (   0.0001614   0.1620385   3.3793959  )
         4        Li     tau(   4) = (   0.2500796   0.4691385   3.5654698  )
         5        Li     tau(   5) = (   0.2499225   0.0053431   3.7026117  )
         6        Li     tau(   6) = (  -0.0001627   0.3123882   3.8886994  )
         7        Li     tau(   7) = (   0.2497366   0.6321691   4.0205269  )
         8        Li     tau(   8) = (   0.2497087   0.1558733   4.1999171  )
         9        Li     tau(   9) = (  -0.0002998   0.5113653   4.3538353  )
        10        Li     tau(  10) = (   0.5002985  -0.0371591   2.9138138  )
        11        Li     tau(  11) = (   0.7502930   0.3183419   3.0679463  )
        12        Li     tau(  12) = (   0.5002642   0.6327779   3.2473270  )
        13        Li     tau(  13) = (   0.5001614   0.1620382   3.3793925  )
        14        Li     tau(  14) = (   0.7500781   0.4691396   3.5654707  )
        15        Li     tau(  15) = (   0.7499198   0.0053429   3.7026120  )
        16        Li     tau(  16) = (   0.4998405   0.3123889   3.8887006  )
        17        Li     tau(  17) = (   0.7497359   0.6321732   4.0205245  )
        18        Li     tau(  18) = (   0.7497074   0.1558733   4.1999187  )
        19        Li     tau(  19) = (   0.4997015   0.5113651   4.3538296  )
        20        Li     tau(  20) = (   1.0002982  -0.0371583   2.9138078  )

   Crystallographic axes

     site n.     atom                  positions (cryst. coord.)
         1        Li     tau(   1) = (  0.3509605  0.4026729  0.4221225  )
         2        Li     tau(   2) = (  0.2003646  0.8004058  0.4468037  )
         3        Li     tau(   3) = (  0.0514025  0.2049644  0.4649751  )
         4        Li     tau(   4) = (  0.3984343  0.5934188  0.4905772  )
         5        Li     tau(   5) = (  0.2516122  0.0067586  0.5094467  )
         6        Li     tau(   6) = (  0.0986232  0.3951436  0.5350507  )
         7        Li     tau(   7) = (  0.4496461  0.7996381  0.5531890  )
         8        Li     tau(   8) = (  0.2990002  0.1971659  0.5778715  )
         9        Li     tau(   9) = (  0.1614082  0.6468320  0.5990493  )
        10        Li     tau(  10) = (  0.4885478 -0.0470030  0.4009151  )
        11        Li     tau(  11) = (  0.8509616  0.4026743  0.4221223  )
        12        Li     tau(  12) = (  0.7003663  0.8004082  0.4468035  )
        13        Li     tau(  13) = (  0.5514024  0.2049640  0.4649746  )
        14        Li     tau(  14) = (  0.8984332  0.5934202  0.4905773  )
        15        Li     tau(  15) = (  0.7516093  0.0067583  0.5094467  )
        16        Li     tau(  16) = (  0.5986266  0.3951443  0.5350509  )
        17        Li     tau(  17) = (  0.9496467  0.7996433  0.5531887  )
        18        Li     tau(  18) = (  0.7989988  0.1971659  0.5778717  )
        19        Li     tau(  19) = (  0.6614095  0.6468317  0.5990485  )
        20        Li     tau(  20) = (  0.9885477 -0.0470019  0.4009142  )

     number of k points=    62  Marzari-Vanderbilt smearing, width (Ry)=  0.0100
                       cart. coord. in units 2pi/alat
        k(    1) = (   0.0000000   0.0000000   0.0000000), wk =   0.0166667
        k(    2) = (   0.0000000   0.1054093   0.0000000), wk =   0.0333333
        k(    3) = (   0.0000000   0.2108186   0.0000000), wk =   0.0333333
        k(    4) = (   0.0000000   0.3162279   0.0000000), wk =   0.0333333
        k(    5) = (   0.0000000   0.4216372   0.0000000), wk =   0.0333333
        k(    6) = (   0.0000000   0.5270466   0.0000000), wk =   0.0333333
        k(    7) = (   0.0000000  -0.6324559   0.0000000), wk =   0.0166667
        k(    8) = (   0.1000000   0.0316228   0.0000000), wk =   0.0333333
        k(    9) = (   0.1000000   0.1370321   0.0000000), wk =   0.0333333
        k(   10) = (   0.1000000   0.2424414   0.0000000), wk =   0.0333333
        k(   11) = (   0.1000000   0.3478507   0.0000000), wk =   0.0333333
        k(   12) = (   0.1000000   0.4532600   0.0000000), wk =   0.0333333
        k(   13) = (   0.1000000   0.5586693   0.0000000), wk =   0.0333333
        k(   14) = (   0.1000000  -0.6008331   0.0000000), wk =   0.0333333
        k(   15) = (   0.1000000  -0.4954238   0.0000000), wk =   0.0333333
        k(   16) = (   0.1000000  -0.3900144   0.0000000), wk =   0.0333333
        k(   17) = (   0.1000000  -0.2846051   0.0000000), wk =   0.0333333
        k(   18) = (   0.1000000  -0.1791958   0.0000000), wk =   0.0333333
        k(   19) = (   0.1000000  -0.0737865   0.0000000), wk =   0.0333333
        k(   20) = (   0.2000000   0.0632456   0.0000000), wk =   0.0333333
        k(   21) = (   0.2000000   0.1686549   0.0000000), wk =   0.0333333
        k(   22) = (   0.2000000   0.2740642   0.0000000), wk =   0.0333333
        k(   23) = (   0.2000000   0.3794735   0.0000000), wk =   0.0333333
        k(   24) = (   0.2000000   0.4848828   0.0000000), wk =   0.0333333
        k(   25) = (   0.2000000   0.5902921   0.0000000), wk =   0.0333333
        k(   26) = (   0.2000000  -0.5692103   0.0000000), wk =   0.0333333
        k(   27) = (   0.2000000  -0.4638010   0.0000000), wk =   0.0333333
        k(   28) = (   0.2000000  -0.3583917   0.0000000), wk =   0.0333333
        k(   29) = (   0.2000000  -0.2529823   0.0000000), wk =   0.0333333
        k(   30) = (   0.2000000  -0.1475730   0.0000000), wk =   0.0333333
        k(   31) = (   0.2000000  -0.0421637   0.0000000), wk =   0.0333333
        k(   32) = (   0.3000000   0.0948684   0.0000000), wk =   0.0333333
        k(   33) = (   0.3000000   0.2002777   0.0000000), wk =   0.0333333
        k(   34) = (   0.3000000   0.3056870   0.0000000), wk =   0.0333333
        k(   35) = (   0.3000000   0.4110963   0.0000000), wk =   0.0333333
        k(   36) = (   0.3000000   0.5165056   0.0000000), wk =   0.0333333
        k(   37) = (   0.3000000   0.6219149   0.0000000), wk =   0.0333333
        k(   38) = (   0.3000000  -0.5375875   0.0000000), wk =   0.0333333
        k(   39) = (   0.3000000  -0.4321782   0.0000000), wk =   0.0333333
        k(   40) = (   0.3000000  -0.3267689   0.0000000), wk =   0.0333333
        k(   41) = (   0.3000000  -0.2213596   0.0000000), wk =   0.0333333
        k(   42) = (   0.3000000  -0.1159502   0.0000000), wk =   0.0333333
        k(   43) = (   0.3000000  -0.0105409   0.0000000), wk =   0.0333333
        k(   44) = (   0.4000000   0.1264912   0.0000000), wk =   0.0333333
        k(   45) = (   0.4000000   0.2319005   0.0000000), wk =   0.0333333
        k(   46) = (   0.4000000   0.3373098   0.0000000), wk =   0.0333333
        k(   47) = (   0.4000000   0.4427191   0.0000000), wk =   0.0333333
        k(   48) = (   0.4000000   0.5481284   0.0000000), wk =   0.0333333
        k(   49) = (   0.4000000   0.6535377   0.0000000), wk =   0.0333333
        k(   50) = (   0.4000000  -0.5059647   0.0000000), wk =   0.0333333
        k(   51) = (   0.4000000  -0.4005554   0.0000000), wk =   0.0333333
        k(   52) = (   0.4000000  -0.2951461   0.0000000), wk =   0.0333333
        k(   53) = (   0.4000000  -0.1897368   0.0000000), wk =   0.0333333
        k(   54) = (   0.4000000  -0.0843274   0.0000000), wk =   0.0333333
        k(   55) = (   0.4000000   0.0210819   0.0000000), wk =   0.0333333
        k(   56) = (  -0.5000000  -0.1581140   0.0000000), wk =   0.0166667
        k(   57) = (  -0.5000000  -0.0527047   0.0000000), wk =   0.0333333
        k(   58) = (  -0.5000000   0.0527047   0.0000000), wk =   0.0333333
        k(   59) = (  -0.5000000   0.1581140   0.0000000), wk =   0.0333333
        k(   60) = (  -0.5000000   0.2635233   0.0000000), wk =   0.0333333
        k(   61) = (  -0.5000000   0.3689326   0.0000000), wk =   0.0333333
        k(   62) = (  -0.5000000  -0.7905698   0.0000000), wk =   0.0166667

                       cryst. coord.
        k(    1) = (   0.0000000   0.0000000   0.0000000), wk =   0.0166667
        k(    2) = (   0.0000000   0.0833333   0.0000000), wk =   0.0333333
        k(    3) = (   0.0000000   0.1666667   0.0000000), wk =   0.0333333
        k(    4) = (   0.0000000   0.2500000   0.0000000), wk =   0.0333333
        k(    5) = (   0.0000000   0.3333333   0.0000000), wk =   0.0333333
        k(    6) = (   0.0000000   0.4166667   0.0000000), wk =   0.0333333
        k(    7) = (   0.0000000  -0.5000000   0.0000000), wk =   0.0166667
        k(    8) = (   0.1000000  -0.0000000   0.0000000), wk =   0.0333333
        k(    9) = (   0.1000000   0.0833333   0.0000000), wk =   0.0333333
        k(   10) = (   0.1000000   0.1666667   0.0000000), wk =   0.0333333
        k(   11) = (   0.1000000   0.2500000   0.0000000), wk =   0.0333333
        k(   12) = (   0.1000000   0.3333333   0.0000000), wk =   0.0333333
        k(   13) = (   0.1000000   0.4166667   0.0000000), wk =   0.0333333
        k(   14) = (   0.1000000  -0.5000000   0.0000000), wk =   0.0333333
        k(   15) = (   0.1000000  -0.4166667   0.0000000), wk =   0.0333333
        k(   16) = (   0.1000000  -0.3333333   0.0000000), wk =   0.0333333
        k(   17) = (   0.1000000  -0.2500000   0.0000000), wk =   0.0333333
        k(   18) = (   0.1000000  -0.1666667   0.0000000), wk =   0.0333333
        k(   19) = (   0.1000000  -0.0833333   0.0000000), wk =   0.0333333
        k(   20) = (   0.2000000  -0.0000000   0.0000000), wk =   0.0333333
        k(   21) = (   0.2000000   0.0833333   0.0000000), wk =   0.0333333
        k(   22) = (   0.2000000   0.1666667   0.0000000), wk =   0.0333333
        k(   23) = (   0.2000000   0.2500000   0.0000000), wk =   0.0333333
        k(   24) = (   0.2000000   0.3333333   0.0000000), wk =   0.0333333
        k(   25) = (   0.2000000   0.4166667   0.0000000), wk =   0.0333333
        k(   26) = (   0.2000000  -0.5000000   0.0000000), wk =   0.0333333
        k(   27) = (   0.2000000  -0.4166667   0.0000000), wk =   0.0333333
        k(   28) = (   0.2000000  -0.3333333   0.0000000), wk =   0.0333333
        k(   29) = (   0.2000000  -0.2500000   0.0000000), wk =   0.0333333
        k(   30) = (   0.2000000  -0.1666667   0.0000000), wk =   0.0333333
        k(   31) = (   0.2000000  -0.0833333   0.0000000), wk =   0.0333333
        k(   32) = (   0.3000000  -0.0000000   0.0000000), wk =   0.0333333
        k(   33) = (   0.3000000   0.0833333   0.0000000), wk =   0.0333333
        k(   34) = (   0.3000000   0.1666667   0.0000000), wk =   0.0333333
        k(   35) = (   0.3000000   0.2500000   0.0000000), wk =   0.0333333
        k(   36) = (   0.3000000   0.3333333   0.0000000), wk =   0.0333333
        k(   37) = (   0.3000000   0.4166667   0.0000000), wk =   0.0333333
        k(   38) = (   0.3000000  -0.5000000   0.0000000), wk =   0.0333333
        k(   39) = (   0.3000000  -0.4166667   0.0000000), wk =   0.0333333
        k(   40) = (   0.3000000  -0.3333333   0.0000000), wk =   0.0333333
        k(   41) = (   0.3000000  -0.2500000   0.0000000), wk =   0.0333333
        k(   42) = (   0.3000000  -0.1666667   0.0000000), wk =   0.0333333
        k(   43) = (   0.3000000  -0.0833333   0.0000000), wk =   0.0333333
        k(   44) = (   0.4000000  -0.0000000   0.0000000), wk =   0.0333333
        k(   45) = (   0.4000000   0.0833333   0.0000000), wk =   0.0333333
        k(   46) = (   0.4000000   0.1666667   0.0000000), wk =   0.0333333
        k(   47) = (   0.4000000   0.2500000   0.0000000), wk =   0.0333333
        k(   48) = (   0.4000000   0.3333333   0.0000000), wk =   0.0333333
        k(   49) = (   0.4000000   0.4166667   0.0000000), wk =   0.0333333
        k(   50) = (   0.4000000  -0.5000000   0.0000000), wk =   0.0333333
        k(   51) = (   0.4000000  -0.4166667   0.0000000), wk =   0.0333333
        k(   52) = (   0.4000000  -0.3333333   0.0000000), wk =   0.0333333
        k(   53) = (   0.4000000  -0.2500000   0.0000000), wk =   0.0333333
        k(   54) = (   0.4000000  -0.1666667   0.0000000), wk =   0.0333333
        k(   55) = (   0.4000000  -0.0833333   0.0000000), wk =   0.0333333
        k(   56) = (  -0.5000000   0.0000000   0.0000000), wk =   0.0166667
        k(   57) = (  -0.5000000   0.0833333   0.0000000), wk =   0.0333333
        k(   58) = (  -0.5000000   0.1666667   0.0000000), wk =   0.0333333
        k(   59) = (  -0.5000000   0.2500000   0.0000000), wk =   0.0333333
        k(   60) = (  -0.5000000   0.3333333   0.0000000), wk =   0.0333333
        k(   61) = (  -0.5000000   0.4166667   0.0000000), wk =   0.0333333
        k(   62) = (  -0.5000000  -0.5000000   0.0000000), wk =   0.0166667

     Dense  grid:  4805333 G-vectors     FFT dimensions: ( 120, 100, 864)

     Smooth grid:  1215433 G-vectors     FFT dimensions: (  75,  64, 540)

     Dynamical RAM for                 wfc:       0.41 MB

     Dynamical RAM for     wfc (w. buffer):      13.03 MB

     Dynamical RAM for           str. fact:       0.29 MB

     Dynamical RAM for           local pot:       0.00 MB

     Dynamical RAM for          nlocal pot:       1.45 MB

     Dynamical RAM for                qrad:       0.65 MB

     Dynamical RAM for          rho,v,vnew:       1.96 MB

     Dynamical RAM for               rhoin:       0.65 MB

     Dynamical RAM for            rho*nmix:       4.59 MB

     Dynamical RAM for           G-vectors:       1.11 MB

     Dynamical RAM for          h,s,v(r/c):       1.48 MB

     Dynamical RAM for          <psi|beta>:       0.11 MB

     Dynamical RAM for                 psi:       1.63 MB

     Dynamical RAM for                hpsi:       1.63 MB

     Dynamical RAM for                spsi:       1.63 MB

     Dynamical RAM for      wfcinit/wfcrot:       0.86 MB

     Dynamical RAM for           addusdens:       9.17 MB

     Dynamical RAM for          addusforce:      14.64 MB

     Estimated static dynamical RAM per process >      21.54 MB

     Estimated max dynamical RAM per process >      73.32 MB

     Estimated total dynamical RAM >      19.24 GB

     Initial potential from superposition of free atoms

     starting charge      59.9078, renormalised to      60.0000

     negative rho (up, down):  2.124E-03 0.000E+00
     Starting wfcs are random
     Checking if some PAW data can be deallocated... 

     total cpu time spent up to now is       26.9 secs

     Self-consistent Calculation

     iteration #  1     ecut=    80.00 Ry     beta= 0.20
     Davidson diagonalization with overlap

---- Real-time Memory Report at c_bands before calling an iterative solver
           267 MiB given to the printing process from OS
             0 MiB allocation reported by mallinfo(arena+hblkhd)
        219837 MiB available memory on the node where the printing process lives
------------------
     ethr =  1.00E-12,  avg # of iterations = 97.8

     negative rho (up, down):  1.585E-03 0.000E+00

     add environment contribution to local potential

     total cpu time spent up to now is      152.0 secs

     total energy              =    -300.75948979 Ry
     estimated scf accuracy    <       0.07982215 Ry

     total charge of GC-SCF    =       0.00795794 e
     the Fermi energy          =      -4.47998613 eV
                        (error :       2.07598613 eV)
     electrostatic embedding   =       0.00000000 Ry
     cavitation energy         =       0.01553868 Ry
     electrolyte free energy   =       0.00541203 Ry
     correction to one-el term =      -0.00000000 Ry

     iteration #  2     ecut=    80.00 Ry     beta= 0.20
     Davidson diagonalization with overlap

---- Real-time Memory Report at c_bands before calling an iterative solver
           267 MiB given to the printing process from OS
             0 MiB allocation reported by mallinfo(arena+hblkhd)
        220911 MiB available memory on the node where the printing process lives
------------------
     ethr =  1.00E-05,  avg # of iterations = 14.9

     negative rho (up, down):  1.224E-03 0.000E+00

     add environment contribution to local potential

     total cpu time spent up to now is      171.8 secs

     total energy              =    -300.74126273 Ry
     estimated scf accuracy    <       0.01958593 Ry

     total charge of GC-SCF    =       0.00475826 e
     the Fermi energy          =      -3.45841849 eV
                        (error :       1.05441849 eV)
     electrostatic embedding   =      -0.01957370 Ry
     cavitation energy         =       0.01553868 Ry
     electrolyte free energy   =      -0.00321285 Ry
     correction to one-el term =      -0.46343542 Ry

     iteration #  3     ecut=    80.00 Ry     beta= 0.20
     Davidson diagonalization with overlap

---- Real-time Memory Report at c_bands before calling an iterative solver
           267 MiB given to the printing process from OS
             0 MiB allocation reported by mallinfo(arena+hblkhd)
        220931 MiB available memory on the node where the printing process lives
------------------
     ethr =  1.00E-05,  avg # of iterations = 10.3

     negative rho (up, down):  9.362E-04 0.000E+00

     add environment contribution to local potential

     total cpu time spent up to now is      187.2 secs

     total energy              =    -300.68842334 Ry
     estimated scf accuracy    <       0.01266702 Ry

     total charge of GC-SCF    =      -0.01533388 e
     the Fermi energy          =      -3.11676873 eV
                        (error :       0.71276873 eV)
     electrostatic embedding   =      -0.01758381 Ry
     cavitation energy         =       0.01553868 Ry
     electrolyte free energy   =      -0.00255238 Ry
     correction to one-el term =      -0.26547001 Ry

     iteration #  4     ecut=    80.00 Ry     beta= 0.20
     Davidson diagonalization with overlap

---- Real-time Memory Report at c_bands before calling an iterative solver
           267 MiB given to the printing process from OS
             0 MiB allocation reported by mallinfo(arena+hblkhd)
        220965 MiB available memory on the node where the printing process lives
------------------
     ethr =  1.00E-05,  avg # of iterations = 14.0

     negative rho (up, down):  7.832E-04 0.000E+00

     add environment contribution to local potential

     total cpu time spent up to now is      207.2 secs

     total energy              =    -300.71000201 Ry
     estimated scf accuracy    <       0.00215437 Ry

     total charge of GC-SCF    =      -0.03645333 e
     the Fermi energy          =      -2.71900018 eV
                        (error :       0.31500018 eV)
     electrostatic embedding   =      -0.01589020 Ry
     cavitation energy         =       0.01553868 Ry
     electrolyte free energy   =      -0.00109276 Ry
     correction to one-el term =       1.34571627 Ry

     iteration #  5     ecut=    80.00 Ry     beta= 0.20
     Davidson diagonalization with overlap

---- Real-time Memory Report at c_bands before calling an iterative solver
           267 MiB given to the printing process from OS
             0 MiB allocation reported by mallinfo(arena+hblkhd)
        220956 MiB available memory on the node where the printing process lives
------------------
     ethr =  3.59E-06,  avg # of iterations = 10.6

     negative rho (up, down):  7.001E-04 0.000E+00

     add environment contribution to local potential

     total cpu time spent up to now is      222.6 secs

     total energy              =    -300.70869825 Ry
     estimated scf accuracy    <       0.00117364 Ry

     total charge of GC-SCF    =      -0.09389320 e
     the Fermi energy          =      -2.63876204 eV
                        (error :       0.23476204 eV)
     electrostatic embedding   =      -0.01757239 Ry
     cavitation energy         =       0.01553868 Ry
     electrolyte free energy   =      -0.00079842 Ry
     correction to one-el term =       2.71670317 Ry

     iteration #  6     ecut=    80.00 Ry     beta= 0.20
     Davidson diagonalization with overlap

---- Real-time Memory Report at c_bands before calling an iterative solver
           267 MiB given to the printing process from OS
             0 MiB allocation reported by mallinfo(arena+hblkhd)
        220956 MiB available memory on the node where the printing process lives
------------------
     ethr =  1.95E-06,  avg # of iterations = 12.4

     negative rho (up, down):  6.382E-04 0.000E+00

     add environment contribution to local potential

     total cpu time spent up to now is      241.0 secs

     total energy              =    -300.71345763 Ry
     estimated scf accuracy    <       0.00035905 Ry

     total charge of GC-SCF    =      -0.16028686 e
     the Fermi energy          =      -2.54590577 eV
                        (error :       0.14190577 eV)
     electrostatic embedding   =      -0.02609860 Ry
     cavitation energy         =       0.01553868 Ry
     electrolyte free energy   =      -0.00062363 Ry
     correction to one-el term =       5.89990649 Ry

     iteration #  7     ecut=    80.00 Ry     beta= 0.20
     Davidson diagonalization with overlap

---- Real-time Memory Report at c_bands before calling an iterative solver
           267 MiB given to the printing process from OS
             0 MiB allocation reported by mallinfo(arena+hblkhd)
        220967 MiB available memory on the node where the printing process lives
------------------
     ethr =  5.97E-07,  avg # of iterations = 11.9

     negative rho (up, down):  5.739E-04 0.000E+00

     add environment contribution to local potential

     total cpu time spent up to now is      258.8 secs

     total energy              =    -300.71468584 Ry
     estimated scf accuracy    <       0.00011900 Ry

     total charge of GC-SCF    =      -0.21089630 e
     the Fermi energy          =      -2.55883510 eV
                        (error :       0.15483510 eV)
     electrostatic embedding   =      -0.03706865 Ry
     cavitation energy         =       0.01553868 Ry
     electrolyte free energy   =      -0.00066736 Ry
     correction to one-el term =       8.46839985 Ry

     iteration #  8     ecut=    80.00 Ry     beta= 0.20
     Davidson diagonalization with overlap

---- Real-time Memory Report at c_bands before calling an iterative solver
           267 MiB given to the printing process from OS
             0 MiB allocation reported by mallinfo(arena+hblkhd)
        220927 MiB available memory on the node where the printing process lives
------------------
     ethr =  1.98E-07,  avg # of iterations = 13.2

     negative rho (up, down):  5.063E-04 0.000E+00

     add environment contribution to local potential

     total cpu time spent up to now is      277.4 secs

     total energy              =    -300.71626759 Ry
     estimated scf accuracy    <       0.00003165 Ry

     total charge of GC-SCF    =      -0.24107249 e
     the Fermi energy          =      -2.54281971 eV
                        (error :       0.13881971 eV)
     electrostatic embedding   =      -0.04653679 Ry
     cavitation energy         =       0.01553868 Ry
     electrolyte free energy   =      -0.00068713 Ry
     correction to one-el term =      10.28289558 Ry

     iteration #  9     ecut=    80.00 Ry     beta= 0.20
     Davidson diagonalization with overlap

---- Real-time Memory Report at c_bands before calling an iterative solver
           267 MiB given to the printing process from OS
             0 MiB allocation reported by mallinfo(arena+hblkhd)
        220959 MiB available memory on the node where the printing process lives
------------------
     ethr =  5.25E-08,  avg # of iterations = 10.7

     negative rho (up, down):  4.538E-04 0.000E+00

     add environment contribution to local potential

     total cpu time spent up to now is      294.4 secs

     total energy              =    -300.71717404 Ry
     estimated scf accuracy    <       0.00004197 Ry

     total charge of GC-SCF    =      -0.25342734 e
     the Fermi energy          =      -2.51969561 eV
                        (error :       0.11569561 eV)
     electrostatic embedding   =      -0.05165163 Ry
     cavitation energy         =       0.01553868 Ry
     electrolyte free energy   =      -0.00067626 Ry
     correction to one-el term =      11.23004435 Ry

     iteration # 10     ecut=    80.00 Ry     beta= 0.20
     Davidson diagonalization with overlap

---- Real-time Memory Report at c_bands before calling an iterative solver
           267 MiB given to the printing process from OS
             0 MiB allocation reported by mallinfo(arena+hblkhd)
        220955 MiB available memory on the node where the printing process lives
------------------
     ethr =  5.25E-08,  avg # of iterations =  8.9

     negative rho (up, down):  4.085E-04 0.000E+00

     add environment contribution to local potential

     total cpu time spent up to now is      307.4 secs

     total energy              =    -300.71656753 Ry
     estimated scf accuracy    <       0.00004298 Ry

     total charge of GC-SCF    =      -0.29659927 e
     the Fermi energy          =      -2.51907052 eV
                        (error :       0.11507052 eV)
     electrostatic embedding   =      -0.05386203 Ry
     cavitation energy         =       0.01553868 Ry
     electrolyte free energy   =      -0.00067878 Ry
     correction to one-el term =      11.58766943 Ry

     iteration # 11     ecut=    80.00 Ry     beta= 0.20
     Davidson diagonalization with overlap

---- Real-time Memory Report at c_bands before calling an iterative solver
           267 MiB given to the printing process from OS
             0 MiB allocation reported by mallinfo(arena+hblkhd)
        220940 MiB available memory on the node where the printing process lives
------------------
     ethr =  5.25E-08,  avg # of iterations = 13.5

     negative rho (up, down):  3.686E-04 0.000E+00

     add environment contribution to local potential

     total cpu time spent up to now is      326.0 secs

     total energy              =    -300.71688955 Ry
     estimated scf accuracy    <       0.00001651 Ry

     total charge of GC-SCF    =      -0.35971265 e
     the Fermi energy          =      -2.52935123 eV
                        (error :       0.12535123 eV)
     electrostatic embedding   =      -0.06255864 Ry
     cavitation energy         =       0.01553868 Ry
     electrolyte free energy   =      -0.00070561 Ry
     correction to one-el term =      12.83463580 Ry

     iteration # 12     ecut=    80.00 Ry     beta= 0.20
     Davidson diagonalization with overlap

---- Real-time Memory Report at c_bands before calling an iterative solver
           267 MiB given to the printing process from OS
             0 MiB allocation reported by mallinfo(arena+hblkhd)
        220944 MiB available memory on the node where the printing process lives
------------------
     ethr =  2.74E-08,  avg # of iterations = 18.0

     negative rho (up, down):  3.362E-04 0.000E+00

     add environment contribution to local potential

     total cpu time spent up to now is      346.6 secs

     total energy              =    -300.71782947 Ry
     estimated scf accuracy    <       0.00001523 Ry

     total charge of GC-SCF    =      -0.40286530 e
     the Fermi energy          =      -2.52424818 eV
                        (error :       0.12024818 eV)
     electrostatic embedding   =      -0.07706979 Ry
     cavitation energy         =       0.01553868 Ry
     electrolyte free energy   =      -0.00074338 Ry
     correction to one-el term =      14.73381985 Ry

     iteration # 13     ecut=    80.00 Ry     beta= 0.20
     Davidson diagonalization with overlap

---- Real-time Memory Report at c_bands before calling an iterative solver
           267 MiB given to the printing process from OS
             0 MiB allocation reported by mallinfo(arena+hblkhd)
        220940 MiB available memory on the node where the printing process lives
------------------
     ethr =  2.52E-08,  avg # of iterations = 13.9

     negative rho (up, down):  3.075E-04 0.000E+00

     add environment contribution to local potential

     total cpu time spent up to now is      365.3 secs

     total energy              =    -300.71801257 Ry
     estimated scf accuracy    <       0.00001138 Ry

     total charge of GC-SCF    =      -0.46986370 e
     the Fermi energy          =      -2.52248384 eV
                        (error :       0.11848384 eV)
     electrostatic embedding   =      -0.08829206 Ry
     cavitation energy         =       0.01553868 Ry
     electrolyte free energy   =      -0.00078115 Ry
     correction to one-el term =      16.03427489 Ry

     iteration # 14     ecut=    80.00 Ry     beta= 0.20
     Davidson diagonalization with overlap

---- Real-time Memory Report at c_bands before calling an iterative solver
           267 MiB given to the printing process from OS
             0 MiB allocation reported by mallinfo(arena+hblkhd)
        220918 MiB available memory on the node where the printing process lives
------------------
     ethr =  1.88E-08,  avg # of iterations = 18.2

     negative rho (up, down):  2.796E-04 0.000E+00

     add environment contribution to local potential

     total cpu time spent up to now is      385.2 secs

     total energy              =    -300.72365805 Ry
     estimated scf accuracy    <       0.00000949 Ry

     total charge of GC-SCF    =      -0.67825493 e
     the Fermi energy          =      -2.51279235 eV
                        (error :       0.10879235 eV)
     electrostatic embedding   =      -0.10803134 Ry
     cavitation energy         =       0.01553868 Ry
     electrolyte free energy   =      -0.00085697 Ry
     correction to one-el term =      18.11856481 Ry

     iteration # 15     ecut=    80.00 Ry     beta= 0.20
     Davidson diagonalization with overlap

---- Real-time Memory Report at c_bands before calling an iterative solver
           267 MiB given to the printing process from OS
             0 MiB allocation reported by mallinfo(arena+hblkhd)
        220933 MiB available memory on the node where the printing process lives
------------------
     ethr =  1.56E-08,  avg # of iterations = 20.5

     negative rho (up, down):  2.645E-04 0.000E+00

     add environment contribution to local potential

     total cpu time spent up to now is      411.1 secs

     total energy              =    -300.72136073 Ry
     estimated scf accuracy    <       0.00000538 Ry

     total charge of GC-SCF    =      -0.77201328 e
     the Fermi energy          =      -2.48245021 eV
                        (error :       0.07845021 eV)
     electrostatic embedding   =      -0.18503181 Ry
     cavitation energy         =       0.01553868 Ry
     electrolyte free energy   =      -0.00122977 Ry
     correction to one-el term =      24.63534729 Ry

     iteration # 16     ecut=    80.00 Ry     beta= 0.20
     Davidson diagonalization with overlap

---- Real-time Memory Report at c_bands before calling an iterative solver
           267 MiB given to the printing process from OS
             0 MiB allocation reported by mallinfo(arena+hblkhd)
        220914 MiB available memory on the node where the printing process lives
------------------
     ethr =  8.85E-09,  avg # of iterations = 19.1

     negative rho (up, down):  2.514E-04 0.000E+00

     add environment contribution to local potential

     total cpu time spent up to now is      434.2 secs

     total energy              =    -300.72535405 Ry
     estimated scf accuracy    <       0.00000468 Ry

     total charge of GC-SCF    =      -0.93405953 e
     the Fermi energy          =      -2.46678193 eV
                        (error :       0.06278193 eV)
     electrostatic embedding   =      -0.22692352 Ry
     cavitation energy         =       0.01553868 Ry
     electrolyte free energy   =      -0.00146776 Ry
     correction to one-el term =      27.53869791 Ry

     iteration # 17     ecut=    80.00 Ry     beta= 0.20
     Davidson diagonalization with overlap

---- Real-time Memory Report at c_bands before calling an iterative solver
           267 MiB given to the printing process from OS
             0 MiB allocation reported by mallinfo(arena+hblkhd)
        220913 MiB available memory on the node where the printing process lives
------------------
     ethr =  7.69E-09,  avg # of iterations = 21.2

     negative rho (up, down):  2.436E-04 0.000E+00

     add environment contribution to local potential

     total cpu time spent up to now is      461.0 secs

     total energy              =    -300.72265418 Ry
     estimated scf accuracy    <       0.00000244 Ry

     total charge of GC-SCF    =      -0.97232439 e
     the Fermi energy          =      -2.44308393 eV
                        (error :       0.03908393 eV)
     electrostatic embedding   =      -0.31050721 Ry
     cavitation energy         =       0.01553868 Ry
     electrolyte free energy   =      -0.00201188 Ry
     correction to one-el term =      32.55381092 Ry

     iteration # 18     ecut=    80.00 Ry     beta= 0.20
     Davidson diagonalization with overlap

---- Real-time Memory Report at c_bands before calling an iterative solver
           267 MiB given to the printing process from OS
             0 MiB allocation reported by mallinfo(arena+hblkhd)
        220889 MiB available memory on the node where the printing process lives
------------------
     ethr =  4.00E-09,  avg # of iterations = 17.6

     negative rho (up, down):  2.337E-04 0.000E+00

     add environment contribution to local potential

     total cpu time spent up to now is      481.3 secs

     total energy              =    -300.72680440 Ry
     estimated scf accuracy    <       0.00000190 Ry

     total charge of GC-SCF    =      -1.11964587 e
     the Fermi energy          =      -2.43629352 eV
                        (error :       0.03229352 eV)
     electrostatic embedding   =      -0.33220513 Ry
     cavitation energy         =       0.01553868 Ry
     electrolyte free energy   =      -0.00216911 Ry
     correction to one-el term =      33.72682100 Ry

     iteration # 19     ecut=    80.00 Ry     beta= 0.20
     Davidson diagonalization with overlap

---- Real-time Memory Report at c_bands before calling an iterative solver
           267 MiB given to the printing process from OS
             0 MiB allocation reported by mallinfo(arena+hblkhd)
        220892 MiB available memory on the node where the printing process lives
------------------
     ethr =  3.11E-09,  avg # of iterations = 20.9

     negative rho (up, down):  2.285E-04 0.000E+00

     add environment contribution to local potential

     total cpu time spent up to now is      509.7 secs

     total energy              =    -300.72316637 Ry
     estimated scf accuracy    <       0.00000062 Ry

     total charge of GC-SCF    =      -1.12792225 e
     the Fermi energy          =      -2.41560243 eV
                        (error :       0.01160243 eV)
     electrostatic embedding   =      -0.42283885 Ry
     cavitation energy         =       0.01553868 Ry
     electrolyte free energy   =      -0.00286599 Ry
     correction to one-el term =      38.25956087 Ry

     iteration # 20     ecut=    80.00 Ry     beta= 0.20
     Davidson diagonalization with overlap

---- Real-time Memory Report at c_bands before calling an iterative solver
           267 MiB given to the printing process from OS
             0 MiB allocation reported by mallinfo(arena+hblkhd)
        220886 MiB available memory on the node where the printing process lives
------------------
     ethr =  1.02E-09,  avg # of iterations = 18.4

     negative rho (up, down):  2.221E-04 0.000E+00

     add environment contribution to local potential

     total cpu time spent up to now is      530.9 secs

     total energy              =    -300.72433123 Ry
     estimated scf accuracy    <       0.00000073 Ry

     total charge of GC-SCF    =      -1.20230987 e
     the Fermi energy          =      -2.41307802 eV
                        (error :       0.00907802 eV)
     electrostatic embedding   =      -0.42742843 Ry
     cavitation energy         =       0.01553868 Ry
     electrolyte free energy   =      -0.00290786 Ry
     correction to one-el term =      38.43823915 Ry

     iteration # 21     ecut=    80.00 Ry     beta= 0.20
     Davidson diagonalization with overlap

---- Real-time Memory Report at c_bands before calling an iterative solver
           267 MiB given to the printing process from OS
             0 MiB allocation reported by mallinfo(arena+hblkhd)
        220871 MiB available memory on the node where the printing process lives
------------------
     ethr =  1.02E-09,  avg # of iterations = 19.2

     negative rho (up, down):  2.073E-04 0.000E+00

     total cpu time spent up to now is      554.2 secs

     End of self-consistent calculation

          k = 0.0000 0.0000 0.0000 (152015 PWs)   bands (ev):

   -49.6408 -49.6404 -49.6394 -49.6389 -49.1828 -49.1824 -49.1812 -49.1808
   -48.9518 -48.9477 -48.9450 -48.9446 -48.9310 -48.9301 -48.9292 -48.9288
   -48.9275 -48.9272 -48.9265 -48.9227  -5.8114  -5.3376  -4.5848  -3.6931
    -3.1729  -3.1725  -2.7747  -2.7359  -2.7300  -2.2719  -2.1711  -2.1387
    -1.9574  -1.8525  -1.8228  -1.8157  -1.4754  -1.2871  -1.1436  -0.8944
    -0.8902  -0.4289  -0.3148  -0.1274  -0.0813

     occupation numbers 
     1.0000   1.0000   1.0000   1.0000   1.0000   1.0000   1.0000   1.0000
     1.0000   1.0000   1.0000   1.0000   1.0000   1.0000   1.0000   1.0000
     1.0000   1.0000   1.0000   1.0000   1.0000   1.0000   1.0000   1.0000
     1.0000   1.0000   1.0046   1.0127   1.0145   0.0328   0.0015   0.0004
     0.0000   0.0000   0.0000   0.0000   0.0000   0.0000   0.0000   0.0000
     0.0000   0.0000   0.0000   0.0000   0.0000

          k = 0.0000 0.1054 0.0000 (152006 PWs)   bands (ev):

   -49.6408 -49.6404 -49.6394 -49.6389 -49.1828 -49.1824 -49.1812 -49.1808
   -48.9516 -48.9476 -48.9450 -48.9446 -48.9313 -48.9302 -48.9292 -48.9288
   -48.9275 -48.9271 -48.9265 -48.9225  -5.7848  -5.3107  -4.5571  -3.6645
    -3.2948  -3.0056  -2.8501  -2.7476  -2.6298  -2.5696  -2.2801  -2.2596
    -2.0546  -1.8549  -1.8026  -1.7000  -1.5807  -1.2117  -1.2057  -0.8065
    -0.7389  -0.3801  -0.2484  -0.0913  -0.0571

     occupation numbers 
     1.0000   1.0000   1.0000   1.0000   1.0000   1.0000   1.0000   1.0000
     1.0000   1.0000   1.0000   1.0000   1.0000   1.0000   1.0000   1.0000
     1.0000   1.0000   1.0000   1.0000   1.0000   1.0000   1.0000   1.0000
     1.0000   1.0000   1.0004   1.0095   1.0720   1.0723   0.0403   0.0237
     0.0000   0.0000   0.0000   0.0000   0.0000   0.0000   0.0000   0.0000
     0.0000   0.0000   0.0000   0.0000   0.0000

          k = 0.0000 0.2108 0.0000 (151950 PWs)   bands (ev):

   -49.6408 -49.6404 -49.6394 -49.6389 -49.1828 -49.1824 -49.1812 -49.1808
   -48.9512 -48.9475 -48.9450 -48.9446 -48.9320 -48.9306 -48.9292 -48.9288
   -48.9275 -48.9269 -48.9265 -48.9222  -5.7052  -5.2301  -4.4743  -3.5791
    -3.3687  -3.1561  -2.9270  -2.7897  -2.7263  -2.6472  -2.3759  -2.2940
    -2.2704  -2.0515  -1.8373  -1.7636  -1.6873  -1.2132  -1.1528  -0.6283
    -0.5988  -0.2407  -0.0974   0.0037   0.0171

     occupation numbers 
     1.0000   1.0000   1.0000   1.0000   1.0000   1.0000   1.0000   1.0000
     1.0000   1.0000   1.0000   1.0000   1.0000   1.0000   1.0000   1.0000
     1.0000   1.0000   1.0000   1.0000   1.0000   1.0000   1.0000   1.0000
     1.0000   1.0000   1.0000   1.0030   1.0158   1.0608   0.2717   0.0562
     0.0315   0.0000   0.0000   0.0000   0.0000   0.0000   0.0000   0.0000
     0.0000   0.0000   0.0000   0.0000   0.0000

          k = 0.0000 0.3162 0.0000 (151992 PWs)   bands (ev):

   -49.6408 -49.6404 -49.6394 -49.6389 -49.1827 -49.1824 -49.1812 -49.1808
   -48.9506 -48.9474 -48.9450 -48.9446 -48.9330 -48.9310 -48.9292 -48.9288
   -48.9275 -48.9267 -48.9265 -48.9218  -5.5723  -5.0958  -4.3367  -3.6533
    -3.4370  -3.3934  -3.1817  -2.9495  -2.5568  -2.5381  -2.5314  -2.4417
    -2.3084  -2.1164  -2.0969  -1.7430  -1.6819  -1.3192  -1.2122  -0.5704
    -0.5658  -0.1198   0.0420   0.0692   0.1930

     occupation numbers 
     1.0000   1.0000   1.0000   1.0000   1.0000   1.0000   1.0000   1.0000
     1.0000   1.0000   1.0000   1.0000   1.0000   1.0000   1.0000   1.0000
     1.0000   1.0000   1.0000   1.0000   1.0000   1.0000   1.0000   1.0000
     1.0000   1.0000   1.0000   1.0000   1.0575   1.0225   1.0059   0.6039
     0.0779   0.0002   0.0001   0.0000   0.0000   0.0000   0.0000   0.0000
     0.0000   0.0000   0.0000   0.0000   0.0000

          k = 0.0000 0.4216 0.0000 (151948 PWs)   bands (ev):

   -49.6408 -49.6404 -49.6394 -49.6389 -49.1827 -49.1824 -49.1812 -49.1808
   -48.9499 -48.9473 -48.9450 -48.9446 -48.9340 -48.9314 -48.9292 -48.9288
   -48.9275 -48.9265 -48.9264 -48.9215  -5.3860  -4.9080  -4.1472  -4.1020
    -3.6213  -3.3687  -3.2403  -2.9271  -2.8575  -2.7895  -2.3818  -2.3759
    -2.2953  -2.2712  -1.8721  -1.8365  -1.7626  -1.3649  -1.2128  -0.7257
    -0.5983  -0.0207   0.0040   0.2261   0.2276

     occupation numbers 
     1.0000   1.0000   1.0000   1.0000   1.0000   1.0000   1.0000   1.0000
     1.0000   1.0000   1.0000   1.0000   1.0000   1.0000   1.0000   1.0000
     1.0000   1.0000   1.0000   1.0000   1.0000   1.0000   1.0000   1.0000
     1.0000   1.0000   1.0000   1.0000   1.0003   1.0030   0.2964   0.2716
     0.0580   0.0322   0.0000   0.0000   0.0000   0.0000   0.0000   0.0000
     0.0000   0.0000   0.0000   0.0000   0.0000

          k = 0.0000 0.5270 0.0000 (152033 PWs)   bands (ev):

   -49.6408 -49.6404 -49.6394 -49.6389 -49.1827 -49.1824 -49.1812 -49.1808
   -48.9493 -48.9473 -48.9450 -48.9446 -48.9347 -48.9317 -48.9292 -48.9288
   -48.9275 -48.9265 -48.9263 -48.9212  -5.1462  -4.6694  -4.5011  -4.0332
    -3.8839  -3.2948  -3.2459  -3.0055  -2.9954  -2.8503  -2.5700  -2.4137
    -2.2814  -2.0559  -1.9624  -1.8011  -1.5801  -1.4234  -1.2045  -0.8427
    -0.7376  -0.0569   0.0132   0.1028   0.3001

     occupation numbers 
     1.0000   1.0000   1.0000   1.0000   1.0000   1.0000   1.0000   1.0000
     1.0000   1.0000   1.0000   1.0000   1.0000   1.0000   1.0000   1.0000
     1.0000   1.0000   1.0000   1.0000   1.0000   1.0000   1.0000   1.0000
     1.0000   1.0000   1.0000   1.0000   1.0000   1.0004   1.0726   0.4509
     0.0416   0.0000   0.0000   0.0000   0.0000   0.0000   0.0000   0.0000
     0.0000   0.0000   0.0000   0.0000   0.0000

          k = 0.0000-0.6325 0.0000 (151994 PWs)   bands (ev):

   -49.6408 -49.6404 -49.6394 -49.6389 -49.1827 -49.1824 -49.1812 -49.1808
   -48.9491 -48.9473 -48.9450 -48.9446 -48.9349 -48.9317 -48.9292 -48.9288
   -48.9275 -48.9265 -48.9263 -48.9211  -4.8620  -4.8439  -4.3896  -4.3505
    -3.6256  -3.5624  -3.1728  -3.1726  -2.7591  -2.7357  -2.7307  -2.6436
    -2.2733  -1.9589  -1.8535  -1.8138  -1.5495  -1.4753  -1.1417  -0.8926
    -0.8293  -0.0811  -0.0760   0.0566   0.4500

     occupation numbers 
     1.0000   1.0000   1.0000   1.0000   1.0000   1.0000   1.0000   1.0000
     1.0000   1.0000   1.0000   1.0000   1.0000   1.0000   1.0000   1.0000
     1.0000   1.0000   1.0000   1.0000   1.0000   1.0000   1.0000   1.0000
     1.0000   1.0000   1.0000   1.0000   1.0071   1.0127   1.0143   1.0632
     0.0340   0.0000   0.0000   0.0000   0.0000   0.0000   0.0000   0.0000
     0.0000   0.0000   0.0000   0.0000   0.0000

          k = 0.1000 0.0316 0.0000 (152067 PWs)   bands (ev):

   -49.6408 -49.6404 -49.6394 -49.6390 -49.1827 -49.1824 -49.1812 -49.1809
   -48.9516 -48.9476 -48.9452 -48.9447 -48.9310 -48.9301 -48.9296 -48.9287
   -48.9274 -48.9272 -48.9263 -48.9227  -5.7851  -5.3110  -4.5574  -3.6719
    -3.6645  -3.2092  -2.7446  -2.6267  -2.5135  -2.2642  -2.2497  -2.0677
    -1.9882  -1.8227  -1.7794  -1.7370  -1.5031  -1.2578  -1.1137  -0.8768
    -0.8535  -0.4007  -0.2772  -0.1059  -0.0929

     occupation numbers 
     1.0000   1.0000   1.0000   1.0000   1.0000   1.0000   1.0000   1.0000
     1.0000   1.0000   1.0000   1.0000   1.0000   1.0000   1.0000   1.0000
     1.0000   1.0000   1.0000   1.0000   1.0000   1.0000   1.0000   1.0000
     1.0000   1.0000   1.0103   1.0738   0.9505   0.0268   0.0181   0.0000
     0.0000   0.0000   0.0000   0.0000   0.0000   0.0000   0.0000   0.0000
     0.0000   0.0000   0.0000   0.0000   0.0000

          k = 0.1000 0.1370 0.0000 (152026 PWs)   bands (ev):

   -49.6408 -49.6404 -49.6394 -49.6390 -49.1827 -49.1824 -49.1812 -49.1809
   -48.9514 -48.9475 -48.9452 -48.9447 -48.9314 -48.9303 -48.9296 -48.9287
   -48.9274 -48.9271 -48.9262 -48.9225  -5.7426  -5.2680  -4.5132  -3.7832
    -3.6188  -3.3205  -2.7645  -2.7013  -2.6112  -2.4572  -2.3577  -2.1344
    -1.8933  -1.8521  -1.7362  -1.6643  -1.4286  -1.1435  -1.1064  -0.7289
    -0.6704  -0.3221  -0.1781  -0.1117  -0.0351

     occupation numbers 
     1.0000   1.0000   1.0000   1.0000   1.0000   1.0000   1.0000   1.0000
     1.0000   1.0000   1.0000   1.0000   1.0000   1.0000   1.0000   1.0000
     1.0000   1.0000   1.0000   1.0000   1.0000   1.0000   1.0000   1.0000
     1.0000   1.0000   1.0061   1.0266   1.0807   0.6887   0.2028   0.0004
     0.0000   0.0000   0.0000   0.0000   0.0000   0.0000   0.0000   0.0000
     0.0000   0.0000   0.0000   0.0000   0.0000

          k = 0.1000 0.2424 0.0000 (151998 PWs)   bands (ev):

   -49.6408 -49.6404 -49.6394 -49.6390 -49.1827 -49.1824 -49.1812 -49.1809
   -48.9509 -48.9474 -48.9452 -48.9448 -48.9323 -48.9307 -48.9296 -48.9287
   -48.9275 -48.9268 -48.9261 -48.9221  -5.6470  -5.1713  -4.4138  -3.8440
    -3.5166  -3.3814  -3.2851  -2.8320  -2.6645  -2.5965  -2.2621  -2.1320
    -2.0211  -1.9701  -1.7393  -1.6498  -1.5387  -1.1638  -1.0087  -0.5604
    -0.4836  -0.1641  -0.0737  -0.0173   0.0947

     occupation numbers 
     1.0000   1.0000   1.0000   1.0000   1.0000   1.0000   1.0000   1.0000
     1.0000   1.0000   1.0000   1.0000   1.0000   1.0000   1.0000   1.0000
     1.0000   1.0000   1.0000   1.0000   1.0000   1.0000   1.0000   1.0000
     1.0000   1.0000   1.0000   1.0008   1.0489   1.0833   0.0254   0.0003
     0.0000   0.0000   0.0000   0.0000   0.0000   0.0000   0.0000   0.0000
     0.0000   0.0000   0.0000   0.0000   0.0000

          k = 0.1000 0.3479 0.0000 (151987 PWs)   bands (ev):

   -49.6408 -49.6404 -49.6394 -49.6390 -49.1827 -49.1824 -49.1812 -49.1809
   -48.9503 -48.9473 -48.9452 -48.9448 -48.9332 -48.9311 -48.9296 -48.9287
   -48.9275 -48.9266 -48.9261 -48.9218  -5.4981  -5.0209  -4.2599  -3.8542
    -3.7696  -3.3916  -3.3599  -3.2908  -2.6735  -2.5421  -2.4561  -2.1830
    -2.0650  -1.9552  -1.7518  -1.6878  -1.5654  -1.3267  -0.9857  -0.5708
    -0.4508  -0.0711  -0.0590   0.1501   0.2890

     occupation numbers 
     1.0000   1.0000   1.0000   1.0000   1.0000   1.0000   1.0000   1.0000
     1.0000   1.0000   1.0000   1.0000   1.0000   1.0000   1.0000   1.0000
     1.0000   1.0000   1.0000   1.0000   1.0000   1.0000   1.0000   1.0000
     1.0000   1.0000   1.0000   1.0000   1.0429   1.0314   0.6830   0.0022
     0.0000   0.0000   0.0000   0.0000   0.0000   0.0000   0.0000   0.0000
     0.0000   0.0000   0.0000   0.0000   0.0000

          k = 0.1000 0.4533 0.0000 (151932 PWs)   bands (ev):

   -49.6408 -49.6404 -49.6394 -49.6390 -49.1827 -49.1824 -49.1812 -49.1809
   -48.9496 -48.9472 -48.9452 -48.9447 -48.9341 -48.9314 -48.9296 -48.9287
   -48.9275 -48.9264 -48.9261 -48.9215  -5.2958  -4.8172  -4.2056  -4.0539
    -3.8136  -3.7188  -3.3510  -3.1454  -2.9519  -2.6379  -2.3810  -2.3246
    -2.0818  -1.9167  -1.9109  -1.7291  -1.4695  -1.3376  -1.0668  -0.7536
    -0.5794  -0.1001   0.0444   0.0986   0.2747

     occupation numbers 
     1.0000   1.0000   1.0000   1.0000   1.0000   1.0000   1.0000   1.0000
     1.0000   1.0000   1.0000   1.0000   1.0000   1.0000   1.0000   1.0000
     1.0000   1.0000   1.0000   1.0000   1.0000   1.0000   1.0000   1.0000
     1.0000   1.0000   1.0000   1.0000   1.0000   1.0670   0.2930   0.1096
     0.0000   0.0000   0.0000   0.0000   0.0000   0.0000   0.0000   0.0000
     0.0000   0.0000   0.0000   0.0000   0.0000

          k = 0.1000 0.5587 0.0000 (151966 PWs)   bands (ev):

   -49.6408 -49.6404 -49.6394 -49.6390 -49.1827 -49.1824 -49.1812 -49.1809
   -48.9491 -48.9472 -48.9452 -48.9447 -48.9347 -48.9316 -48.9296 -48.9287
   -48.9274 -48.9263 -48.9262 -48.9213  -5.0401  -4.6032  -4.5464  -4.1109
    -3.7824  -3.7224  -3.3286  -3.2598  -2.8879  -2.5693  -2.5518  -2.4591
    -2.2157  -1.9236  -1.8978  -1.7401  -1.4434  -1.4389  -1.1166  -0.8151
    -0.8098  -0.1127  -0.0120   0.0014   0.3831

     occupation numbers 
     1.0000   1.0000   1.0000   1.0000   1.0000   1.0000   1.0000   1.0000
     1.0000   1.0000   1.0000   1.0000   1.0000   1.0000   1.0000   1.0000
     1.0000   1.0000   1.0000   1.0000   1.0000   1.0000   1.0000   1.0000
     1.0000   1.0000   1.0000   1.0000   1.0001   1.0720   1.0497   0.6992
     0.0066   0.0000   0.0000   0.0000   0.0000   0.0000   0.0000   0.0000
     0.0000   0.0000   0.0000   0.0000   0.0000

          k = 0.1000-0.6008 0.0000 (151997 PWs)   bands (ev):

   -49.6408 -49.6404 -49.6394 -49.6390 -49.1827 -49.1824 -49.1812 -49.1809
   -48.9490 -48.9472 -48.9452 -48.9447 -48.9348 -48.9317 -48.9296 -48.9288
   -48.9274 -48.9264 -48.9263 -48.9212  -4.9230  -4.7310  -4.4407  -4.2461
    -3.6680  -3.5813  -3.4646  -3.1188  -2.7808  -2.7086  -2.5669  -2.4378
    -2.3318  -2.1352  -1.8431  -1.7361  -1.6402  -1.5041  -1.1757  -0.8771
    -0.8055  -0.1009  -0.0403   0.0212   0.4555

     occupation numbers 
     1.0000   1.0000   1.0000   1.0000   1.0000   1.0000   1.0000   1.0000
     1.0000   1.0000   1.0000   1.0000   1.0000   1.0000   1.0000   1.0000
     1.0000   1.0000   1.0000   1.0000   1.0000   1.0000   1.0000   1.0000
     1.0000   1.0000   1.0000   1.0000   1.0039   1.0230   1.0697   0.5821
     0.1265   0.0004   0.0000   0.0000   0.0000   0.0000   0.0000   0.0000
     0.0000   0.0000   0.0000   0.0000   0.0000

          k = 0.1000-0.4954 0.0000 (151985 PWs)   bands (ev):

   -49.6408 -49.6404 -49.6394 -49.6390 -49.1827 -49.1824 -49.1812 -49.1809
   -48.9494 -48.9472 -48.9451 -48.9447 -48.9344 -48.9315 -48.9295 -48.9288
   -48.9273 -48.9265 -48.9263 -48.9214  -5.1999  -4.7213  -4.3647  -3.9702
    -3.8628  -3.3917  -3.1079  -3.0469  -2.9313  -2.8090  -2.4553  -2.4031
    -2.3342  -2.2758  -1.9660  -1.9513  -1.7310  -1.3591  -1.3471  -0.8025
    -0.8008  -0.1301   0.0638   0.1933   0.2893

     occupation numbers 
     1.0000   1.0000   1.0000   1.0000   1.0000   1.0000   1.0000   1.0000
     1.0000   1.0000   1.0000   1.0000   1.0000   1.0000   1.0000   1.0000
     1.0000   1.0000   1.0000   1.0000   1.0000   1.0000   1.0000   1.0000
     1.0000   1.0000   1.0000   1.0000   1.0000   1.0016   0.6784   0.3965
     0.1325   0.0362   0.0000   0.0000   0.0000   0.0000   0.0000   0.0000
     0.0000   0.0000   0.0000   0.0000   0.0000

          k = 0.1000-0.3900 0.0000 (151942 PWs)   bands (ev):

   -49.6408 -49.6404 -49.6394 -49.6390 -49.1827 -49.1824 -49.1812 -49.1809
   -48.9500 -48.9473 -48.9451 -48.9447 -48.9336 -48.9312 -48.9295 -48.9288
   -48.9272 -48.9266 -48.9265 -48.9216  -5.4236  -4.9457  -4.1836  -3.9497
    -3.4702  -3.2779  -3.1564  -2.8717  -2.7678  -2.7084  -2.6786  -2.4595
    -2.3947  -2.2808  -2.0980  -1.8240  -1.7712  -1.4623  -1.3395  -0.7378
    -0.6387  -0.1816  -0.0317   0.2168   0.3134

     occupation numbers 
     1.0000   1.0000   1.0000   1.0000   1.0000   1.0000   1.0000   1.0000
     1.0000   1.0000   1.0000   1.0000   1.0000   1.0000   1.0000   1.0000
     1.0000   1.0000   1.0000   1.0000   1.0000   1.0000   1.0000   1.0000
     1.0000   1.0000   1.0000   1.0002   1.0056   1.0231   1.0396   0.7013
     0.3557   0.0410   0.0001   0.0000   0.0000   0.0000   0.0000   0.0000
     0.0000   0.0000   0.0000   0.0000   0.0000

          k = 0.1000-0.2846 0.0000 (151938 PWs)   bands (ev):

   -49.6408 -49.6404 -49.6394 -49.6390 -49.1827 -49.1824 -49.1812 -49.1809
   -48.9507 -48.9474 -48.9451 -48.9447 -48.9326 -48.9308 -48.9295 -48.9288
   -48.9272 -48.9268 -48.9267 -48.9220  -5.5939  -5.1175  -4.3587  -3.4884
    -3.4556  -3.0511  -3.0186  -2.8813  -2.8795  -2.5807  -2.5460  -2.4691
    -2.3982  -2.2910  -2.0305  -1.8791  -1.6427  -1.4807  -1.2388  -0.7241
    -0.5353  -0.1950  -0.1145   0.0501   0.1656

     occupation numbers 
     1.0000   1.0000   1.0000   1.0000   1.0000   1.0000   1.0000   1.0000
     1.0000   1.0000   1.0000   1.0000   1.0000   1.0000   1.0000   1.0000
     1.0000   1.0000   1.0000   1.0000   1.0000   1.0000   1.0000   1.0000
     1.0000   1.0000   1.0000   1.0001   1.0001   1.0798   1.0394   0.7524
     0.3724   0.0525   0.0000   0.0000   0.0000   0.0000   0.0000   0.0000
     0.0000   0.0000   0.0000   0.0000   0.0000

          k = 0.1000-0.1792 0.0000 (151999 PWs)   bands (ev):

   -49.6408 -49.6404 -49.6394 -49.6390 -49.1827 -49.1824 -49.1812 -49.1809
   -48.9512 -48.9475 -48.9451 -48.9447 -48.9317 -48.9304 -48.9295 -48.9288
   -48.9272 -48.9270 -48.9266 -48.9224  -5.7108  -5.2358  -4.4800  -3.5846
    -3.3029  -2.9760  -2.8601  -2.8201  -2.6729  -2.5712  -2.5360  -2.4338
    -2.2056  -2.0927  -1.9318  -1.7603  -1.6650  -1.4045  -1.1117  -0.7730
    -0.6533  -0.2660  -0.1508  -0.1173   0.0081

     occupation numbers 
     1.0000   1.0000   1.0000   1.0000   1.0000   1.0000   1.0000   1.0000
     1.0000   1.0000   1.0000   1.0000   1.0000   1.0000   1.0000   1.0000
     1.0000   1.0000   1.0000   1.0000   1.0000   1.0000   1.0000   1.0000
     1.0000   1.0000   1.0003   1.0011   1.0433   1.0736   1.0175   0.5601
     0.0048   0.0001   0.0000   0.0000   0.0000   0.0000   0.0000   0.0000
     0.0000   0.0000   0.0000   0.0000   0.0000

          k = 0.1000-0.0738 0.0000 (152043 PWs)   bands (ev):

   -49.6408 -49.6404 -49.6394 -49.6390 -49.1827 -49.1824 -49.1812 -49.1809
   -48.9515 -48.9476 -48.9451 -48.9447 -48.9311 -48.9301 -48.9296 -48.9288
   -48.9273 -48.9272 -48.9264 -48.9226  -5.7745  -5.3003  -4.5463  -3.6531
    -3.5112  -3.0487  -2.7547  -2.7336  -2.4475  -2.3848  -2.3655  -2.2471
    -2.1288  -1.8181  -1.7900  -1.7097  -1.7045  -1.2467  -1.2263  -0.8482
    -0.8195  -0.3814  -0.2502  -0.1078  -0.0785

     occupation numbers 
     1.0000   1.0000   1.0000   1.0000   1.0000   1.0000   1.0000   1.0000
     1.0000   1.0000   1.0000   1.0000   1.0000   1.0000   1.0000   1.0000
     1.0000   1.0000   1.0000   1.0000   1.0000   1.0000   1.0000   1.0000
     1.0000   1.0000   1.0080   1.0134   0.6355   0.3099   0.2309   0.0168
     0.0003   0.0000   0.0000   0.0000   0.0000   0.0000   0.0000   0.0000
     0.0000   0.0000   0.0000   0.0000   0.0000

          k = 0.2000 0.0632 0.0000 (151969 PWs)   bands (ev):

   -49.6407 -49.6403 -49.6395 -49.6391 -49.1826 -49.1823 -49.1813 -49.1810
   -48.9511 -48.9474 -48.9457 -48.9449 -48.9311 -48.9302 -48.9300 -48.9289
   -48.9272 -48.9271 -48.9257 -48.9228  -5.7063  -5.2313  -4.4754  -4.1213
    -3.6476  -3.5791  -2.9000  -2.6545  -2.3197  -2.1396  -2.0693  -2.0274
    -2.0185  -1.7346  -1.6503  -1.6106  -1.5615  -1.1713  -0.9934  -0.8571
    -0.7458  -0.3181  -0.2650  -0.1664  -0.0417

     occupation numbers 
     1.0000   1.0000   1.0000   1.0000   1.0000   1.0000   1.0000   1.0000
     1.0000   1.0000   1.0000   1.0000   1.0000   1.0000   1.0000   1.0000
     1.0000   1.0000   1.0000   1.0000   1.0000   1.0000   1.0000   1.0000
     1.0000   1.0000   1.0001   1.0558   0.0990   0.0004   0.0000   0.0000
     0.0000   0.0000   0.0000   0.0000   0.0000   0.0000   0.0000   0.0000
     0.0000   0.0000   0.0000   0.0000   0.0000

          k = 0.2000 0.1687 0.0000 (151968 PWs)   bands (ev):

   -49.6407 -49.6403 -49.6395 -49.6391 -49.1826 -49.1823 -49.1813 -49.1810
   -48.9508 -48.9473 -48.9457 -48.9450 -48.9316 -48.9303 -48.9301 -48.9288
   -48.9273 -48.9270 -48.9255 -48.9226  -5.6479  -5.1722  -4.4146  -4.2193
    -3.7467  -3.5163  -2.9977  -2.8512  -2.5965  -2.4155  -2.1824  -1.8777
    -1.8209  -1.7766  -1.5822  -1.5387  -1.3151  -1.0325  -1.0188  -0.5919
    -0.5872  -0.2413  -0.2112  -0.0453  -0.0146

     occupation numbers 
     1.0000   1.0000   1.0000   1.0000   1.0000   1.0000   1.0000   1.0000
     1.0000   1.0000   1.0000   1.0000   1.0000   1.0000   1.0000   1.0000
     1.0000   1.0000   1.0000   1.0000   1.0000   1.0000   1.0000   1.0000
     1.0000   1.0000   1.0000   1.0004   1.0833   0.4606   0.0022   0.0000
     0.0000   0.0000   0.0000   0.0000   0.0000   0.0000   0.0000   0.0000
     0.0000   0.0000   0.0000   0.0000   0.0000

          k = 0.2000 0.2741 0.0000 (152020 PWs)   bands (ev):

   -49.6407 -49.6403 -49.6395 -49.6391 -49.1826 -49.1823 -49.1813 -49.1810
   -48.9503 -48.9472 -48.9458 -48.9450 -48.9324 -48.9306 -48.9301 -48.9288
   -48.9273 -48.9268 -48.9255 -48.9222  -5.5364  -5.0593  -4.2987  -4.2658
    -3.7937  -3.4001  -3.3607  -3.0441  -2.8974  -2.4766  -2.2109  -2.1689
    -1.7223  -1.6602  -1.5573  -1.5199  -1.2632  -1.1361  -0.9266  -0.4519
    -0.4440  -0.2575  -0.0426   0.1217   0.1602

     occupation numbers 
     1.0000   1.0000   1.0000   1.0000   1.0000   1.0000   1.0000   1.0000
     1.0000   1.0000   1.0000   1.0000   1.0000   1.0000   1.0000   1.0000
     1.0000   1.0000   1.0000   1.0000   1.0000   1.0000   1.0000   1.0000
     1.0000   1.0000   1.0000   1.0000   1.0001   0.7904   0.0057   0.0014
     0.0000   0.0000   0.0000   0.0000   0.0000   0.0000   0.0000   0.0000
     0.0000   0.0000   0.0000   0.0000   0.0000

          k = 0.2000 0.3795 0.0000 (151962 PWs)   bands (ev):

   -49.6407 -49.6403 -49.6395 -49.6391 -49.1826 -49.1823 -49.1813 -49.1810
   -48.9497 -48.9471 -48.9458 -48.9450 -48.9333 -48.9310 -48.9301 -48.9288
   -48.9273 -48.9265 -48.9255 -48.9219  -5.3715  -4.8929  -4.2606  -4.1288
    -3.8344  -3.7885  -3.3540  -3.2196  -3.0390  -2.5884  -2.3251  -2.2077
    -1.7497  -1.6684  -1.6647  -1.5163  -1.2662  -1.2579  -0.9437  -0.5363
    -0.4621  -0.2523   0.0371   0.1281   0.2821

     occupation numbers 
     1.0000   1.0000   1.0000   1.0000   1.0000   1.0000   1.0000   1.0000
     1.0000   1.0000   1.0000   1.0000   1.0000   1.0000   1.0000   1.0000
     1.0000   1.0000   1.0000   1.0000   1.0000   1.0000   1.0000   1.0000
     1.0000   1.0000   1.0000   1.0000   1.0000   1.0824   0.1106   0.0051
     0.0000   0.0000   0.0000   0.0000   0.0000   0.0000   0.0000   0.0000
     0.0000   0.0000   0.0000   0.0000   0.0000

          k = 0.2000 0.4849 0.0000 (151925 PWs)   bands (ev):

   -49.6407 -49.6403 -49.6395 -49.6391 -49.1826 -49.1823 -49.1813 -49.1810
   -48.9491 -48.9470 -48.9457 -48.9450 -48.9341 -48.9313 -48.9302 -48.9288
   -48.9273 -48.9264 -48.9256 -48.9217  -5.1533  -4.6735  -4.2546  -4.2038
    -3.9135  -3.7582  -3.7311  -2.9991  -2.9868  -2.9824  -2.2379  -2.1740
    -1.9106  -1.8716  -1.8258  -1.5500  -1.3485  -1.2666  -1.0221  -0.7161
    -0.6302  -0.2409  -0.0372   0.1457   0.3635

     occupation numbers 
     1.0000   1.0000   1.0000   1.0000   1.0000   1.0000   1.0000   1.0000
     1.0000   1.0000   1.0000   1.0000   1.0000   1.0000   1.0000   1.0000
     1.0000   1.0000   1.0000   1.0000   1.0000   1.0000   1.0000   1.0000
     1.0000   1.0000   1.0000   1.0000   1.0000   1.0000   0.0129   0.0016
     0.0000   0.0000   0.0000   0.0000   0.0000   0.0000   0.0000   0.0000
     0.0000   0.0000   0.0000   0.0000   0.0000

          k = 0.2000 0.5903 0.0000 (151971 PWs)   bands (ev):

   -49.6407 -49.6403 -49.6395 -49.6391 -49.1826 -49.1823 -49.1813 -49.1810
   -48.9488 -48.9470 -48.9456 -48.9449 -48.9345 -48.9315 -48.9302 -48.9289
   -48.9272 -48.9263 -48.9257 -48.9215  -4.8818  -4.6265  -4.3973  -4.1404
    -4.0955  -3.6218  -3.6216  -3.3557  -2.8746  -2.7263  -2.4588  -2.1587
    -2.1173  -2.0500  -1.7733  -1.6538  -1.5959  -1.4111  -0.9906  -0.9116
    -0.7278  -0.2764  -0.0238   0.0415   0.4871

     occupation numbers 
     1.0000   1.0000   1.0000   1.0000   1.0000   1.0000   1.0000   1.0000
     1.0000   1.0000   1.0000   1.0000   1.0000   1.0000   1.0000   1.0000
     1.0000   1.0000   1.0000   1.0000   1.0000   1.0000   1.0000   1.0000
     1.0000   1.0000   1.0000   1.0000   1.0002   1.0158   0.6975   0.0009
     0.0002   0.0000   0.0000   0.0000   0.0000   0.0000   0.0000   0.0000
     0.0000   0.0000   0.0000   0.0000   0.0000

          k = 0.2000-0.5692 0.0000 (151945 PWs)   bands (ev):

   -49.6407 -49.6403 -49.6395 -49.6391 -49.1826 -49.1823 -49.1813 -49.1810
   -48.9488 -48.9470 -48.9455 -48.9449 -48.9345 -48.9315 -48.9302 -48.9290
   -48.9271 -48.9263 -48.9259 -48.9215  -4.9402  -4.5604  -4.4525  -4.0727
    -3.9362  -3.6792  -3.4606  -3.2874  -2.7807  -2.7171  -2.5217  -2.4032
    -2.2000  -2.0652  -1.9886  -1.8026  -1.6302  -1.3788  -1.3018  -0.9122
    -0.7336  -0.3495   0.0640   0.0736   0.4935

     occupation numbers 
     1.0000   1.0000   1.0000   1.0000   1.0000   1.0000   1.0000   1.0000
     1.0000   1.0000   1.0000   1.0000   1.0000   1.0000   1.0000   1.0000
     1.0000   1.0000   1.0000   1.0000   1.0000   1.0000   1.0000   1.0000
     1.0000   1.0000   1.0000   1.0000   1.0039   1.0193   0.9777   0.3972
     0.0040   0.0000   0.0000   0.0000   0.0000   0.0000   0.0000   0.0000
     0.0000   0.0000   0.0000   0.0000   0.0000

          k = 0.2000-0.4638 0.0000 (151886 PWs)   bands (ev):

   -49.6407 -49.6403 -49.6395 -49.6391 -49.1826 -49.1823 -49.1813 -49.1810
   -48.9492 -48.9470 -48.9454 -48.9449 -48.9340 -48.9313 -48.9302 -48.9290
   -48.9269 -48.9264 -48.9261 -48.9217  -5.2012  -4.7215  -4.1751  -3.9568
    -3.7266  -3.6846  -3.2498  -3.0431  -2.9140  -2.8890  -2.5179  -2.3879
    -2.2752  -2.2333  -1.9952  -1.8506  -1.6633  -1.6026  -1.2561  -0.9155
    -0.6909  -0.4217   0.1353   0.1466   0.3607

     occupation numbers 
     1.0000   1.0000   1.0000   1.0000   1.0000   1.0000   1.0000   1.0000
     1.0000   1.0000   1.0000   1.0000   1.0000   1.0000   1.0000   1.0000
     1.0000   1.0000   1.0000   1.0000   1.0000   1.0000   1.0000   1.0000
     1.0000   1.0000   1.0000   1.0000   1.0000   1.0001   0.9654   0.3237
     0.0357   0.0113   0.0000   0.0000   0.0000   0.0000   0.0000   0.0000
     0.0000   0.0000   0.0000   0.0000   0.0000

          k = 0.2000-0.3584 0.0000 (151888 PWs)   bands (ev):

   -49.6407 -49.6403 -49.6395 -49.6391 -49.1826 -49.1823 -49.1813 -49.1810
   -48.9499 -48.9471 -48.9454 -48.9448 -48.9332 -48.9310 -48.9302 -48.9290
   -48.9268 -48.9266 -48.9262 -48.9220  -5.4088  -4.9304  -4.1670  -3.7444
    -3.4690  -3.2766  -3.2482  -3.2303  -2.9851  -2.7395  -2.5047  -2.3565
    -2.3166  -2.2508  -2.0080  -1.9680  -1.6209  -1.5572  -1.2526  -0.9509
    -0.5005  -0.4625   0.0179   0.2576   0.2579

     occupation numbers 
     1.0000   1.0000   1.0000   1.0000   1.0000   1.0000   1.0000   1.0000
     1.0000   1.0000   1.0000   1.0000   1.0000   1.0000   1.0000   1.0000
     1.0000   1.0000   1.0000   1.0000   1.0000   1.0000   1.0000   1.0000
     1.0000   1.0000   1.0000   1.0000   1.0000   1.0116   0.9173   0.1986
     0.0929   0.0186   0.0000   0.0000   0.0000   0.0000   0.0000   0.0000
     0.0000   0.0000   0.0000   0.0000   0.0000

          k = 0.2000-0.2530 0.0000 (151943 PWs)   bands (ev):

   -49.6407 -49.6403 -49.6395 -49.6391 -49.1826 -49.1823 -49.1813 -49.1810
   -48.9505 -48.9472 -48.9454 -48.9448 -48.9322 -48.9306 -48.9302 -48.9290
   -48.9268 -48.9268 -48.9262 -48.9223  -5.5630  -5.0862  -4.3263  -3.5243
    -3.4258  -3.2640  -3.1689  -3.0372  -2.8036  -2.6767  -2.5023  -2.3144
    -2.2992  -2.0884  -1.9904  -1.9260  -1.5647  -1.5617  -1.0966  -0.9451
    -0.4652  -0.4579  -0.0696   0.0867   0.2044

     occupation numbers 
     1.0000   1.0000   1.0000   1.0000   1.0000   1.0000   1.0000   1.0000
     1.0000   1.0000   1.0000   1.0000   1.0000   1.0000   1.0000   1.0000
     1.0000   1.0000   1.0000   1.0000   1.0000   1.0000   1.0000   1.0000
     1.0000   1.0000   1.0000   1.0000   1.0020   1.0408   0.9077   0.0887
     0.0634   0.0001   0.0000   0.0000   0.0000   0.0000   0.0000   0.0000
     0.0000   0.0000   0.0000   0.0000   0.0000

          k = 0.2000-0.1476 0.0000 (151949 PWs)   bands (ev):

   -49.6407 -49.6403 -49.6395 -49.6391 -49.1826 -49.1823 -49.1813 -49.1810
   -48.9509 -48.9473 -48.9455 -48.9449 -48.9315 -48.9302 -48.9302 -48.9290
   -48.9270 -48.9269 -48.9261 -48.9226  -5.6639  -5.1883  -4.4312  -3.7726
    -3.5334  -3.2956  -2.8177  -2.7451  -2.6114  -2.5567  -2.3248  -2.3247
    -2.2602  -1.9977  -1.7804  -1.6161  -1.5911  -1.5817  -1.0526  -0.9108
    -0.6301  -0.4089  -0.2392  -0.0749   0.0681

     occupation numbers 
     1.0000   1.0000   1.0000   1.0000   1.0000   1.0000   1.0000   1.0000
     1.0000   1.0000   1.0000   1.0000   1.0000   1.0000   1.0000   1.0000
     1.0000   1.0000   1.0000   1.0000   1.0000   1.0000   1.0000   1.0000
     1.0000   1.0000   1.0012   1.0101   1.0807   1.0574   0.1100   0.1098
     0.0241   0.0000   0.0000   0.0000   0.0000   0.0000   0.0000   0.0000
     0.0000   0.0000   0.0000   0.0000   0.0000

          k = 0.2000-0.0422 0.0000 (151969 PWs)   bands (ev):

   -49.6407 -49.6403 -49.6395 -49.6391 -49.1826 -49.1823 -49.1813 -49.1810
   -48.9512 -48.9474 -48.9456 -48.9449 -48.9310 -48.9302 -48.9300 -48.9289
   -48.9272 -48.9271 -48.9258 -48.9228  -5.7116  -5.2367  -4.4810  -3.9721
    -3.5848  -3.4967  -2.7520  -2.6600  -2.4460  -2.2185  -2.1800  -2.0550
    -1.9840  -1.9318  -1.7415  -1.6872  -1.6304  -1.2299  -1.1885  -0.9190
    -0.7618  -0.3343  -0.3276  -0.1794   0.0036

     occupation numbers 
     1.0000   1.0000   1.0000   1.0000   1.0000   1.0000   1.0000   1.0000
     1.0000   1.0000   1.0000   1.0000   1.0000   1.0000   1.0000   1.0000
     1.0000   1.0000   1.0000   1.0000   1.0000   1.0000   1.0000   1.0000
     1.0000   1.0000   1.0085   1.0520   0.6274   0.0072   0.0020   0.0000
     0.0000   0.0000   0.0000   0.0000   0.0000   0.0000   0.0000   0.0000
     0.0000   0.0000   0.0000   0.0000   0.0000

          k = 0.3000 0.0949 0.0000 (151964 PWs)   bands (ev):

   -49.6405 -49.6401 -49.6397 -49.6392 -49.1824 -49.1821 -49.1815 -49.1812
   -48.9504 -48.9471 -48.9464 -48.9453 -48.9312 -48.9307 -48.9299 -48.9291
   -48.9271 -48.9271 -48.9249 -48.9230  -5.5749  -5.0986  -4.5184  -4.3392
    -4.0402  -3.4377  -3.2758  -2.5057  -2.3925  -2.3563  -2.1696  -1.9825
    -1.6836  -1.5950  -1.5655  -1.4670  -1.3563  -1.0277  -0.9053  -0.8484
    -0.5760  -0.2970  -0.1930  -0.0468   0.0123

     occupation numbers 
     1.0000   1.0000   1.0000   1.0000   1.0000   1.0000   1.0000   1.0000
     1.0000   1.0000   1.0000   1.0000   1.0000   1.0000   1.0000   1.0000
     1.0000   1.0000   1.0000   1.0000   1.0000   1.0000   1.0000   1.0000
     1.0000   1.0000   1.0000   0.9214   0.3453   0.1979   0.0014   0.0000
     0.0000   0.0000   0.0000   0.0000   0.0000   0.0000   0.0000   0.0000
     0.0000   0.0000   0.0000   0.0000   0.0000

          k = 0.3000 0.2003 0.0000 (152028 PWs)   bands (ev):

   -49.6405 -49.6401 -49.6397 -49.6392 -49.1824 -49.1821 -49.1815 -49.1812
   -48.9501 -48.9470 -48.9465 -48.9453 -48.9317 -48.9306 -48.9302 -48.9290
   -48.9272 -48.9269 -48.9249 -48.9228  -5.5006  -5.0233  -4.6020  -4.2618
    -4.1250  -3.3620  -3.3579  -2.8909  -2.4731  -2.4575  -2.4071  -1.7664
    -1.7381  -1.5832  -1.4403  -1.3083  -1.2763  -0.8912  -0.8691  -0.5779
    -0.4298  -0.4028  -0.0618   0.1310   0.1462

     occupation numbers 
     1.0000   1.0000   1.0000   1.0000   1.0000   1.0000   1.0000   1.0000
     1.0000   1.0000   1.0000   1.0000   1.0000   1.0000   1.0000   1.0000
     1.0000   1.0000   1.0000   1.0000   1.0000   1.0000   1.0000   1.0000
     1.0000   1.0000   1.0000   1.0001   0.7729   0.6906   0.4166   0.0000
     0.0000   0.0000   0.0000   0.0000   0.0000   0.0000   0.0000   0.0000
     0.0000   0.0000   0.0000   0.0000   0.0000

          k = 0.3000 0.3057 0.0000 (152004 PWs)   bands (ev):

   -49.6405 -49.6401 -49.6397 -49.6392 -49.1824 -49.1821 -49.1815 -49.1812
   -48.9496 -48.9469 -48.9466 -48.9454 -48.9325 -48.9306 -48.9305 -48.9290
   -48.9272 -48.9267 -48.9248 -48.9225  -5.3732  -4.8944  -4.6333  -4.1568
    -4.1295  -3.3943  -3.3936  -3.2207  -2.9147  -2.5037  -2.2972  -2.1604
    -1.5985  -1.4190  -1.4063  -1.3521  -1.0626  -1.0511  -0.8863  -0.5908
    -0.4682  -0.3083   0.0874   0.1146   0.2324

     occupation numbers 
     1.0000   1.0000   1.0000   1.0000   1.0000   1.0000   1.0000   1.0000
     1.0000   1.0000   1.0000   1.0000   1.0000   1.0000   1.0000   1.0000
     1.0000   1.0000   1.0000   1.0000   1.0000   1.0000   1.0000   1.0000
     1.0000   1.0000   1.0000   1.0000   1.0000   0.9136   0.0606   0.0010
     0.0000   0.0000   0.0000   0.0000   0.0000   0.0000   0.0000   0.0000
     0.0000   0.0000   0.0000   0.0000   0.0000

          k = 0.3000 0.4111 0.0000 (151987 PWs)   bands (ev):

   -49.6405 -49.6401 -49.6397 -49.6392 -49.1824 -49.1821 -49.1815 -49.1812
   -48.9490 -48.9468 -48.9465 -48.9453 -48.9333 -48.9309 -48.9305 -48.9290
   -48.9272 -48.9265 -48.9249 -48.9222  -5.1924  -4.7119  -4.6124  -4.1356
    -3.9443  -3.8475  -3.3728  -3.3605  -3.0284  -2.5837  -2.4834  -2.1388
    -1.6617  -1.6085  -1.5853  -1.3006  -1.2109  -1.1217  -0.8745  -0.5388
    -0.4676  -0.4669   0.1164   0.1718   0.1984

     occupation numbers 
     1.0000   1.0000   1.0000   1.0000   1.0000   1.0000   1.0000   1.0000
     1.0000   1.0000   1.0000   1.0000   1.0000   1.0000   1.0000   1.0000
     1.0000   1.0000   1.0000   1.0000   1.0000   1.0000   1.0000   1.0000
     1.0000   1.0000   1.0000   1.0000   1.0000   1.0811   0.8238   0.0004
     0.0000   0.0000   0.0000   0.0000   0.0000   0.0000   0.0000   0.0000
     0.0000   0.0000   0.0000   0.0000   0.0000

          k = 0.3000 0.5165 0.0000 (151948 PWs)   bands (ev):

   -49.6405 -49.6401 -49.6397 -49.6392 -49.1824 -49.1821 -49.1815 -49.1812
   -48.9485 -48.9467 -48.9464 -48.9453 -48.9339 -48.9311 -48.9306 -48.9291
   -48.9271 -48.9264 -48.9249 -48.9220  -4.9584  -4.5393  -4.4778  -4.2510
    -4.0614  -3.7867  -3.6772  -3.2975  -2.9804  -2.7853  -2.4126  -2.1371
    -2.0820  -1.7410  -1.6067  -1.5593  -1.3453  -1.1618  -0.8616  -0.8146
    -0.6124  -0.3075  -0.0129   0.2526   0.2580

     occupation numbers 
     1.0000   1.0000   1.0000   1.0000   1.0000   1.0000   1.0000   1.0000
     1.0000   1.0000   1.0000   1.0000   1.0000   1.0000   1.0000   1.0000
     1.0000   1.0000   1.0000   1.0000   1.0000   1.0000   1.0000   1.0000
     1.0000   1.0000   1.0000   1.0000   1.0000   1.0034   0.4453   0.0004
     0.0000   0.0000   0.0000   0.0000   0.0000   0.0000   0.0000   0.0000
     0.0000   0.0000   0.0000   0.0000   0.0000

          k = 0.3000 0.6219 0.0000 (151942 PWs)   bands (ev):

   -49.6405 -49.6401 -49.6396 -49.6392 -49.1824 -49.1821 -49.1815 -49.1812
   -48.9483 -48.9467 -48.9463 -48.9452 -48.9341 -48.9312 -48.9308 -48.9292
   -48.9270 -48.9263 -48.9250 -48.9220  -4.6723  -4.6059  -4.4140  -4.1902
    -4.1143  -3.9344  -3.4146  -3.3201  -3.1687  -2.5255  -2.5245  -2.3958
    -2.2912  -2.0236  -1.6083  -1.5903  -1.3720  -1.3145  -1.2249  -0.8611
    -0.5935  -0.4156  -0.0427   0.1342   0.3530

     occupation numbers 
     1.0000   1.0000   1.0000   1.0000   1.0000   1.0000   1.0000   1.0000
     1.0000   1.0000   1.0000   1.0000   1.0000   1.0000   1.0000   1.0000
     1.0000   1.0000   1.0000   1.0000   1.0000   1.0000   1.0000   1.0000
     1.0000   1.0000   1.0000   1.0000   1.0000   0.9895   0.9863   0.3606
     0.0527   0.0000   0.0000   0.0000   0.0000   0.0000   0.0000   0.0000
     0.0000   0.0000   0.0000   0.0000   0.0000

          k = 0.3000-0.5376 0.0000 (151892 PWs)   bands (ev):

   -49.6405 -49.6401 -49.6396 -49.6392 -49.1824 -49.1821 -49.1815 -49.1812
   -48.9485 -48.9467 -48.9461 -48.9452 -48.9339 -48.9311 -48.9309 -48.9293
   -48.9268 -48.9264 -48.9251 -48.9220  -4.9051  -4.4278  -4.3223  -4.2369
[...]
     1.0000   1.0000   1.0000   1.0000   1.0000   1.0000   1.0000   1.0000
     1.0000   1.0000   1.0000   1.0000   1.0000   1.0000   1.0000   1.0000
     1.0000   1.0000   1.0000   1.0000   1.0000   1.0000   0.8699   0.8699
     0.5680   0.5680   0.0000   0.0000   0.0000   0.0000   0.0000   0.0000
     0.0000   0.0000   0.0000   0.0000   0.0000

     the Fermi energy is    -2.4040 ev

!    total energy              =    -300.72484478 Ry
     total all-electron energy =      -300.725007 Ry
     estimated scf accuracy    <          8.5E-13 Ry

!    total charge of GC-SCF    =      -1.28307359 e
     smearing contrib. (-TS)   =      -0.00097718 Ry
     internal energy E=F+TS    =    -300.72386759 Ry

     The total energy is F=E-TS. E is the sum of the following terms:
     one-electron contribution =   -3540.16389507 Ry
     hartree contribution      =    1738.29723013 Ry
     xc contribution           =     -71.96787615 Ry
     ewald contribution        =    1528.91788974 Ry
     one-center paw contrib.   =       1.76445172 Ry
      -> PAW hartree energy AE =       7.41863136 Ry
      -> PAW hartree energy PS =      -7.19577850 Ry
      -> PAW xc energy AE      =      -3.48293755 Ry
      -> PAW xc energy PS      =       3.34837254 Ry
      -> total E_H with PAW    =    1738.52008299 Ry
      -> total E_XC with PAW   =     -72.10244116 Ry
     pot.stat. contrib. (-muN) =       0.22670722 Ry
     electrostatic embedding   =      -0.52930895 Ry
     cavitation energy         =       0.01512871 Ry
     electrolyte free energy   =      -0.00379969 Ry
     correction to one-el term =      42.71960474 Ry

     WARNING: you are using the parabolic pbc correction;
              the potential shift above must be added to 
              band and Fermi energies.

     convergence has been achieved in  13 iterations
     The dielectric solvent contribution to forces
     atom    1 type  1   force =     0.00000063   -0.01145613    0.06201647
     atom    2 type  1   force =    -0.00000022    0.00400956    0.03776468
     atom    3 type  1   force =     0.00000030   -0.00125605    0.02452649
     atom    4 type  1   force =    -0.00000007    0.00006722    0.00697393
     atom    5 type  1   force =     0.00000003   -0.00006980   -0.00676176
     atom    6 type  1   force =    -0.00000024    0.00126164   -0.02430149
     atom    7 type  1   force =     0.00000039   -0.00402160   -0.03754143
     atom    8 type  1   force =    -0.00000081    0.01145569   -0.06177337
     atom    9 type  1   force =     0.00000027   -0.00937847   -0.02188402
     atom   10 type  1   force =    -0.00000058    0.00936520    0.02209618
     atom   11 type  1   force =     0.00000063   -0.01145631    0.06201618
     atom   12 type  1   force =    -0.00000028    0.00400953    0.03776477
     atom   13 type  1   force =     0.00000031   -0.00125606    0.02452638
     atom   14 type  1   force =     0.00000002    0.00006720    0.00697380
     atom   15 type  1   force =     0.00000002   -0.00006983   -0.00676193
     atom   16 type  1   force =    -0.00000037    0.00126173   -0.02430169
     atom   17 type  1   force =     0.00000012   -0.00402136   -0.03754063
     atom   18 type  1   force =    -0.00000044    0.01145509   -0.06177315
     atom   19 type  1   force =     0.00000064   -0.00937869   -0.02187925
     atom   20 type  1   force =    -0.00000033    0.00936455    0.02209739


     Forces acting on atoms (cartesian axes, Ry/au):

     atom    1 type  1   force =     0.00000047    0.00009197    0.00004065
     atom    2 type  1   force =    -0.00000037   -0.00004798    0.00002227
     atom    3 type  1   force =    -0.00000123    0.00015821    0.00008427
     atom    4 type  1   force =     0.00000377    0.00011680    0.00007839
     atom    5 type  1   force =    -0.00000346   -0.00007884   -0.00014185
     atom    6 type  1   force =     0.00000097   -0.00014895   -0.00010762
     atom    7 type  1   force =     0.00000016    0.00005864   -0.00003886
     atom    8 type  1   force =     0.00000002   -0.00012026    0.00000535
     atom    9 type  1   force =    -0.00000011   -0.00005387    0.00005819
     atom   10 type  1   force =     0.00000056    0.00002383    0.00000086
     atom   11 type  1   force =     0.00000034    0.00009199    0.00004107
     atom   12 type  1   force =    -0.00000009   -0.00004748    0.00002212
     atom   13 type  1   force =    -0.00000144    0.00015788    0.00008369
     atom   14 type  1   force =     0.00000300    0.00011742    0.00007818
     atom   15 type  1   force =    -0.00000328   -0.00007840   -0.00014233
     atom   16 type  1   force =     0.00000173   -0.00014934   -0.00010775
     atom   17 type  1   force =     0.00000026    0.00005953   -0.00003830
     atom   18 type  1   force =    -0.00000078   -0.00012016    0.00000501
     atom   19 type  1   force =    -0.00000032   -0.00005436    0.00005647
     atom   20 type  1   force =    -0.00000020    0.00002335    0.00000018
     The non-local contrib.  to forces
     atom    1 type  1   force =     0.00001113    0.00516115   -0.02396846
     atom    2 type  1   force =     0.00003799    0.00029424    0.00054832
     atom    3 type  1   force =     0.00003750    0.00083421   -0.00154303
     atom    4 type  1   force =     0.00003584   -0.00126828    0.00007712
     atom    5 type  1   force =    -0.00003503    0.00125954   -0.00014688
     atom    6 type  1   force =    -0.00003810   -0.00088566    0.00151068
     atom    7 type  1   force =    -0.00003784   -0.00024710   -0.00054846
     atom    8 type  1   force =    -0.00001022   -0.00517039    0.02403272
     atom    9 type  1   force =    -0.00003888    0.00288005    0.05490782
     atom   10 type  1   force =     0.00003978   -0.00286942   -0.05485755
     atom   11 type  1   force =     0.00001066    0.00516090   -0.02396898
     atom   12 type  1   force =     0.00003865    0.00029515    0.00054835
     atom   13 type  1   force =     0.00003750    0.00083449   -0.00154337
     atom   14 type  1   force =     0.00003480   -0.00126830    0.00007663
     atom   15 type  1   force =    -0.00003471    0.00126001   -0.00014718
     atom   16 type  1   force =    -0.00003716   -0.00088486    0.00151230
     atom   17 type  1   force =    -0.00003814   -0.00024754   -0.00054882
     atom   18 type  1   force =    -0.00001215   -0.00517102    0.02403177
     atom   19 type  1   force =    -0.00003966    0.00287853    0.05491005
     atom   20 type  1   force =     0.00003813   -0.00286975   -0.05485780
     The ionic contribution  to forces
     atom    1 type  1   force =    -0.00009158    0.06289033   -9.57127499
     atom    2 type  1   force =    -0.00022079   -0.04714924   -6.27088023
     atom    3 type  1   force =     0.00002529    0.02436028   -4.27563063
     atom    4 type  1   force =    -0.00002821   -0.01169334   -1.07034994
     atom    5 type  1   force =     0.00003357    0.01218199    1.06996261
     atom    6 type  1   force =    -0.00003902   -0.02479313    4.27397105
     atom    7 type  1   force =     0.00022225    0.04783788    6.27211193
     atom    8 type  1   force =     0.00011333   -0.06339721    9.57071327
     atom    9 type  1   force =     0.00003569    0.03575529   11.09992501
     atom   10 type  1   force =    -0.00001833   -0.03599050  -11.09858706
     atom   11 type  1   force =    -0.00010167    0.06288664   -9.57131142
     atom   12 type  1   force =    -0.00021186   -0.04714183   -6.27087642
     atom   13 type  1   force =     0.00003614    0.02436190   -4.27561091
     atom   14 type  1   force =    -0.00004505   -0.01168840   -1.07033144
     atom   15 type  1   force =     0.00003724    0.01218592    1.06999323
     atom   16 type  1   force =    -0.00002239   -0.02479480    4.27401310
     atom   17 type  1   force =     0.00020938    0.04783812    6.27205769
     atom   18 type  1   force =     0.00008173   -0.06339788    9.57068314
     atom   19 type  1   force =     0.00002603    0.03574434   11.09998591
     atom   20 type  1   force =    -0.00004175   -0.03599636  -11.09856390
     The local contribution  to forces
     atom    1 type  1   force =     0.00008031   -0.05650284    9.53327762
     atom    2 type  1   force =     0.00018262    0.04279693    6.23258961
     atom    3 type  1   force =    -0.00006434   -0.02378029    4.25273070
     atom    4 type  1   force =    -0.00000382    0.01301176    1.06337773
     atom    5 type  1   force =    -0.00000202   -0.01345111   -1.06319580
     atom    6 type  1   force =     0.00007833    0.02426825   -4.25128669
     atom    7 type  1   force =    -0.00018466   -0.04351012   -6.23406046
     atom    8 type  1   force =    -0.00010229    0.05699115   -9.53297708
     atom    9 type  1   force =     0.00000282   -0.02931091  -11.13287163
     atom   10 type  1   force =    -0.00002027    0.02951870   11.13132941
     atom   11 type  1   force =     0.00009074   -0.05649871    9.53331528
     atom   12 type  1   force =     0.00017338    0.04278914    6.23258554
     atom   13 type  1   force =    -0.00007540   -0.02378251    4.25271085
     atom   14 type  1   force =     0.00001320    0.01300749    1.06335963
     atom   15 type  1   force =    -0.00000582   -0.01345506   -1.06322643
     atom   16 type  1   force =     0.00006166    0.02426866   -4.25133031
     atom   17 type  1   force =    -0.00017110   -0.04350927   -6.23400610
     atom   18 type  1   force =    -0.00006993    0.05699316   -9.53294655
     atom   19 type  1   force =     0.00001268   -0.02929875  -11.13294141
     atom   20 type  1   force =     0.00000381    0.02952507   11.13130464
     The core correction contribution to forces
     atom    1 type  1   force =     0.00000000    0.00000000    0.00000000
     atom    2 type  1   force =     0.00000000    0.00000000    0.00000000
     atom    3 type  1   force =     0.00000000    0.00000000    0.00000000
     atom    4 type  1   force =     0.00000000    0.00000000    0.00000000
     atom    5 type  1   force =     0.00000000    0.00000000    0.00000000
     atom    6 type  1   force =     0.00000000    0.00000000    0.00000000
     atom    7 type  1   force =     0.00000000    0.00000000    0.00000000
     atom    8 type  1   force =     0.00000000    0.00000000    0.00000000
     atom    9 type  1   force =     0.00000000    0.00000000    0.00000000
     atom   10 type  1   force =     0.00000000    0.00000000    0.00000000
     atom   11 type  1   force =     0.00000000    0.00000000    0.00000000
     atom   12 type  1   force =     0.00000000    0.00000000    0.00000000
     atom   13 type  1   force =     0.00000000    0.00000000    0.00000000
     atom   14 type  1   force =     0.00000000    0.00000000    0.00000000
     atom   15 type  1   force =     0.00000000    0.00000000    0.00000000
     atom   16 type  1   force =     0.00000000    0.00000000    0.00000000
     atom   17 type  1   force =     0.00000000    0.00000000    0.00000000
     atom   18 type  1   force =     0.00000000    0.00000000    0.00000000
     atom   19 type  1   force =     0.00000000    0.00000000    0.00000000
     atom   20 type  1   force =     0.00000000    0.00000000    0.00000000
     The Hubbard contrib.    to forces
     atom    1 type  1   force =     0.00000000    0.00000000    0.00000000
     atom    2 type  1   force =     0.00000000    0.00000000    0.00000000
     atom    3 type  1   force =     0.00000000    0.00000000    0.00000000
     atom    4 type  1   force =     0.00000000    0.00000000    0.00000000
     atom    5 type  1   force =     0.00000000    0.00000000    0.00000000
     atom    6 type  1   force =     0.00000000    0.00000000    0.00000000
     atom    7 type  1   force =     0.00000000    0.00000000    0.00000000
     atom    8 type  1   force =     0.00000000    0.00000000    0.00000000
     atom    9 type  1   force =     0.00000000    0.00000000    0.00000000
     atom   10 type  1   force =     0.00000000    0.00000000    0.00000000
     atom   11 type  1   force =     0.00000000    0.00000000    0.00000000
     atom   12 type  1   force =     0.00000000    0.00000000    0.00000000
     atom   13 type  1   force =     0.00000000    0.00000000    0.00000000
     atom   14 type  1   force =     0.00000000    0.00000000    0.00000000
     atom   15 type  1   force =     0.00000000    0.00000000    0.00000000
     atom   16 type  1   force =     0.00000000    0.00000000    0.00000000
     atom   17 type  1   force =     0.00000000    0.00000000    0.00000000
     atom   18 type  1   force =     0.00000000    0.00000000    0.00000000
     atom   19 type  1   force =     0.00000000    0.00000000    0.00000000
     atom   20 type  1   force =     0.00000000    0.00000000    0.00000000
     The SCF correction term to forces
     atom    1 type  1   force =    -0.00000003   -0.00000055   -0.00000977
     atom    2 type  1   force =     0.00000001    0.00000052    0.00000010
     atom    3 type  1   force =    -0.00000000    0.00000005    0.00000096
     atom    4 type  1   force =     0.00000002   -0.00000057   -0.00000024
     atom    5 type  1   force =    -0.00000003    0.00000053    0.00000019
     atom    6 type  1   force =    -0.00000001   -0.00000006   -0.00000095
     atom    7 type  1   force =     0.00000000   -0.00000042   -0.00000022
     atom    8 type  1   force =     0.00000001    0.00000048    0.00001003
     atom    9 type  1   force =    -0.00000003    0.00000015   -0.00001878
     atom   10 type  1   force =    -0.00000005   -0.00000017    0.00002009
     atom   11 type  1   force =    -0.00000003   -0.00000054   -0.00000977
     atom   12 type  1   force =     0.00000001    0.00000052    0.00000010
     atom   13 type  1   force =    -0.00000000    0.00000005    0.00000096
     atom   14 type  1   force =     0.00000001   -0.00000057   -0.00000023
     atom   15 type  1   force =    -0.00000003    0.00000054    0.00000020
     atom   16 type  1   force =    -0.00000002   -0.00000007   -0.00000093
     atom   17 type  1   force =    -0.00000001   -0.00000043   -0.00000022
     atom   18 type  1   force =     0.00000000    0.00000048    0.00001001
     atom   19 type  1   force =    -0.00000003    0.00000020   -0.00001862
     atom   20 type  1   force =    -0.00000007   -0.00000017    0.00002006

     Total force =     0.000550     Total SCF correction =     0.000044
     Energy error            =      3.5E-06 Ry
     Gradient error          =      1.6E-04 Ry/Bohr

     bfgs converged in  32 scf cycles and  31 bfgs steps
     (criteria: energy <  1.0E-05 Ry, force <  3.9E-04 Ry/Bohr)

     End of BFGS Geometry Optimization

     Final energy             =    -300.7248447781 Ry

     File ./Li/Lithium.bfgs deleted, as requested
Begin final coordinates

ATOMIC_POSITIONS (angstrom)
Li               1.7197102346        2.2109625671       20.9669776413
Li               0.0021656059        4.2973847150       22.3525284831
Li               0.0009846475        1.1342880005       23.1746939523
Li               1.7182290376        3.1933445202       24.5202690368
Li               1.7169246868        0.0635397805       25.4143214659
Li              -0.0009707241        2.1239222672       26.7583695121
Li               1.7154184177        4.3922314313       27.5810115178
Li               1.7154334117        1.0495031571       28.9642352019
Li              -0.0024742371        3.4737213507       29.8277390533
Li               3.4376129876       -0.2130605111       20.1037892650
Li               5.1548611193        2.2109679754       20.9669580619
Li               3.4373149928        4.2973777363       22.3525315806
Li               3.4361502174        1.1342968503       23.1747057298
Li               5.1534003986        3.1933310999       24.5202783493
Li               5.1520744134        0.0635360363       25.4143360031
Li               3.4341509184        2.1239363298       26.7583841111
Li               5.1505728520        4.3921976991       27.5809902787
Li               5.1506193076        1.0495023286       28.9642253647
Li               3.4326930341        3.4737335524       29.8277998993
Li               6.8727872817       -0.2130391120       20.1038103762
End final coordinates



     Writing all to output data dir ./Li/Lithium.save/ :
     XML data file
     init_run     :     12.92s CPU     26.65s WALL (       1 calls)
     electrons    :   7741.86s CPU  10252.96s WALL (      32 calls)
     update_pot   :      1.72s CPU      2.20s WALL (      31 calls)
     forces       :     93.57s CPU    100.86s WALL (      32 calls)

     Called by init_run:
     wfcinit      :      1.62s CPU      2.21s WALL (       1 calls)
     wfcinit:wfcr :      1.56s CPU      2.14s WALL (      31 calls)
     potinit      :      2.71s CPU      6.36s WALL (       1 calls)
     hinit0       :      4.12s CPU     12.38s WALL (       1 calls)

     Called by electrons:
     c_bands      :   6078.49s CPU   8160.99s WALL (     603 calls)
     sum_band     :    442.46s CPU    629.09s WALL (     603 calls)
     v_of_rho     :     23.66s CPU     28.86s WALL (     604 calls)
     v_h          :      2.35s CPU      2.75s WALL (     604 calls)
     v_xc         :     21.30s CPU     26.10s WALL (     604 calls)
     newd         :     22.94s CPU     47.88s WALL (     604 calls)
     PAW_pot      :      4.78s CPU      7.14s WALL (     635 calls)
     mix_rho      :     72.94s CPU     92.61s WALL (     603 calls)

     Called by c_bands:
     init_us_2    :     24.69s CPU     28.47s WALL (   39370 calls)
     cegterg      :   5664.52s CPU   7108.66s WALL (   19315 calls)

     Called by sum_band:
     sum_band:wei :      1.12s CPU      1.37s WALL (     603 calls)
     sum_band:loo :    421.17s CPU    592.14s WALL (     603 calls)
     sum_band:buf :      3.51s CPU      4.07s WALL (   18693 calls)
     sum_band:ini :      8.37s CPU      9.25s WALL (   18693 calls)
     sum_band:cal :     49.59s CPU     61.70s WALL (   19654 calls)
     sum_band:bec :      1.01s CPU      1.19s WALL (   19654 calls)
     addusdens    :      9.18s CPU      9.71s WALL (     603 calls)
                                        0.00s GPU  (     603 calls)
     addusd:skk   :      1.42s CPU      1.47s WALL (     603 calls)
                                        0.00s GPU  (     603 calls)

     Called by *egterg:
     cdiaghg      :   1447.08s CPU   1513.96s WALL (  232838 calls)
     cegterg:over :    292.68s CPU    327.35s WALL (  215577 calls)
     cegterg:upda :    269.02s CPU    280.26s WALL (  215577 calls)
     cegterg:last :     56.40s CPU     57.71s WALL (   24143 calls)
     h_psi        :   3308.92s CPU   4614.59s WALL (  234923 calls)
     s_psi        :    174.56s CPU    188.49s WALL (  234923 calls)
     g_psi        :      3.88s CPU      4.15s WALL (  215577 calls)

     Called by h_psi:
     h_psi:calbec :    287.91s CPU    366.10s WALL (  234923 calls)
     vloc_psi     :   2820.64s CPU   4019.13s WALL (  234923 calls)
                                        0.00s GPU  (  234923 calls)
     add_vuspsi   :    185.57s CPU    213.12s WALL (  234923 calls)

     General routines
     calbec       :    345.24s CPU    436.53s WALL (  258545 calls)
     fft          :     23.16s CPU     37.40s WALL (    7914 calls)
     ffts         :     57.26s CPU     72.95s WALL (   67627 calls)
     fftw         :   3055.45s CPU   4367.97s WALL ( 7289813 calls)
     interpolate  :      2.70s CPU      3.23s WALL (     604 calls)

     Parallel routines

     PAW routines
     PAW_pot      :      4.78s CPU      7.14s WALL (     635 calls)

     Environ routines

     PWSCF        :      2h12m CPU      2h54m WALL


   This run was terminated on:  14:55: 0   3Jan2025            

=------------------------------------------------------------------------------=
   JOB DONE.
=------------------------------------------------------------------------------=
