
     Program PWSCF v.7.4 starts on  5Jan2025 at  2:34:35 

     This program is part of the open-source Quantum ESPRESSO suite
     for quantum simulation of materials; please cite
         "P. Giannozzi et al., J. Phys.:Condens. Matter 21 395502 (2009);
         "P. Giannozzi et al., J. Phys.:Condens. Matter 29 465901 (2017);
         "P. Giannozzi et al., J. Chem. Phys. 152 154105 (2020);
          URL http://www.quantum-espresso.org", 
     in publications or presentations arising from this work. More details at
     http://www.quantum-espresso.org/quote

     Parallel version (MPI & OpenMP), running on     384 processor cores
     Number of MPI processes:               384
     Threads/MPI process:                     1

     MPI processes distributed on     3 nodes
     490923 MiB available memory on the printing compute node when the environment starts

     Reading input from espresso.pwi
Warning: card &CELL ignored
Warning: card    PRESS_CONV_THR   = 0.1 ignored
Warning: card    CELL_DOFREE      = 'ALL' ignored
Warning: card / ignored
Warning: card &FCP ignored
Warning: card / ignored
Warning: card &RISM ignored
Warning: card / ignored

     Current dimensions of program PWSCF are:
     Max number of different atomic species (ntypx) = 10
     Max number of k-points (npk) =  40000
     Max angular momentum in pseudopotentials (lmaxx) =  4

     IMPORTANT: XC functional enforced from input :
     Exchange-correlation= PBE
                           (   1   4   3   4   0   0   0)
     Any further DFT definition will be discarded
     Please, verify this is what you really want


     Reading input from environ.in:
     * using ionic solvent mode
     * setting boundary derivatives method to SSCS default
     * setting electrolyte-boundary derivatives method to SSCS default

Environ Warning (1001): card EOF ignored

     
     Found identity + (  0.5000 -0.0000  0.0000) symmetry
     This is a supercell, fractional translations are disabled

     K-points division:     npool     =       2
     R & G space division:  proc/nbgrp/npool/nimage =     192
     Subspace diagonalization in iterative solution of the eigenvalue problem:
     a serial algorithm will be used


     Parallelization info
     --------------------
     sticks:   dense  smooth     PW     G-vecs:    dense   smooth      PW
     Min          62      25      6                33436     8439    1136
     Max          63      27      7                33505     8489    1207
     Sum       11999    4803   1285              6425037  1625491  225007

     Using Slab Decomposition



     bravais-lattice index     =            8
     lattice parameter (alat)  =      12.9830  a.u.
     unit-cell volume          =   16814.9378 (a.u.)^3
     number of atoms/cell      =           20
     number of atomic types    =            1
     number of electrons       =        60.00
     number of Kohn-Sham states=           45
     kinetic-energy cutoff     =      80.0000  Ry
     charge density cutoff     =     800.0000  Ry
     scf convergence threshold =      1.0E-06
     mixing beta               =       0.2000
     number of iterations used =            8  local-TF  mixing
     energy convergence thresh.=      1.0E-05
     force convergence thresh. =      3.9E-04
     Exchange-correlation= PBE
                           (   1   4   3   4   0   0   0)
     nstep                     =          999


     ================================================================================

                                  Environ Setup Summary

     ================================================================================

     Please cite

          O. Andreussi, I. Dabo and N. Marzari, J. Chem. Phys. 136, 064102 (2012)
          F. Nattino, M. Truscott, N. Marzari, and O. Andreussi, J. Chem. Phys. 150, 041722 (2019)

     in publications or presentations arising from this work.

     ================================================================================

     Parameters
     ==========

     compensation onset threshold      =               0.1000E+00
     static permittivity               =                    89.90
     surface tension in input (dyn/cm) =                    37.30
     surface tension in internal units =               0.4792E-04

     Solvent Boundary
     ================

     solvent mode                      =                    ionic
     derivatives method                =                   lowmem
     electrolyte derivatives method    =                   lowmem
     numerical core for derivatives    =                      fft
     switching function adopted        =                     SCCS
     density limit for vacuum region   =               0.5000E-02
     density limit for bulk solvent    =               0.1000E-03
     soft-sphere radius mode           =                    bondi
     soft-sphere softness              =                     0.50
     alpha                             =                     1.32

     Electrostatic Setup
     ===================

     electrostatic problem to solve    =                    modpb
     numerical solver adopted          =                   newton
     type of auxiliary density adopted =                     none
     numerical core for poisson        =                      fft
     adopting a nested solver scheme
     inner solver                      =                       cg
     inner core                        =                      fft
     type of pbc corrections           =                parabolic
     numerical core for corrections    =                      1da

     ================================================================================


     >>>>> Grand-Canonical SCF is activated <<<<<
     Initial Total Charge  =     0.000000 e
     Target Fermi Energy   =    -1.404000 eV
     Thr. of Fermi Energy  =     0.001000 eV
     Wave-shift of Kerker  =     0.400000 bohr^-1
     Wave-shift of Hartree =     1.500000 bohr^-1
     Mixing Rate of Fermi  =     0.050000

     celldm(1)=  12.983009  celldm(2)=   1.118034  celldm(3)=   6.872491
     celldm(4)=   0.000000  celldm(5)=   0.000000  celldm(6)=   0.000000

     crystal axes: (cart. coord. in units of alat)
               a(1) = (   1.000000   0.000000   0.000000 )  
               a(2) = (   0.000000   1.118034   0.000000 )  
               a(3) = (   0.000000   0.000000   6.872491 )  

     reciprocal axes: (cart. coord. in units 2 pi/alat)
               b(1) = (  1.000000  0.000000  0.000000 )  
               b(2) = (  0.000000  0.894427  0.000000 )  
               b(3) = (  0.000000  0.000000  0.145508 )  


     PseudoPot. # 1 for Li read from file:
     /work/e89/e89/ba3g18/Repos/Pseudopotentials/Pslibrary/Li.pbe-sl-kjpaw_psl.1.0.0.UPF
     MD5 check sum: 3f4d2cafebb47c6c3aa8ed472e6f074d
     Pseudo is Projector augmented-wave, Zval =  3.0
     Generated using 'atomic' code by A. Dal Corso  v.7.4
     Shape of augmentation charge: PSQ
     Using radial grid of 1017 points,  4 beta functions with: 
                l(1) =   0
                l(2) =   0
                l(3) =   1
                l(4) =   1
     Q(r) pseudized with 0 coefficients 


     atomic species   valence    mass     pseudopotential
     Li                3.00     6.94000     Li( 1.00)

      2 Sym. Ops. (no inversion) found


                                    s                        frac. trans.

      isym =  1     identity                                     

 cryst.   s( 1) = (     1          0          0      )
                  (     0          1          0      )
                  (     0          0          1      )

 cart.    s( 1) = (  1.0000000  0.0000000  0.0000000 )
                  (  0.0000000  1.0000000  0.0000000 )
                  (  0.0000000  0.0000000  1.0000000 )


      isym =  2     inv. 180 deg rotation - cart. axis [1,0,0]   

 cryst.   s( 2) = (    -1          0          0      )
                  (     0          1          0      )
                  (     0          0          1      )

 cart.    s( 2) = ( -1.0000000  0.0000000  0.0000000 )
                  (  0.0000000  1.0000000  0.0000000 )
                  (  0.0000000  0.0000000  1.0000000 )


     point group C_s (m)    
     there are  2 classes
     the character table:

       E     s    
A'     1.00  1.00
A''    1.00 -1.00

     the symmetry operations in each class and the name of the first element:

     E        1
          identity                                               
     s        2
          inv. 180 deg rotation - cart. axis [1,0,0]             

   Cartesian axes

     site n.     atom                  positions (alat units)
         1        Li     tau(   1) = (  -0.0000000   0.4459480   3.7562735  )
         2        Li     tau(   2) = (  -0.0000000   0.9011179   3.4657145  )
         3        Li     tau(   3) = (  -0.0000000   0.2215109   3.2738878  )
         4        Li     tau(   4) = (  -0.0000000   0.6422931   3.0581967  )
         5        Li     tau(   5) = (  -0.0000000   0.0347282   3.9385922  )
         6        Li     tau(   6) = (   0.2500017   0.5524521   3.4068461  )
         7        Li     tau(   7) = (   0.2499986   1.0074069   3.1163450  )
         8        Li     tau(   8) = (   0.2499992   0.3004606   2.9340906  )
         9        Li     tau(   9) = (   0.2500008   0.8110204   3.8143270  )
        10        Li     tau(  10) = (   0.2499991   0.1142137   3.5981746  )
        11        Li     tau(  11) = (   0.5000000   0.4459476   3.7562737  )
        12        Li     tau(  12) = (   0.5000000   0.9011174   3.4657126  )
        13        Li     tau(  13) = (   0.5000000   0.2215133   3.2738846  )
        14        Li     tau(  14) = (   0.5000000   0.6422925   3.0581945  )
        15        Li     tau(  15) = (   0.5000000   0.0347285   3.9385978  )
        16        Li     tau(  16) = (   0.7499982   0.5524521   3.4068461  )
        17        Li     tau(  17) = (   0.7500013   1.0074069   3.1163450  )
        18        Li     tau(  18) = (   0.7500007   0.3004606   2.9340906  )
        19        Li     tau(  19) = (   0.7499992   0.8110204   3.8143270  )
        20        Li     tau(  20) = (   0.7500009   0.1142137   3.5981746  )

   Crystallographic axes

     site n.     atom                  positions (cryst. coord.)
         1        Li     tau(   1) = ( -0.0000000  0.3988680  0.5465665  )
         2        Li     tau(   2) = ( -0.0000000  0.8059843  0.5042880  )
         3        Li     tau(   3) = ( -0.0000000  0.1981254  0.4763757  )
         4        Li     tau(   4) = ( -0.0000000  0.5744844  0.4449910  )
         5        Li     tau(   5) = ( -0.0000000  0.0310618  0.5730953  )
         6        Li     tau(   6) = (  0.2500017  0.4941282  0.4957222  )
         7        Li     tau(   7) = (  0.2499986  0.9010522  0.4534520  )
         8        Li     tau(   8) = (  0.2499992  0.2687401  0.4269326  )
         9        Li     tau(   9) = (  0.2500008  0.7253987  0.5550137  )
        10        Li     tau(  10) = (  0.2499991  0.1021559  0.5235619  )
        11        Li     tau(  11) = (  0.5000000  0.3988677  0.5465665  )
        12        Li     tau(  12) = (  0.5000000  0.8059839  0.5042877  )
        13        Li     tau(  13) = (  0.5000000  0.1981275  0.4763752  )
        14        Li     tau(  14) = (  0.5000000  0.5744839  0.4449907  )
        15        Li     tau(  15) = (  0.5000000  0.0310621  0.5730961  )
        16        Li     tau(  16) = (  0.7499982  0.4941282  0.4957222  )
        17        Li     tau(  17) = (  0.7500013  0.9010522  0.4534520  )
        18        Li     tau(  18) = (  0.7500007  0.2687401  0.4269326  )
        19        Li     tau(  19) = (  0.7499992  0.7253987  0.5550137  )
        20        Li     tau(  20) = (  0.7500009  0.1021559  0.5235619  )

     number of k points=    30  Marzari-Vanderbilt smearing, width (Ry)=  0.0100
                       cart. coord. in units 2pi/alat
        k(    1) = (   0.0000000   0.0000000   0.0000000), wk =   0.0222222
        k(    2) = (   0.0000000   0.0993808   0.0000000), wk =   0.0444444
        k(    3) = (   0.0000000   0.1987616   0.0000000), wk =   0.0444444
        k(    4) = (   0.0000000   0.2981424   0.0000000), wk =   0.0444444
        k(    5) = (   0.0000000   0.3975232   0.0000000), wk =   0.0444444
        k(    6) = (   0.1000000   0.0000000   0.0000000), wk =   0.0444444
        k(    7) = (   0.1000000   0.0993808   0.0000000), wk =   0.0888889
        k(    8) = (   0.1000000   0.1987616   0.0000000), wk =   0.0888889
        k(    9) = (   0.1000000   0.2981424   0.0000000), wk =   0.0888889
        k(   10) = (   0.1000000   0.3975232   0.0000000), wk =   0.0888889
        k(   11) = (   0.2000000   0.0000000   0.0000000), wk =   0.0444444
        k(   12) = (   0.2000000   0.0993808   0.0000000), wk =   0.0888889
        k(   13) = (   0.2000000   0.1987616   0.0000000), wk =   0.0888889
        k(   14) = (   0.2000000   0.2981424   0.0000000), wk =   0.0888889
        k(   15) = (   0.2000000   0.3975232   0.0000000), wk =   0.0888889
        k(   16) = (   0.3000000   0.0000000   0.0000000), wk =   0.0444444
        k(   17) = (   0.3000000   0.0993808   0.0000000), wk =   0.0888889
        k(   18) = (   0.3000000   0.1987616   0.0000000), wk =   0.0888889
        k(   19) = (   0.3000000   0.2981424   0.0000000), wk =   0.0888889
        k(   20) = (   0.3000000   0.3975232   0.0000000), wk =   0.0888889
        k(   21) = (   0.4000000   0.0000000   0.0000000), wk =   0.0444444
        k(   22) = (   0.4000000   0.0993808   0.0000000), wk =   0.0888889
        k(   23) = (   0.4000000   0.1987616   0.0000000), wk =   0.0888889
        k(   24) = (   0.4000000   0.2981424   0.0000000), wk =   0.0888889
        k(   25) = (   0.4000000   0.3975232   0.0000000), wk =   0.0888889
        k(   26) = (  -0.5000000   0.0000000   0.0000000), wk =   0.0222222
        k(   27) = (  -0.5000000   0.0993808   0.0000000), wk =   0.0444444
        k(   28) = (  -0.5000000   0.1987616   0.0000000), wk =   0.0444444
        k(   29) = (  -0.5000000   0.2981424   0.0000000), wk =   0.0444444
        k(   30) = (  -0.5000000   0.3975232   0.0000000), wk =   0.0444444

                       cryst. coord.
        k(    1) = (   0.0000000   0.0000000   0.0000000), wk =   0.0222222
        k(    2) = (   0.0000000   0.1111111   0.0000000), wk =   0.0444444
        k(    3) = (   0.0000000   0.2222222   0.0000000), wk =   0.0444444
        k(    4) = (   0.0000000   0.3333333   0.0000000), wk =   0.0444444
        k(    5) = (   0.0000000   0.4444444   0.0000000), wk =   0.0444444
        k(    6) = (   0.1000000   0.0000000   0.0000000), wk =   0.0444444
        k(    7) = (   0.1000000   0.1111111   0.0000000), wk =   0.0888889
        k(    8) = (   0.1000000   0.2222222   0.0000000), wk =   0.0888889
        k(    9) = (   0.1000000   0.3333333   0.0000000), wk =   0.0888889
        k(   10) = (   0.1000000   0.4444444   0.0000000), wk =   0.0888889
        k(   11) = (   0.2000000   0.0000000   0.0000000), wk =   0.0444444
        k(   12) = (   0.2000000   0.1111111   0.0000000), wk =   0.0888889
        k(   13) = (   0.2000000   0.2222222   0.0000000), wk =   0.0888889
        k(   14) = (   0.2000000   0.3333333   0.0000000), wk =   0.0888889
        k(   15) = (   0.2000000   0.4444444   0.0000000), wk =   0.0888889
        k(   16) = (   0.3000000   0.0000000   0.0000000), wk =   0.0444444
        k(   17) = (   0.3000000   0.1111111   0.0000000), wk =   0.0888889
        k(   18) = (   0.3000000   0.2222222   0.0000000), wk =   0.0888889
        k(   19) = (   0.3000000   0.3333333   0.0000000), wk =   0.0888889
        k(   20) = (   0.3000000   0.4444444   0.0000000), wk =   0.0888889
        k(   21) = (   0.4000000   0.0000000   0.0000000), wk =   0.0444444
        k(   22) = (   0.4000000   0.1111111   0.0000000), wk =   0.0888889
        k(   23) = (   0.4000000   0.2222222   0.0000000), wk =   0.0888889
        k(   24) = (   0.4000000   0.3333333   0.0000000), wk =   0.0888889
        k(   25) = (   0.4000000   0.4444444   0.0000000), wk =   0.0888889
        k(   26) = (  -0.5000000   0.0000000   0.0000000), wk =   0.0222222
        k(   27) = (  -0.5000000   0.1111111   0.0000000), wk =   0.0444444
        k(   28) = (  -0.5000000   0.2222222   0.0000000), wk =   0.0444444
        k(   29) = (  -0.5000000   0.3333333   0.0000000), wk =   0.0444444
        k(   30) = (  -0.5000000   0.4444444   0.0000000), wk =   0.0444444

     Dense  grid:  6425037 G-vectors     FFT dimensions: ( 120, 135, 810)

     Smooth grid:  1625491 G-vectors     FFT dimensions: (  75,  90, 512)

     Dynamical RAM for                 wfc:       0.73 MB

     Dynamical RAM for     wfc (w. buffer):      11.62 MB

     Dynamical RAM for           str. fact:       0.51 MB

     Dynamical RAM for           local pot:       0.00 MB

     Dynamical RAM for          nlocal pot:       2.58 MB

     Dynamical RAM for                qrad:       0.65 MB

     Dynamical RAM for          rho,v,vnew:       3.38 MB

     Dynamical RAM for               rhoin:       1.13 MB

     Dynamical RAM for            rho*nmix:       8.16 MB

     Dynamical RAM for           G-vectors:       1.98 MB

     Dynamical RAM for          h,s,v(r/c):       1.48 MB

     Dynamical RAM for          <psi|beta>:       0.11 MB

     Dynamical RAM for                 psi:       2.91 MB

     Dynamical RAM for                hpsi:       2.91 MB

     Dynamical RAM for                spsi:       2.91 MB

     Dynamical RAM for      wfcinit/wfcrot:       1.50 MB

     Dynamical RAM for           addusdens:      16.33 MB

     Dynamical RAM for          addusforce:      26.04 MB

     Estimated static dynamical RAM per process >      25.97 MB

     Estimated max dynamical RAM per process >      98.04 MB

     Estimated total dynamical RAM >      21.03 GB

     Initial potential from superposition of free atoms

     starting charge      59.9078, renormalised to      60.0000

     negative rho (up, down):  2.814E-03 0.000E+00
     Starting wfcs are random
     Checking if some PAW data can be deallocated... 

     total cpu time spent up to now is       21.0 secs

     Self-consistent Calculation

     iteration #  1     ecut=    80.00 Ry     beta= 0.20
     Davidson diagonalization with overlap

---- Real-time Memory Report at c_bands before calling an iterative solver
           367 MiB given to the printing process from OS
             0 MiB allocation reported by mallinfo(arena+hblkhd)
        476327 MiB available memory on the node where the printing process lives
------------------
     c_bands:  1 eigenvalues not converged
     c_bands:  1 eigenvalues not converged
     ethr =  1.00E-12,  avg # of iterations =121.7

     negative rho (up, down):  2.058E-03 0.000E+00

     total cpu time spent up to now is      106.2 secs

     total energy              =    -300.92182179 Ry
     estimated scf accuracy    <       0.11015431 Ry

     total charge of GC-SCF    =      -0.00792929 e
     the Fermi energy          =      -4.55868046 eV
                        (error :       3.15468046 eV)
     electrostatic embedding   =       0.00000000 Ry
     cavitation energy         =       0.02127563 Ry
     electrolyte free energy   =       0.00723735 Ry
     correction to one-el term =      -0.00000000 Ry

     iteration #  2     ecut=    80.00 Ry     beta= 0.20
     Davidson diagonalization with overlap

---- Real-time Memory Report at c_bands before calling an iterative solver
           367 MiB given to the printing process from OS
             0 MiB allocation reported by mallinfo(arena+hblkhd)
        476444 MiB available memory on the node where the printing process lives
------------------
     ethr =  1.00E-05,  avg # of iterations = 10.2

     negative rho (up, down):  1.483E-03 0.000E+00

     add environment contribution to local potential

     total cpu time spent up to now is      119.9 secs

     total energy              =    -300.66500170 Ry
     estimated scf accuracy    <       0.03965931 Ry

     total charge of GC-SCF    =      -0.03376061 e
     the Fermi energy          =      -3.68115802 eV
                        (error :       2.27715802 eV)
     electrostatic embedding   =      -0.00004444 Ry
     cavitation energy         =       0.02127563 Ry
     electrolyte free energy   =       0.00723735 Ry
     correction to one-el term =      -0.00000000 Ry

     iteration #  3     ecut=    80.00 Ry     beta= 0.20
     Davidson diagonalization with overlap

---- Real-time Memory Report at c_bands before calling an iterative solver
           367 MiB given to the printing process from OS
             0 MiB allocation reported by mallinfo(arena+hblkhd)
        476507 MiB available memory on the node where the printing process lives
------------------
     ethr =  1.00E-05,  avg # of iterations = 17.2

     negative rho (up, down):  1.258E-03 0.000E+00

     add environment contribution to local potential

     total cpu time spent up to now is      138.0 secs

     total energy              =    -300.68279179 Ry
     estimated scf accuracy    <       0.01202374 Ry

     total charge of GC-SCF    =      -0.10326348 e
     the Fermi energy          =      -2.74600063 eV
                        (error :       1.34200063 eV)
     electrostatic embedding   =      -0.02183290 Ry
     cavitation energy         =       0.02127563 Ry
     electrolyte free energy   =      -0.00196688 Ry
     correction to one-el term =       0.33860534 Ry

     iteration #  4     ecut=    80.00 Ry     beta= 0.20
     Davidson diagonalization with overlap

---- Real-time Memory Report at c_bands before calling an iterative solver
           367 MiB given to the printing process from OS
             0 MiB allocation reported by mallinfo(arena+hblkhd)
        476625 MiB available memory on the node where the printing process lives
------------------
     ethr =  1.00E-05,  avg # of iterations =  7.9

     negative rho (up, down):  1.050E-03 0.000E+00

     add environment contribution to local potential

     total cpu time spent up to now is      150.4 secs

     total energy              =    -300.65537942 Ry
     estimated scf accuracy    <       0.00866894 Ry

     total charge of GC-SCF    =      -0.23701108 e
     the Fermi energy          =      -3.01213659 eV
                        (error :       1.60813659 eV)
     electrostatic embedding   =      -0.02586693 Ry
     cavitation energy         =       0.02127563 Ry
     electrolyte free energy   =      -0.00266868 Ry
     correction to one-el term =       2.56005956 Ry

     iteration #  5     ecut=    80.00 Ry     beta= 0.20
     Davidson diagonalization with overlap

---- Real-time Memory Report at c_bands before calling an iterative solver
           367 MiB given to the printing process from OS
             0 MiB allocation reported by mallinfo(arena+hblkhd)
        476686 MiB available memory on the node where the printing process lives
------------------
     ethr =  1.00E-05,  avg # of iterations =  7.8

     negative rho (up, down):  8.895E-04 0.000E+00

     add environment contribution to local potential

     total cpu time spent up to now is      162.3 secs

     total energy              =    -300.59814644 Ry
     estimated scf accuracy    <       0.00301145 Ry

     total charge of GC-SCF    =      -0.47515732 e
     the Fermi energy          =      -2.71739585 eV
                        (error :       1.31339585 eV)
     electrostatic embedding   =      -0.03929726 Ry
     cavitation energy         =       0.02127563 Ry
     electrolyte free energy   =      -0.00147078 Ry
     correction to one-el term =       7.24739982 Ry

     iteration #  6     ecut=    80.00 Ry     beta= 0.20
     Davidson diagonalization with overlap

---- Real-time Memory Report at c_bands before calling an iterative solver
           367 MiB given to the printing process from OS
             0 MiB allocation reported by mallinfo(arena+hblkhd)
        476708 MiB available memory on the node where the printing process lives
------------------
     ethr =  4.98E-06,  avg # of iterations = 24.6

     negative rho (up, down):  8.011E-04 0.000E+00

     add environment contribution to local potential

     total cpu time spent up to now is      183.0 secs

     total energy              =    -300.68712143 Ry
     estimated scf accuracy    <       0.00531086 Ry

     total charge of GC-SCF    =      -0.67598139 e
     the Fermi energy          =      -2.22474400 eV
                        (error :       0.82074400 eV)
     electrostatic embedding   =      -0.09161371 Ry
     cavitation energy         =       0.02127563 Ry
     electrolyte free energy   =      -0.00142481 Ry
     correction to one-el term =      15.65432555 Ry

     iteration #  7     ecut=    80.00 Ry     beta= 0.20
     Davidson diagonalization with overlap

---- Real-time Memory Report at c_bands before calling an iterative solver
           367 MiB given to the printing process from OS
             0 MiB allocation reported by mallinfo(arena+hblkhd)
        476750 MiB available memory on the node where the printing process lives
------------------
     ethr =  4.98E-06,  avg # of iterations =  6.7

     negative rho (up, down):  7.526E-04 0.000E+00

     add environment contribution to local potential

     total cpu time spent up to now is      194.4 secs

     total energy              =    -300.68355551 Ry
     estimated scf accuracy    <       0.00582264 Ry

     total charge of GC-SCF    =      -0.93131104 e
     the Fermi energy          =      -2.15177667 eV
                        (error :       0.74777667 eV)
     electrostatic embedding   =      -0.15865101 Ry
     cavitation energy         =       0.02127563 Ry
     electrolyte free energy   =      -0.00190821 Ry
     correction to one-el term =      21.88284947 Ry

     iteration #  8     ecut=    80.00 Ry     beta= 0.20
     Davidson diagonalization with overlap

---- Real-time Memory Report at c_bands before calling an iterative solver
           367 MiB given to the printing process from OS
             0 MiB allocation reported by mallinfo(arena+hblkhd)
        476738 MiB available memory on the node where the printing process lives
------------------
     ethr =  4.98E-06,  avg # of iterations =  9.4

     negative rho (up, down):  6.912E-04 0.000E+00

     add environment contribution to local potential

     total cpu time spent up to now is      207.2 secs

     total energy              =    -300.68791766 Ry
     estimated scf accuracy    <       0.00107034 Ry

     total charge of GC-SCF    =      -1.36868512 e
     the Fermi energy          =      -2.30740209 eV
                        (error :       0.90340209 eV)
     electrostatic embedding   =      -0.26839910 Ry
     cavitation energy         =       0.02127563 Ry
     electrolyte free energy   =      -0.00200653 Ry
     correction to one-el term =      29.12387454 Ry

     iteration #  9     ecut=    80.00 Ry     beta= 0.20
     Davidson diagonalization with overlap

---- Real-time Memory Report at c_bands before calling an iterative solver
           367 MiB given to the printing process from OS
             0 MiB allocation reported by mallinfo(arena+hblkhd)
        476714 MiB available memory on the node where the printing process lives
------------------
     ethr =  1.74E-06,  avg # of iterations = 12.4

     negative rho (up, down):  6.367E-04 0.000E+00

     add environment contribution to local potential

     total cpu time spent up to now is      222.7 secs

     total energy              =    -300.73774309 Ry
     estimated scf accuracy    <       0.00055974 Ry

     total charge of GC-SCF    =      -1.67946882 e
     the Fermi energy          =      -2.33551602 eV
                        (error :       0.93151602 eV)
     electrostatic embedding   =      -0.52080379 Ry
     cavitation energy         =       0.02127563 Ry
     electrolyte free energy   =      -0.00340738 Ry
     correction to one-el term =      41.40765464 Ry

     iteration # 10     ecut=    80.00 Ry     beta= 0.20
     Davidson diagonalization with overlap

---- Real-time Memory Report at c_bands before calling an iterative solver
           367 MiB given to the printing process from OS
             0 MiB allocation reported by mallinfo(arena+hblkhd)
        476681 MiB available memory on the node where the printing process lives
------------------
     ethr =  9.07E-07,  avg # of iterations = 11.9

     negative rho (up, down):  5.630E-04 0.000E+00

     add environment contribution to local potential

     total cpu time spent up to now is      238.4 secs

     total energy              =    -300.79712110 Ry
     estimated scf accuracy    <       0.00140573 Ry

     total charge of GC-SCF    =      -1.80026832 e
     the Fermi energy          =      -2.40124442 eV
                        (error :       0.99724442 eV)
     electrostatic embedding   =      -0.75182273 Ry
     cavitation energy         =       0.02127563 Ry
     electrolyte free energy   =      -0.00500082 Ry
     correction to one-el term =      50.03033756 Ry

     iteration # 11     ecut=    80.00 Ry     beta= 0.20
     Davidson diagonalization with overlap

---- Real-time Memory Report at c_bands before calling an iterative solver
           367 MiB given to the printing process from OS
             0 MiB allocation reported by mallinfo(arena+hblkhd)
        476675 MiB available memory on the node where the printing process lives
------------------
     ethr =  9.07E-07,  avg # of iterations =  9.8

     negative rho (up, down):  4.506E-04 0.000E+00

     add environment contribution to local potential

     total cpu time spent up to now is      252.3 secs

     total energy              =    -300.75994267 Ry
     estimated scf accuracy    <       0.00122866 Ry

     total charge of GC-SCF    =      -2.13468389 e
     the Fermi energy          =      -2.37241925 eV
                        (error :       0.96841925 eV)
     electrostatic embedding   =      -0.84999368 Ry
     cavitation energy         =       0.02127563 Ry
     electrolyte free energy   =      -0.00578453 Ry
     correction to one-el term =      53.42406519 Ry

     iteration # 12     ecut=    80.00 Ry     beta= 0.20
     Davidson diagonalization with overlap

---- Real-time Memory Report at c_bands before calling an iterative solver
           367 MiB given to the printing process from OS
             0 MiB allocation reported by mallinfo(arena+hblkhd)
        476677 MiB available memory on the node where the printing process lives
------------------
     ethr =  9.07E-07,  avg # of iterations = 13.4

     negative rho (up, down):  3.970E-04 0.000E+00

     add environment contribution to local potential

     total cpu time spent up to now is      268.5 secs

     total energy              =    -300.78291753 Ry
     estimated scf accuracy    <       0.00039245 Ry

     total charge of GC-SCF    =      -2.69102364 e
     the Fermi energy          =      -2.25599762 eV
                        (error :       0.85199762 eV)
     electrostatic embedding   =      -1.14215762 Ry
     cavitation energy         =       0.02127563 Ry
     electrolyte free energy   =      -0.00848301 Ry
     correction to one-el term =      62.48195922 Ry

     iteration # 13     ecut=    80.00 Ry     beta= 0.20
     Davidson diagonalization with overlap

---- Real-time Memory Report at c_bands before calling an iterative solver
           367 MiB given to the printing process from OS
             0 MiB allocation reported by mallinfo(arena+hblkhd)
        476643 MiB available memory on the node where the printing process lives
------------------
     ethr =  6.26E-07,  avg # of iterations = 16.2

     negative rho (up, down):  3.618E-04 0.000E+00

     add environment contribution to local potential

     total cpu time spent up to now is      286.4 secs

     total energy              =    -300.85325963 Ry
     estimated scf accuracy    <       0.00030580 Ry

     total charge of GC-SCF    =      -3.45010471 e
     the Fermi energy          =      -2.14072554 eV
                        (error :       0.73672554 eV)
     electrostatic embedding   =      -1.74042668 Ry
     cavitation energy         =       0.02127563 Ry
     electrolyte free energy   =      -0.01545946 Ry
     correction to one-el term =      77.78462865 Ry

     iteration # 14     ecut=    80.00 Ry     beta= 0.20
     Davidson diagonalization with overlap

---- Real-time Memory Report at c_bands before calling an iterative solver
           367 MiB given to the printing process from OS
             0 MiB allocation reported by mallinfo(arena+hblkhd)
        476666 MiB available memory on the node where the printing process lives
------------------
     ethr =  4.82E-07,  avg # of iterations = 22.9

     negative rho (up, down):  3.429E-04 0.000E+00

     add environment contribution to local potential

     total cpu time spent up to now is      309.5 secs

     total energy              =    -300.89517599 Ry
     estimated scf accuracy    <       0.00042411 Ry

     total charge of GC-SCF    =      -3.55077061 e
     the Fermi energy          =      -1.93394080 eV
                        (error :       0.52994080 eV)
     electrostatic embedding   =      -2.74780730 Ry
     cavitation energy         =       0.02127563 Ry
     electrolyte free energy   =      -0.03127144 Ry
     correction to one-el term =      98.52001993 Ry

     iteration # 15     ecut=    80.00 Ry     beta= 0.20
     Davidson diagonalization with overlap

---- Real-time Memory Report at c_bands before calling an iterative solver
           367 MiB given to the printing process from OS
             0 MiB allocation reported by mallinfo(arena+hblkhd)
        476672 MiB available memory on the node where the printing process lives
------------------
     ethr =  4.82E-07,  avg # of iterations =  6.3

     negative rho (up, down):  3.235E-04 0.000E+00

     add environment contribution to local potential

     total cpu time spent up to now is      323.7 secs

     total energy              =    -300.92898918 Ry
     estimated scf accuracy    <       0.00022685 Ry

     total charge of GC-SCF    =      -4.33954653 e
     the Fermi energy          =      -1.93849739 eV
                        (error :       0.53449739 eV)
     electrostatic embedding   =      -2.89849523 Ry
     cavitation energy         =       0.02127563 Ry
     electrolyte free energy   =      -0.03387056 Ry
     correction to one-el term =     101.22781291 Ry

     iteration # 16     ecut=    80.00 Ry     beta= 0.20
     Davidson diagonalization with overlap

---- Real-time Memory Report at c_bands before calling an iterative solver
           367 MiB given to the printing process from OS
             0 MiB allocation reported by mallinfo(arena+hblkhd)
        476674 MiB available memory on the node where the printing process lives
------------------
     ethr =  3.53E-07,  avg # of iterations = 24.7

     negative rho (up, down):  3.089E-04 0.000E+00

     add environment contribution to local potential

     total cpu time spent up to now is      347.4 secs

     total energy              =    -301.11510562 Ry
     estimated scf accuracy    <       0.00062896 Ry

     total charge of GC-SCF    =      -3.50716403 e
     the Fermi energy          =      -1.67109088 eV
                        (error :       0.26709088 eV)
     electrostatic embedding   =      -4.22239369 Ry
     cavitation energy         =       0.02127563 Ry
     electrolyte free energy   =      -0.06146400 Ry
     correction to one-el term =     123.30455282 Ry

     iteration # 17     ecut=    80.00 Ry     beta= 0.20
     Davidson diagonalization with overlap

---- Real-time Memory Report at c_bands before calling an iterative solver
           367 MiB given to the printing process from OS
             0 MiB allocation reported by mallinfo(arena+hblkhd)
        476675 MiB available memory on the node where the printing process lives
------------------
     ethr =  3.53E-07,  avg # of iterations = 18.8

     negative rho (up, down):  3.204E-04 0.000E+00

     add environment contribution to local potential

     total cpu time spent up to now is      368.0 secs

     total energy              =    -300.93458684 Ry
     estimated scf accuracy    <       0.00033792 Ry

     total charge of GC-SCF    =      -3.34337913 e
     the Fermi energy          =      -1.94240014 eV
                        (error :       0.53840014 eV)
     electrostatic embedding   =      -2.80691871 Ry
     cavitation energy         =       0.02127563 Ry
     electrolyte free energy   =      -0.03257320 Ry
     correction to one-el term =      99.35057251 Ry

     iteration # 18     ecut=    80.00 Ry     beta= 0.20
     Davidson diagonalization with overlap

---- Real-time Memory Report at c_bands before calling an iterative solver
           367 MiB given to the printing process from OS
             0 MiB allocation reported by mallinfo(arena+hblkhd)
        476681 MiB available memory on the node where the printing process lives
------------------
     ethr =  3.53E-07,  avg # of iterations = 12.9

     negative rho (up, down):  2.865E-04 0.000E+00

     add environment contribution to local potential

     total cpu time spent up to now is      385.7 secs

     total energy              =    -300.92731450 Ry
     estimated scf accuracy    <       0.00070078 Ry

     total charge of GC-SCF    =      -4.16747278 e
     the Fermi energy          =      -1.92341799 eV
                        (error :       0.51941799 eV)
     electrostatic embedding   =      -2.60747293 Ry
     cavitation energy         =       0.02127563 Ry
     electrolyte free energy   =      -0.02884307 Ry
     correction to one-el term =      96.10818573 Ry

     iteration # 19     ecut=    80.00 Ry     beta= 0.20
     Davidson diagonalization with overlap

---- Real-time Memory Report at c_bands before calling an iterative solver
           367 MiB given to the printing process from OS
             0 MiB allocation reported by mallinfo(arena+hblkhd)
        476678 MiB available memory on the node where the printing process lives
------------------
     ethr =  3.53E-07,  avg # of iterations = 18.5

     negative rho (up, down):  2.788E-04 0.000E+00

     add environment contribution to local potential

     total cpu time spent up to now is      406.6 secs

     total energy              =    -300.92271841 Ry
     estimated scf accuracy    <       0.00018321 Ry

     total charge of GC-SCF    =      -4.26282593 e
     the Fermi energy          =      -1.79431595 eV
                        (error :       0.39031595 eV)
     electrostatic embedding   =      -3.88714289 Ry
     cavitation energy         =       0.02127563 Ry
     electrolyte free energy   =      -0.05408003 Ry
     correction to one-el term =     117.72341280 Ry

     iteration # 20     ecut=    80.00 Ry     beta= 0.20
     Davidson diagonalization with overlap

---- Real-time Memory Report at c_bands before calling an iterative solver
           367 MiB given to the printing process from OS
             0 MiB allocation reported by mallinfo(arena+hblkhd)
        476655 MiB available memory on the node where the printing process lives
------------------
     ethr =  2.85E-07,  avg # of iterations =  8.1

     negative rho (up, down):  2.707E-04 0.000E+00

     add environment contribution to local potential

     total cpu time spent up to now is      422.2 secs

     total energy              =    -300.92470902 Ry
     estimated scf accuracy    <       0.00022698 Ry

     total charge of GC-SCF    =      -4.57036147 e
     the Fermi energy          =      -1.75964130 eV
                        (error :       0.35564130 eV)
     electrostatic embedding   =      -4.06113870 Ry
     cavitation energy         =       0.02127563 Ry
     electrolyte free energy   =      -0.05790365 Ry
     correction to one-el term =     120.49389553 Ry

     iteration # 21     ecut=    80.00 Ry     beta= 0.20
     Davidson diagonalization with overlap

---- Real-time Memory Report at c_bands before calling an iterative solver
           367 MiB given to the printing process from OS
             0 MiB allocation reported by mallinfo(arena+hblkhd)
        476648 MiB available memory on the node where the printing process lives
------------------
     ethr =  2.85E-07,  avg # of iterations = 20.6

     negative rho (up, down):  2.692E-04 0.000E+00

     add environment contribution to local potential

     total cpu time spent up to now is      444.5 secs

     total energy              =    -300.97559059 Ry
     estimated scf accuracy    <       0.00009011 Ry

     total charge of GC-SCF    =      -4.28697205 e
     the Fermi energy          =      -1.70884161 eV
                        (error :       0.30484161 eV)
     electrostatic embedding   =      -4.56311436 Ry
     cavitation energy         =       0.02127563 Ry
     electrolyte free energy   =      -0.07087403 Ry
     correction to one-el term =     127.47076073 Ry

     iteration # 22     ecut=    80.00 Ry     beta= 0.20
     Davidson diagonalization with overlap

---- Real-time Memory Report at c_bands before calling an iterative solver
           367 MiB given to the printing process from OS
             0 MiB allocation reported by mallinfo(arena+hblkhd)
        476646 MiB available memory on the node where the printing process lives
------------------
     ethr =  1.40E-07,  avg # of iterations = 11.4

     negative rho (up, down):  2.580E-04 0.000E+00

     add environment contribution to local potential

     total cpu time spent up to now is      462.2 secs

     total energy              =    -300.92440556 Ry
     estimated scf accuracy    <       0.00015610 Ry

     total charge of GC-SCF    =      -4.58510216 e
     the Fermi energy          =      -1.77090923 eV
                        (error :       0.36690923 eV)
     electrostatic embedding   =      -4.03429993 Ry
     cavitation energy         =       0.02127563 Ry
     electrolyte free energy   =      -0.05852989 Ry
     correction to one-el term =     119.56196964 Ry

     iteration # 23     ecut=    80.00 Ry     beta= 0.20
     Davidson diagonalization with overlap

---- Real-time Memory Report at c_bands before calling an iterative solver
           367 MiB given to the printing process from OS
             0 MiB allocation reported by mallinfo(arena+hblkhd)
        476653 MiB available memory on the node where the printing process lives
------------------
     ethr =  1.40E-07,  avg # of iterations = 13.3

     negative rho (up, down):  2.514E-04 0.000E+00

     add environment contribution to local potential

     total cpu time spent up to now is      481.1 secs

     total energy              =    -300.93385711 Ry
     estimated scf accuracy    <       0.00011161 Ry

     total charge of GC-SCF    =      -4.77478212 e
     the Fermi energy          =      -1.69177845 eV
                        (error :       0.28777845 eV)
     electrostatic embedding   =      -4.55411063 Ry
     cavitation energy         =       0.02127563 Ry
     electrolyte free energy   =      -0.07148582 Ry
     correction to one-el term =     127.16764280 Ry

     iteration # 24     ecut=    80.00 Ry     beta= 0.20
     Davidson diagonalization with overlap

---- Real-time Memory Report at c_bands before calling an iterative solver
           367 MiB given to the printing process from OS
             0 MiB allocation reported by mallinfo(arena+hblkhd)
        476651 MiB available memory on the node where the printing process lives
------------------
     ethr =  1.40E-07,  avg # of iterations =  9.6

     negative rho (up, down):  2.455E-04 0.000E+00

     add environment contribution to local potential

     total cpu time spent up to now is      498.4 secs

     total energy              =    -300.94464845 Ry
     estimated scf accuracy    <       0.00006417 Ry

     total charge of GC-SCF    =      -5.09871898 e
     the Fermi energy          =      -1.64540736 eV
                        (error :       0.24140736 eV)
     electrostatic embedding   =      -4.90068887 Ry
     cavitation energy         =       0.02127563 Ry
     electrolyte free energy   =      -0.08072427 Ry
     correction to one-el term =     131.96957925 Ry

     iteration # 25     ecut=    80.00 Ry     beta= 0.20
     Davidson diagonalization with overlap

---- Real-time Memory Report at c_bands before calling an iterative solver
           367 MiB given to the printing process from OS
             0 MiB allocation reported by mallinfo(arena+hblkhd)
        476652 MiB available memory on the node where the printing process lives
------------------
     ethr =  9.86E-08,  avg # of iterations = 18.7

     negative rho (up, down):  2.407E-04 0.000E+00

     add environment contribution to local potential

     total cpu time spent up to now is      520.2 secs

     total energy              =    -300.94853882 Ry
     estimated scf accuracy    <       0.00003554 Ry

     total charge of GC-SCF    =      -5.31918551 e
     the Fermi energy          =      -1.54967519 eV
                        (error :       0.14567519 eV)
     electrostatic embedding   =      -5.51550280 Ry
     cavitation energy         =       0.02127563 Ry
     electrolyte free energy   =      -0.09870751 Ry
     correction to one-el term =     140.16662447 Ry

     iteration # 26     ecut=    80.00 Ry     beta= 0.20
     Davidson diagonalization with overlap

---- Real-time Memory Report at c_bands before calling an iterative solver
           367 MiB given to the printing process from OS
             0 MiB allocation reported by mallinfo(arena+hblkhd)
        476663 MiB available memory on the node where the printing process lives
------------------
     ethr =  5.44E-08,  avg # of iterations = 16.9

     negative rho (up, down):  2.385E-04 0.000E+00

     add environment contribution to local potential

     total cpu time spent up to now is      540.9 secs

     total energy              =    -300.95092421 Ry
     estimated scf accuracy    <       0.00002100 Ry

     total charge of GC-SCF    =      -5.22634592 e
     the Fermi energy          =      -1.48555308 eV
                        (error :       0.08155308 eV)
     electrostatic embedding   =      -5.95677558 Ry
     cavitation energy         =       0.02127563 Ry
     electrolyte free energy   =      -0.11283536 Ry
     correction to one-el term =     145.77072607 Ry

     iteration # 27     ecut=    80.00 Ry     beta= 0.20
     Davidson diagonalization with overlap

---- Real-time Memory Report at c_bands before calling an iterative solver
           367 MiB given to the printing process from OS
             0 MiB allocation reported by mallinfo(arena+hblkhd)
        476655 MiB available memory on the node where the printing process lives
------------------
     ethr =  3.22E-08,  avg # of iterations = 10.0

     negative rho (up, down):  2.330E-04 0.000E+00

     add environment contribution to local potential

     total cpu time spent up to now is      559.2 secs

     total energy              =    -300.94949179 Ry
     estimated scf accuracy    <       0.00002000 Ry

     total charge of GC-SCF    =      -5.41486179 e
     the Fermi energy          =      -1.51372168 eV
                        (error :       0.10972168 eV)
     electrostatic embedding   =      -5.76720971 Ry
     cavitation energy         =       0.02127563 Ry
     electrolyte free energy   =      -0.10665442 Ry
     correction to one-el term =     143.38593252 Ry

     iteration # 28     ecut=    80.00 Ry     beta= 0.20
     Davidson diagonalization with overlap

---- Real-time Memory Report at c_bands before calling an iterative solver
           367 MiB given to the printing process from OS
             0 MiB allocation reported by mallinfo(arena+hblkhd)
        476649 MiB available memory on the node where the printing process lives
------------------
     ethr =  3.06E-08,  avg # of iterations = 16.8

     negative rho (up, down):  2.299E-04 0.000E+00

     add environment contribution to local potential

     total cpu time spent up to now is      580.7 secs

     total energy              =    -300.94800990 Ry
     estimated scf accuracy    <       0.00001191 Ry

     total charge of GC-SCF    =      -5.45871951 e
     the Fermi energy          =      -1.45543360 eV
                        (error :       0.05143360 eV)
     electrostatic embedding   =      -6.14430138 Ry
     cavitation energy         =       0.02127563 Ry
     electrolyte free energy   =      -0.11957539 Ry
     correction to one-el term =     148.06401151 Ry

     iteration # 29     ecut=    80.00 Ry     beta= 0.20
     Davidson diagonalization with overlap

---- Real-time Memory Report at c_bands before calling an iterative solver
           367 MiB given to the printing process from OS
             0 MiB allocation reported by mallinfo(arena+hblkhd)
        476587 MiB available memory on the node where the printing process lives
------------------
     ethr =  1.82E-08,  avg # of iterations = 13.5

     negative rho (up, down):  2.268E-04 0.000E+00

     add environment contribution to local potential

     total cpu time spent up to now is      601.0 secs

     total energy              =    -300.94900085 Ry
     estimated scf accuracy    <       0.00000630 Ry

     total charge of GC-SCF    =      -5.55122869 e
     the Fermi energy          =      -1.44854573 eV
                        (error :       0.04454573 eV)
     electrostatic embedding   =      -6.21721286 Ry
     cavitation energy         =       0.02127563 Ry
     electrolyte free energy   =      -0.12276076 Ry
     correction to one-el term =     148.80470233 Ry

     iteration # 30     ecut=    80.00 Ry     beta= 0.20
     Davidson diagonalization with overlap

---- Real-time Memory Report at c_bands before calling an iterative solver
           367 MiB given to the printing process from OS
             0 MiB allocation reported by mallinfo(arena+hblkhd)
        476615 MiB available memory on the node where the printing process lives
------------------
     ethr =  9.61E-09,  avg # of iterations = 15.6

     negative rho (up, down):  2.259E-04 0.000E+00

     add environment contribution to local potential

     total cpu time spent up to now is      621.7 secs

     total energy              =    -300.94837681 Ry
     estimated scf accuracy    <       0.00000460 Ry

     total charge of GC-SCF    =      -5.55062310 e
     the Fermi energy          =      -1.41745628 eV
                        (error :       0.01345628 eV)
     electrostatic embedding   =      -6.39571722 Ry
     cavitation energy         =       0.02127563 Ry
     electrolyte free energy   =      -0.13004552 Ry
     correction to one-el term =     150.90281474 Ry

     iteration # 31     ecut=    80.00 Ry     beta= 0.20
     Davidson diagonalization with overlap

---- Real-time Memory Report at c_bands before calling an iterative solver
           367 MiB given to the printing process from OS
             0 MiB allocation reported by mallinfo(arena+hblkhd)
        476616 MiB available memory on the node where the printing process lives
------------------
     ethr =  7.03E-09,  avg # of iterations =  3.2

     negative rho (up, down):  2.244E-04 0.000E+00

     add environment contribution to local potential

     total cpu time spent up to now is      636.1 secs

     total energy              =    -300.94840778 Ry
     estimated scf accuracy    <       0.00000442 Ry

     total charge of GC-SCF    =      -5.54289071 e
     the Fermi energy          =      -1.41817857 eV
                        (error :       0.01417857 eV)
     electrostatic embedding   =      -6.39284614 Ry
     cavitation energy         =       0.02127563 Ry
     electrolyte free energy   =      -0.12998755 Ry
     correction to one-el term =     150.84974137 Ry

     iteration # 32     ecut=    80.00 Ry     beta= 0.20
     Davidson diagonalization with overlap

---- Real-time Memory Report at c_bands before calling an iterative solver
           367 MiB given to the printing process from OS
             0 MiB allocation reported by mallinfo(arena+hblkhd)
        476621 MiB available memory on the node where the printing process lives
------------------
     ethr =  6.74E-09,  avg # of iterations =  8.9

     negative rho (up, down):  2.159E-04 0.000E+00

     add environment contribution to local potential

     total cpu time spent up to now is      653.3 secs

     total energy              =    -300.94862187 Ry
     estimated scf accuracy    <       0.00000359 Ry

     total charge of GC-SCF    =      -5.59411182 e
     the Fermi energy          =      -1.42232330 eV
                        (error :       0.01832330 eV)
     electrostatic embedding   =      -6.37156496 Ry
     cavitation energy         =       0.02127563 Ry
     electrolyte free energy   =      -0.12932888 Ry
     correction to one-el term =     150.55218592 Ry

     iteration # 33     ecut=    80.00 Ry     beta= 0.20
     Davidson diagonalization with overlap

---- Real-time Memory Report at c_bands before calling an iterative solver
           367 MiB given to the printing process from OS
             0 MiB allocation reported by mallinfo(arena+hblkhd)
        476628 MiB available memory on the node where the printing process lives
------------------
     ethr =  5.48E-09,  avg # of iterations = 23.2

     negative rho (up, down):  2.137E-04 0.000E+00

     add environment contribution to local potential

     total cpu time spent up to now is      677.6 secs

     total energy              =    -300.94844001 Ry
     estimated scf accuracy    <       0.00000129 Ry

     total charge of GC-SCF    =      -5.59403480 e
     the Fermi energy          =      -1.40997062 eV
                        (error :       0.00597062 eV)
     electrostatic embedding   =      -6.44972807 Ry
     cavitation energy         =       0.02127563 Ry
     electrolyte free energy   =      -0.13356535 Ry
     correction to one-el term =     151.28657508 Ry

     iteration # 34     ecut=    80.00 Ry     beta= 0.20
     Davidson diagonalization with overlap

---- Real-time Memory Report at c_bands before calling an iterative solver
           367 MiB given to the printing process from OS
             0 MiB allocation reported by mallinfo(arena+hblkhd)
        476633 MiB available memory on the node where the printing process lives
------------------
     ethr =  1.96E-09,  avg # of iterations = 13.1

     negative rho (up, down):  2.113E-04 0.000E+00

     add environment contribution to local potential

     total cpu time spent up to now is      698.2 secs

     total energy              =    -300.94881008 Ry
     estimated scf accuracy    <       0.00000087 Ry

     total charge of GC-SCF    =      -5.64355339 e
     the Fermi energy          =      -1.41166593 eV
                        (error :       0.00766593 eV)
     electrostatic embedding   =      -6.44148682 Ry
     cavitation energy         =       0.02127563 Ry
     electrolyte free energy   =      -0.13352946 Ry
     correction to one-el term =     151.12820059 Ry

     iteration # 35     ecut=    80.00 Ry     beta= 0.20
     Davidson diagonalization with overlap

---- Real-time Memory Report at c_bands before calling an iterative solver
           367 MiB given to the printing process from OS
             0 MiB allocation reported by mallinfo(arena+hblkhd)
        476623 MiB available memory on the node where the printing process lives
------------------
     ethr =  1.32E-09,  avg # of iterations = 19.9

     negative rho (up, down):  2.097E-04 0.000E+00

     add environment contribution to local potential

     total cpu time spent up to now is      721.8 secs

     total energy              =    -300.94841297 Ry
     estimated scf accuracy    <       0.00000080 Ry

     total charge of GC-SCF    =      -5.61563097 e
     the Fermi energy          =      -1.39267851 eV
                        (error :       0.01132149 eV)
     electrostatic embedding   =      -6.54236383 Ry
     cavitation energy         =       0.02127563 Ry
     electrolyte free energy   =      -0.13801553 Ry
     correction to one-el term =     152.32514902 Ry

     iteration # 36     ecut=    80.00 Ry     beta= 0.20
     Davidson diagonalization with overlap

---- Real-time Memory Report at c_bands before calling an iterative solver
           367 MiB given to the printing process from OS
             0 MiB allocation reported by mallinfo(arena+hblkhd)
        476618 MiB available memory on the node where the printing process lives
------------------
     ethr =  1.23E-09,  avg # of iterations = 17.7

     negative rho (up, down):  2.095E-04 0.000E+00

     add environment contribution to local potential

     total cpu time spent up to now is      743.8 secs

     total energy              =    -300.94844025 Ry
     estimated scf accuracy    <       0.00000021 Ry

     total charge of GC-SCF    =      -5.61983820 e
     the Fermi energy          =      -1.40616854 eV
                        (error :       0.00216854 eV)
     electrostatic embedding   =      -6.47390945 Ry
     cavitation energy         =       0.02127563 Ry
     electrolyte free energy   =      -0.13540144 Ry
     correction to one-el term =     151.42573762 Ry

     iteration # 37     ecut=    80.00 Ry     beta= 0.20
     Davidson diagonalization with overlap

---- Real-time Memory Report at c_bands before calling an iterative solver
           367 MiB given to the printing process from OS
             0 MiB allocation reported by mallinfo(arena+hblkhd)
        476621 MiB available memory on the node where the printing process lives
------------------
     ethr =  3.17E-10,  avg # of iterations =  9.4

     negative rho (up, down):  2.091E-04 0.000E+00

     total cpu time spent up to now is      752.0 secs

     End of self-consistent calculation

          k = 0.0000 0.0000 0.0000 (203379 PWs)   bands (ev):

   -48.3380 -48.3366 -48.3364 -48.3350 -48.1913 -48.1909 -48.1886 -48.1883
   -48.1832 -48.1829 -48.1828 -48.1826 -47.9478 -47.9419 -47.9413 -47.9393
   -47.9233 -47.9180 -47.9168 -47.9132  -4.7243  -4.1125  -3.3697  -2.8003
    -2.7731  -2.5221  -2.2853  -2.2852  -2.0758  -2.0401  -1.6401  -1.6400
    -1.4065  -1.1480  -1.0795  -0.8665  -0.8661  -0.7747  -0.7744  -0.6345
    -0.4295  -0.4295  -0.2290  -0.1416  -0.0331

     occupation numbers 
     1.0000   1.0000   1.0000   1.0000   1.0000   1.0000   1.0000   1.0000
     1.0000   1.0000   1.0000   1.0000   1.0000   1.0000   1.0000   1.0000
     1.0000   1.0000   1.0000   1.0000   1.0000   1.0000   1.0000   1.0000
     1.0000   1.0000   1.0000   1.0000   1.0000   1.0000   1.0657   1.0658
     0.4126   0.0006   0.0000   0.0000   0.0000   0.0000   0.0000   0.0000
     0.0000   0.0000   0.0000   0.0000   0.0000

          k = 0.0000 0.0994 0.0000 (203275 PWs)   bands (ev):

   -48.3380 -48.3366 -48.3364 -48.3350 -48.1913 -48.1909 -48.1886 -48.1883
   -48.1832 -48.1829 -48.1828 -48.1826 -47.9478 -47.9419 -47.9413 -47.9394
   -47.9232 -47.9180 -47.9168 -47.9132  -4.7002  -4.0868  -3.3420  -3.1870
    -2.5024  -2.4716  -2.3430  -2.2638  -2.2637  -1.6654  -1.6243  -1.6242
    -1.5343  -1.3704  -1.0139  -1.0134  -0.7795  -0.7788  -0.7262  -0.6480
    -0.4007  -0.3473  -0.3469  -0.0324   0.0418

     occupation numbers 
     1.0000   1.0000   1.0000   1.0000   1.0000   1.0000   1.0000   1.0000
     1.0000   1.0000   1.0000   1.0000   1.0000   1.0000   1.0000   1.0000
     1.0000   1.0000   1.0000   1.0000   1.0000   1.0000   1.0000   1.0000
     1.0000   1.0000   1.0000   1.0000   1.0000   1.0484   1.0751   1.0752
     1.0128   0.2488   0.0000   0.0000   0.0000   0.0000   0.0000   0.0000
     0.0000   0.0000   0.0000   0.0000   0.0000

          k = 0.0000 0.1988 0.0000 (203225 PWs)   bands (ev):

   -48.3380 -48.3366 -48.3364 -48.3350 -48.1913 -48.1909 -48.1886 -48.1883
   -48.1832 -48.1829 -48.1828 -48.1826 -47.9476 -47.9419 -47.9413 -47.9397
   -47.9231 -47.9180 -47.9168 -47.9132  -4.6282  -4.0105  -3.5428  -3.2597
    -2.8491  -2.4177  -2.1995  -2.1995  -1.9988  -1.8799  -1.5810  -1.5809
    -1.4217  -1.2625  -1.2621  -1.1313  -0.9263  -0.8273  -0.8265  -0.4539
    -0.2493  -0.2486  -0.1039   0.0002   0.0955

     occupation numbers 
     1.0000   1.0000   1.0000   1.0000   1.0000   1.0000   1.0000   1.0000
     1.0000   1.0000   1.0000   1.0000   1.0000   1.0000   1.0000   1.0000
     1.0000   1.0000   1.0000   1.0000   1.0000   1.0000   1.0000   1.0000
     1.0000   1.0000   1.0000   1.0000   1.0000   1.0001   1.0798   1.0798
     0.4925   0.0255   0.0253   0.0003   0.0000   0.0000   0.0000   0.0000
     0.0000   0.0000   0.0000   0.0000   0.0000

          k = 0.0000 0.2981 0.0000 (203169 PWs)   bands (ev):

   -48.3380 -48.3366 -48.3364 -48.3350 -48.1913 -48.1910 -48.1886 -48.1883
   -48.1832 -48.1829 -48.1828 -48.1826 -47.9474 -47.9419 -47.9413 -47.9399
   -47.9230 -47.9180 -47.9168 -47.9132  -4.5083  -3.9055  -3.8300  -3.1999
    -3.0979  -2.3852  -2.2523  -2.0935  -2.0934  -1.6119  -1.5607  -1.5606
    -1.4667  -1.4664  -1.4075  -0.9995  -0.9095  -0.9087  -0.6745  -0.3305
    -0.2318  -0.1783  -0.1776   0.2256   0.2729

     occupation numbers 
     1.0000   1.0000   1.0000   1.0000   1.0000   1.0000   1.0000   1.0000
     1.0000   1.0000   1.0000   1.0000   1.0000   1.0000   1.0000   1.0000
     1.0000   1.0000   1.0000   1.0000   1.0000   1.0000   1.0000   1.0000
     1.0000   1.0000   1.0000   1.0000   1.0000   1.0806   1.0625   1.0624
     0.7385   0.7372   0.4179   0.0000   0.0000   0.0000   0.0000   0.0000
     0.0000   0.0000   0.0000   0.0000   0.0000

          k = 0.0000 0.3975 0.0000 (203234 PWs)   bands (ev):

   -48.3380 -48.3366 -48.3364 -48.3350 -48.1914 -48.1910 -48.1886 -48.1883
   -48.1832 -48.1829 -48.1828 -48.1826 -47.9473 -47.9419 -47.9413 -47.9401
   -47.9229 -47.9180 -47.9168 -47.9133  -4.3415  -4.1229  -3.6966  -3.4641
    -2.9178  -2.6696  -2.0887  -1.9513  -1.9511  -1.8561  -1.7457  -1.7456
    -1.4423  -1.4421  -1.0542  -0.9828  -0.9821  -0.9176  -0.4558  -0.4228
    -0.1342  -0.1245  -0.1238   0.1653   0.4095

     occupation numbers 
     1.0000   1.0000   1.0000   1.0000   1.0000   1.0000   1.0000   1.0000
     1.0000   1.0000   1.0000   1.0000   1.0000   1.0000   1.0000   1.0000
     1.0000   1.0000   1.0000   1.0000   1.0000   1.0000   1.0000   1.0000
     1.0000   1.0000   1.0000   1.0000   1.0000   1.0003   1.0101   1.0101
     0.6058   0.6049   0.0000   0.0000   0.0000   0.0000   0.0000   0.0000
     0.0000   0.0000   0.0000   0.0000   0.0000

          k = 0.1000 0.0000 0.0000 (203333 PWs)   bands (ev):

   -48.3380 -48.3366 -48.3365 -48.3351 -48.1913 -48.1909 -48.1887 -48.1883
   -48.1832 -48.1829 -48.1828 -48.1826 -47.9477 -47.9424 -47.9409 -47.9393
   -47.9232 -47.9184 -47.9164 -47.9132  -4.6999  -4.0865  -3.3414  -2.7755
    -2.7489  -2.7484  -2.4932  -2.0738  -2.0498  -2.0150  -1.7773  -1.3775
    -1.3470  -1.1196  -1.0629  -1.0523  -1.0213  -0.9486  -0.6323  -0.6039
    -0.4359  -0.3946  -0.1988  -0.1125  -0.0014

     occupation numbers 
     1.0000   1.0000   1.0000   1.0000   1.0000   1.0000   1.0000   1.0000
     1.0000   1.0000   1.0000   1.0000   1.0000   1.0000   1.0000   1.0000
     1.0000   1.0000   1.0000   1.0000   1.0000   1.0000   1.0000   1.0000
     1.0000   1.0000   1.0000   1.0000   1.0000   1.0000   1.0043   0.2776
     0.1675   0.0002   0.0000   0.0000   0.0000   0.0000   0.0000   0.0000
     0.0000   0.0000   0.0000   0.0000   0.0000

          k = 0.1000 0.0994 0.0000 (203258 PWs)   bands (ev):

   -48.3380 -48.3366 -48.3365 -48.3351 -48.1913 -48.1909 -48.1887 -48.1883
   -48.1832 -48.1829 -48.1828 -48.1826 -47.9477 -47.9424 -47.9409 -47.9394
   -47.9232 -47.9184 -47.9164 -47.9132  -4.6759  -4.0608  -3.3137  -3.1627
    -2.7260  -2.4740  -2.4454  -2.3183  -2.0532  -1.7576  -1.6381  -1.5080
    -1.3621  -1.3416  -1.3160  -1.0126  -0.8113  -0.6971  -0.6894  -0.6182
    -0.4464  -0.3729  -0.2925  -0.0010   0.0731

     occupation numbers 
     1.0000   1.0000   1.0000   1.0000   1.0000   1.0000   1.0000   1.0000
     1.0000   1.0000   1.0000   1.0000   1.0000   1.0000   1.0000   1.0000
     1.0000   1.0000   1.0000   1.0000   1.0000   1.0000   1.0000   1.0000
     1.0000   1.0000   1.0000   1.0000   1.0000   1.0074   1.0671   0.9294
     0.2174   0.1517   0.0914   0.0000   0.0000   0.0000   0.0000   0.0000
     0.0000   0.0000   0.0000   0.0000   0.0000

          k = 0.1000 0.1988 0.0000 (203264 PWs)   bands (ev):

   -48.3380 -48.3366 -48.3365 -48.3351 -48.1913 -48.1909 -48.1887 -48.1883
   -48.1832 -48.1829 -48.1828 -48.1826 -47.9475 -47.9423 -47.9409 -47.9397
   -47.9230 -47.9184 -47.9164 -47.9133  -4.6039  -3.9846  -3.5185  -3.2315
    -2.8234  -2.6587  -2.3888  -1.9936  -1.9707  -1.8544  -1.6991  -1.6547
    -1.3923  -1.2943  -1.1390  -1.1052  -0.8983  -0.8636  -0.7328  -0.4235
    -0.3927  -0.0952  -0.0750   0.0289   0.1040

     occupation numbers 
     1.0000   1.0000   1.0000   1.0000   1.0000   1.0000   1.0000   1.0000
     1.0000   1.0000   1.0000   1.0000   1.0000   1.0000   1.0000   1.0000
     1.0000   1.0000   1.0000   1.0000   1.0000   1.0000   1.0000   1.0000
     1.0000   1.0000   1.0000   1.0000   1.0000   1.0003   1.0278   1.0558
     0.3429   0.0563   0.0004   0.0001   0.0000   0.0000   0.0000   0.0000
     0.0000   0.0000   0.0000   0.0000   0.0000

          k = 0.1000 0.2981 0.0000 (203250 PWs)   bands (ev):

   -48.3380 -48.3366 -48.3365 -48.3351 -48.1913 -48.1909 -48.1887 -48.1883
   -48.1832 -48.1829 -48.1828 -48.1826 -47.9474 -47.9423 -47.9409 -47.9399
   -47.9229 -47.9184 -47.9164 -47.9133  -4.4840  -3.8805  -3.8048  -3.1742
    -3.0696  -2.5473  -2.3570  -2.2232  -1.9655  -1.8614  -1.6052  -1.5824
    -1.3805  -1.3510  -1.2263  -1.0369  -0.9721  -0.6955  -0.6474  -0.3986
    -0.3000  -0.2037   0.0190   0.2067   0.2569

     occupation numbers 
     1.0000   1.0000   1.0000   1.0000   1.0000   1.0000   1.0000   1.0000
     1.0000   1.0000   1.0000   1.0000   1.0000   1.0000   1.0000   1.0000
     1.0000   1.0000   1.0000   1.0000   1.0000   1.0000   1.0000   1.0000
     1.0000   1.0000   1.0000   1.0000   1.0000   1.0003   1.0824   1.0804
     0.2901   0.1798   0.0091   0.0000   0.0000   0.0000   0.0000   0.0000
     0.0000   0.0000   0.0000   0.0000   0.0000

          k = 0.1000 0.3975 0.0000 (203200 PWs)   bands (ev):

   -48.3380 -48.3366 -48.3365 -48.3351 -48.1913 -48.1909 -48.1887 -48.1883
   -48.1832 -48.1829 -48.1828 -48.1826 -47.9472 -47.9423 -47.9410 -47.9401
   -47.9228 -47.9184 -47.9164 -47.9133  -4.3173  -4.0987  -3.6709  -3.4383
    -2.8896  -2.6414  -2.3954  -2.1828  -2.0594  -1.8269  -1.7583  -1.5396
    -1.4640  -1.2888  -1.1135  -1.0245  -0.8902  -0.6620  -0.4315  -0.4277
    -0.3953  -0.1039   0.0083   0.1951   0.3370

     occupation numbers 
     1.0000   1.0000   1.0000   1.0000   1.0000   1.0000   1.0000   1.0000
     1.0000   1.0000   1.0000   1.0000   1.0000   1.0000   1.0000   1.0000
     1.0000   1.0000   1.0000   1.0000   1.0000   1.0000   1.0000   1.0000
     1.0000   1.0000   1.0000   1.0000   1.0000   1.0009   1.0073   1.0254
     0.7243   0.0495   0.0002   0.0000   0.0000   0.0000   0.0000   0.0000
     0.0000   0.0000   0.0000   0.0000   0.0000

          k = 0.2000 0.0000 0.0000 (203263 PWs)   bands (ev):

   -48.3379 -48.3366 -48.3364 -48.3352 -48.1911 -48.1907 -48.1889 -48.1885
   -48.1832 -48.1829 -48.1828 -48.1826 -47.9474 -47.9431 -47.9404 -47.9393
   -47.9230 -47.9191 -47.9158 -47.9133  -4.6270  -4.0085  -3.2565  -3.1638
    -2.7013  -2.6765  -2.4856  -2.4066  -1.9721  -1.9401  -1.6430  -1.3358
    -1.3251  -1.2908  -1.2439  -1.0350  -0.9712  -0.7659  -0.7397  -0.6700
    -0.5122  -0.4446  -0.1086  -0.0259   0.0937

     occupation numbers 
     1.0000   1.0000   1.0000   1.0000   1.0000   1.0000   1.0000   1.0000
     1.0000   1.0000   1.0000   1.0000   1.0000   1.0000   1.0000   1.0000
     1.0000   1.0000   1.0000   1.0000   1.0000   1.0000   1.0000   1.0000
     1.0000   1.0000   1.0000   1.0000   1.0000   1.0000   1.0638   0.1361
     0.1103   0.0520   0.0153   0.0000   0.0000   0.0000   0.0000   0.0000
     0.0000   0.0000   0.0000   0.0000   0.0000

          k = 0.2000 0.0994 0.0000 (203259 PWs)   bands (ev):

   -48.3379 -48.3366 -48.3364 -48.3352 -48.1911 -48.1907 -48.1889 -48.1885
   -48.1832 -48.1829 -48.1828 -48.1826 -47.9474 -47.9431 -47.9404 -47.9394
   -47.9229 -47.9191 -47.9158 -47.9134  -4.6030  -3.9829  -3.2289  -3.1407
    -3.0897  -2.4629  -2.3898  -2.3662  -2.2445  -1.6972  -1.6207  -1.5565
    -1.4294  -1.2552  -1.2311  -1.0483  -0.9511  -0.6898  -0.6104  -0.5448
    -0.5291  -0.3568  -0.2902   0.0932   0.0957

     occupation numbers 
     1.0000   1.0000   1.0000   1.0000   1.0000   1.0000   1.0000   1.0000
     1.0000   1.0000   1.0000   1.0000   1.0000   1.0000   1.0000   1.0000
     1.0000   1.0000   1.0000   1.0000   1.0000   1.0000   1.0000   1.0000
     1.0000   1.0000   1.0000   1.0000   1.0000   1.0288   1.0769   1.0568
     0.5343   0.0209   0.0105   0.0000   0.0000   0.0000   0.0000   0.0000
     0.0000   0.0000   0.0000   0.0000   0.0000

          k = 0.2000 0.1988 0.0000 (203186 PWs)   bands (ev):

   -48.3379 -48.3366 -48.3364 -48.3352 -48.1911 -48.1907 -48.1889 -48.1885
   -48.1832 -48.1829 -48.1828 -48.1826 -47.9472 -47.9431 -47.9405 -47.9396
   -47.9228 -47.9191 -47.9158 -47.9134  -4.5311  -3.9069  -3.4457  -3.1471
    -3.0717  -2.7464  -2.3966  -2.3022  -2.0289  -1.8868  -1.7782  -1.5607
    -1.3591  -1.3041  -1.1729  -1.0275  -0.8149  -0.6943  -0.6443  -0.5383
    -0.3325  -0.1436  -0.0070   0.0106   0.1143

     occupation numbers 
     1.0000   1.0000   1.0000   1.0000   1.0000   1.0000   1.0000   1.0000
     1.0000   1.0000   1.0000   1.0000   1.0000   1.0000   1.0000   1.0000
     1.0000   1.0000   1.0000   1.0000   1.0000   1.0000   1.0000   1.0000
     1.0000   1.0000   1.0000   1.0000   1.0000   1.0001   1.0042   1.0625
     0.2067   0.0705   0.0015   0.0000   0.0000   0.0000   0.0000   0.0000
     0.0000   0.0000   0.0000   0.0000   0.0000

          k = 0.2000 0.2981 0.0000 (203209 PWs)   bands (ev):

   -48.3379 -48.3366 -48.3364 -48.3352 -48.1911 -48.1907 -48.1889 -48.1885
   -48.1831 -48.1829 -48.1828 -48.1826 -47.9471 -47.9430 -47.9405 -47.9399
   -47.9227 -47.9191 -47.9158 -47.9134  -4.4113  -3.8058  -3.7293  -3.0974
    -2.9848  -2.9571  -2.3582  -2.2729  -2.2481  -2.1362  -1.6556  -1.4940
    -1.4348  -1.2998  -1.1148  -0.8903  -0.7783  -0.6583  -0.5669  -0.3836
    -0.2089  -0.1198  -0.0802   0.0742   0.3503

     occupation numbers 
     1.0000   1.0000   1.0000   1.0000   1.0000   1.0000   1.0000   1.0000
     1.0000   1.0000   1.0000   1.0000   1.0000   1.0000   1.0000   1.0000
     1.0000   1.0000   1.0000   1.0000   1.0000   1.0000   1.0000   1.0000
     1.0000   1.0000   1.0000   1.0000   1.0000   1.0000   1.0552   0.8719
     0.5645   0.0640   0.0002   0.0000   0.0000   0.0000   0.0000   0.0000
     0.0000   0.0000   0.0000   0.0000   0.0000

          k = 0.2000 0.3975 0.0000 (203166 PWs)   bands (ev):

   -48.3379 -48.3366 -48.3364 -48.3352 -48.1911 -48.1907 -48.1889 -48.1885
   -48.1831 -48.1829 -48.1828 -48.1826 -47.9470 -47.9430 -47.9406 -47.9401
   -47.9226 -47.9191 -47.9158 -47.9134  -4.2447  -4.0260  -3.5936  -3.3610
    -2.8050  -2.7996  -2.5839  -2.5569  -2.1218  -1.9716  -1.8821  -1.7396
    -1.3268  -1.0972  -0.9356  -0.8543  -0.8084  -0.7347  -0.3440  -0.3136
    -0.2625  -0.1234  -0.0134   0.1824   0.2541

     occupation numbers 
     1.0000   1.0000   1.0000   1.0000   1.0000   1.0000   1.0000   1.0000
     1.0000   1.0000   1.0000   1.0000   1.0000   1.0000   1.0000   1.0000
     1.0000   1.0000   1.0000   1.0000   1.0000   1.0000   1.0000   1.0000
     1.0000   1.0000   1.0000   1.0000   1.0000   1.0000   1.0001   1.0117
     0.1140   0.0001   0.0000   0.0000   0.0000   0.0000   0.0000   0.0000
     0.0000   0.0000   0.0000   0.0000   0.0000

          k = 0.3000 0.0000 0.0000 (203139 PWs)   bands (ev):

   -48.3377 -48.3368 -48.3363 -48.3354 -48.1908 -48.1904 -48.1892 -48.1888
   -48.1831 -48.1829 -48.1828 -48.1826 -47.9470 -47.9439 -47.9400 -47.9394
   -47.9226 -47.9199 -47.9152 -47.9135  -4.5054  -3.8788  -3.5302  -3.1156
    -2.8584  -2.5783  -2.5566  -2.2624  -2.0210  -1.8440  -1.8168  -1.6425
    -1.6405  -1.1517  -1.1469  -0.9477  -0.9279  -0.8960  -0.8386  -0.5932
    -0.3599  -0.2407  -0.0280   0.0399   0.1143

     occupation numbers 
     1.0000   1.0000   1.0000   1.0000   1.0000   1.0000   1.0000   1.0000
     1.0000   1.0000   1.0000   1.0000   1.0000   1.0000   1.0000   1.0000
     1.0000   1.0000   1.0000   1.0000   1.0000   1.0000   1.0000   1.0000
     1.0000   1.0000   1.0000   1.0000   1.0000   1.0005   1.0013   1.0642
     1.0655   0.0007   0.0006   0.0000   0.0000   0.0000   0.0000   0.0000
     0.0000   0.0000   0.0000   0.0000   0.0000

          k = 0.3000 0.0994 0.0000 (203174 PWs)   bands (ev):

   -48.3377 -48.3368 -48.3363 -48.3354 -48.1908 -48.1904 -48.1892 -48.1888
   -48.1831 -48.1829 -48.1827 -48.1826 -47.9469 -47.9439 -47.9401 -47.9395
   -47.9225 -47.9199 -47.9152 -47.9136  -4.4815  -3.8534  -3.5068  -3.0881
    -2.9687  -2.8345  -2.2546  -2.2305  -2.1224  -2.0291  -1.9961  -1.4227
    -1.3157  -1.2995  -1.2190  -1.1274  -1.1118  -0.6534  -0.5174  -0.4681
    -0.3816  -0.3538  -0.1550  -0.0284   0.1797

     occupation numbers 
     1.0000   1.0000   1.0000   1.0000   1.0000   1.0000   1.0000   1.0000
     1.0000   1.0000   1.0000   1.0000   1.0000   1.0000   1.0000   1.0000
     1.0000   1.0000   1.0000   1.0000   1.0000   1.0000   1.0000   1.0000
     1.0000   1.0000   1.0000   1.0000   1.0000   1.0000   1.0000   0.4982
     0.0908   0.0636   0.0073   0.0003   0.0001   0.0000   0.0000   0.0000
     0.0000   0.0000   0.0000   0.0000   0.0000

          k = 0.3000 0.1988 0.0000 (203207 PWs)   bands (ev):

   -48.3377 -48.3368 -48.3363 -48.3354 -48.1908 -48.1904 -48.1892 -48.1888
   -48.1831 -48.1829 -48.1827 -48.1826 -47.9468 -47.9439 -47.9401 -47.9396
   -47.9225 -47.9199 -47.9152 -47.9136  -4.4096  -3.7778  -3.4367  -3.3245
    -3.0069  -2.7646  -2.6187  -2.3731  -2.1580  -1.9273  -1.7481  -1.6543
    -1.6526  -1.1577  -1.0570  -0.9002  -0.8326  -0.7766  -0.6776  -0.4233
    -0.1818  -0.1550  -0.0360   0.1494   0.1790

     occupation numbers 
     1.0000   1.0000   1.0000   1.0000   1.0000   1.0000   1.0000   1.0000
     1.0000   1.0000   1.0000   1.0000   1.0000   1.0000   1.0000   1.0000
     1.0000   1.0000   1.0000   1.0000   1.0000   1.0000   1.0000   1.0000
     1.0000   1.0000   1.0000   1.0000   1.0000   1.0000   1.0095   1.0561
     1.0573   0.0009   0.0000   0.0000   0.0000   0.0000   0.0000   0.0000
     0.0000   0.0000   0.0000   0.0000   0.0000

          k = 0.3000 0.2981 0.0000 (203169 PWs)   bands (ev):

   -48.3377 -48.3368 -48.3363 -48.3354 -48.1908 -48.1904 -48.1892 -48.1889
   -48.1831 -48.1829 -48.1827 -48.1826 -47.9466 -47.9438 -47.9402 -47.9399
   -47.9224 -47.9199 -47.9152 -47.9136  -4.2900  -3.6819  -3.6033  -3.3200
    -2.9701  -2.8440  -2.7125  -2.6077  -2.1336  -1.9915  -1.9912  -1.7699
    -1.3475  -1.1672  -1.1099  -0.9311  -0.7555  -0.4357  -0.4270  -0.3800
    -0.1323  -0.0586   0.0181   0.0774   0.1757

     occupation numbers 
     1.0000   1.0000   1.0000   1.0000   1.0000   1.0000   1.0000   1.0000
     1.0000   1.0000   1.0000   1.0000   1.0000   1.0000   1.0000   1.0000
     1.0000   1.0000   1.0000   1.0000   1.0000   1.0000   1.0000   1.0000
     1.0000   1.0000   1.0000   1.0000   1.0000   1.0000   1.0000   1.0053
     0.1689   0.0013   0.0001   0.0000   0.0000   0.0000   0.0000   0.0000
     0.0000   0.0000   0.0000   0.0000   0.0000

          k = 0.3000 0.3975 0.0000 (203179 PWs)   bands (ev):

   -48.3377 -48.3368 -48.3363 -48.3354 -48.1908 -48.1904 -48.1892 -48.1889
   -48.1831 -48.1829 -48.1827 -48.1826 -47.9465 -47.9438 -47.9403 -47.9400
   -47.9223 -47.9199 -47.9152 -47.9136  -4.1238  -3.9050  -3.4655  -3.2327
    -3.1591  -2.9417  -2.6648  -2.4714  -2.4168  -2.2350  -1.8258  -1.6177
    -1.5945  -1.3512  -0.7990  -0.7887  -0.6740  -0.5146  -0.2510  -0.2066
    -0.1806  -0.0966   0.1364   0.1517   0.2871

     occupation numbers 
     1.0000   1.0000   1.0000   1.0000   1.0000   1.0000   1.0000   1.0000
     1.0000   1.0000   1.0000   1.0000   1.0000   1.0000   1.0000   1.0000
     1.0000   1.0000   1.0000   1.0000   1.0000   1.0000   1.0000   1.0000
     1.0000   1.0000   1.0000   1.0000   1.0000   1.0000   1.0009   1.0783
     1.0833   0.1804   0.0000   0.0000   0.0000   0.0000   0.0000   0.0000
     0.0000   0.0000   0.0000   0.0000   0.0000

          k = 0.4000 0.0000 0.0000 (203087 PWs)   bands (ev):

   -48.3375 -48.3370 -48.3361 -48.3356 -48.1904 -48.1901 -48.1896 -48.1892
   -48.1831 -48.1830 -48.1827 -48.1826 -47.9463 -47.9448 -47.9398 -47.9394
   -47.9220 -47.9207 -47.9147 -47.9138  -4.3351  -3.8476  -3.6980  -3.1864
    -2.9193  -2.4078  -2.3904  -2.3680  -2.0611  -1.9339  -1.9284  -1.6677
    -1.6475  -1.4948  -1.1962  -1.1933  -0.9468  -0.7069  -0.6596  -0.3967
    -0.2852  -0.2415  -0.1476   0.1555   0.2419

     occupation numbers 
     1.0000   1.0000   1.0000   1.0000   1.0000   1.0000   1.0000   1.0000
     1.0000   1.0000   1.0000   1.0000   1.0000   1.0000   1.0000   1.0000
     1.0000   1.0000   1.0000   1.0000   1.0000   1.0000   1.0000   1.0000
     1.0000   1.0000   1.0000   1.0000   1.0000   1.0000   1.0000   1.0469
     1.0608   0.8754   0.0035   0.0032   0.0000   0.0000   0.0000   0.0000
     0.0000   0.0000   0.0000   0.0000   0.0000

          k = 0.4000 0.0994 0.0000 (203147 PWs)   bands (ev):

   -48.3375 -48.3370 -48.3361 -48.3356 -48.1904 -48.1901 -48.1896 -48.1892
   -48.1831 -48.1830 -48.1827 -48.1826 -47.9463 -47.9448 -47.9398 -47.9395
   -47.9220 -47.9207 -47.9147 -47.9138  -4.3112  -3.8239  -3.6728  -3.1619
    -2.8921  -2.8003  -2.3423  -2.3272  -2.0757  -2.0333  -1.9538  -1.5966
    -1.4944  -1.4679  -1.2410  -1.1209  -0.9127  -0.7770  -0.6601  -0.3635
    -0.2758  -0.1791   0.0069   0.0269   0.2502

     occupation numbers 
     1.0000   1.0000   1.0000   1.0000   1.0000   1.0000   1.0000   1.0000
     1.0000   1.0000   1.0000   1.0000   1.0000   1.0000   1.0000   1.0000
     1.0000   1.0000   1.0000   1.0000   1.0000   1.0000   1.0000   1.0000
     1.0000   1.0000   1.0000   1.0000   1.0000   1.0000   1.0000   1.0833
     0.8735   0.7449   0.0141   0.0002   0.0000   0.0000   0.0000   0.0000
     0.0000   0.0000   0.0000   0.0000   0.0000

          k = 0.4000 0.1988 0.0000 (203116 PWs)   bands (ev):

   -48.3375 -48.3370 -48.3361 -48.3356 -48.1904 -48.1901 -48.1896 -48.1892
   -48.1831 -48.1830 -48.1827 -48.1826 -47.9462 -47.9447 -47.9399 -47.9397
   -47.9220 -47.9207 -47.9147 -47.9138  -4.2395  -3.7530  -3.5979  -3.1556
    -3.0896  -2.8122  -2.6781  -2.4419  -2.2674  -1.9571  -1.9522  -1.5573
    -1.4803  -1.3944  -1.0538  -1.0200  -0.9543  -0.7278  -0.4905  -0.3969
    -0.3052  -0.0696   0.0258   0.2450   0.3311

     occupation numbers 
     1.0000   1.0000   1.0000   1.0000   1.0000   1.0000   1.0000   1.0000
     1.0000   1.0000   1.0000   1.0000   1.0000   1.0000   1.0000   1.0000
     1.0000   1.0000   1.0000   1.0000   1.0000   1.0000   1.0000   1.0000
     1.0000   1.0000   1.0000   1.0000   1.0000   1.0000   1.0000   1.0579
     0.8077   0.3531   0.0000   0.0000   0.0000   0.0000   0.0000   0.0000
     0.0000   0.0000   0.0000   0.0000   0.0000

          k = 0.4000 0.2981 0.0000 (203047 PWs)   bands (ev):

   -48.3375 -48.3370 -48.3361 -48.3356 -48.1905 -48.1901 -48.1896 -48.1892
   -48.1830 -48.1830 -48.1827 -48.1826 -47.9460 -47.9446 -47.9400 -47.9399
[...]
     1.0000   1.0000   1.0000   1.0000   1.0000   1.0000   1.0000   1.0000
     1.0000   1.0000   1.0000   1.0000   1.0000   1.0000   1.0000   1.0000
     0.2421   0.2421   0.0005   0.0005   0.0000   0.0000   0.0000   0.0000
     0.0000   0.0000   0.0000   0.0000   0.0000

     the Fermi energy is    -1.4040 ev

!    total energy              =    -300.94887412 Ry
     total all-electron energy =      -300.949037 Ry
     estimated scf accuracy    <          8.0E-13 Ry

!    total charge of GC-SCF    =      -5.64505385 e
     smearing contrib. (-TS)   =      -0.00026925 Ry
     internal energy E=F+TS    =    -300.94860487 Ry

     The total energy is F=E-TS. E is the sum of the following terms:
     one-electron contribution =   -3001.04258544 Ry
     hartree contribution      =    1471.38776130 Ry
     xc contribution           =     -73.20834607 Ry
     ewald contribution        =    1154.24078610 Ry
     one-center paw contrib.   =       1.76531286 Ry
      -> PAW hartree energy AE =       7.41473527 Ry
      -> PAW hartree energy PS =      -7.19175826 Ry
      -> PAW xc energy AE      =      -3.48200392 Ry
      -> PAW xc energy PS      =       3.34736296 Ry
      -> total E_H with PAW    =    1471.61073830 Ry
      -> total E_XC with PAW   =     -73.34298704 Ry
     pot.stat. contrib. (-muN) =       0.58252494 Ry
     electrostatic embedding   =      -6.51832177 Ry
     cavitation energy         =       0.02135997 Ry
     electrolyte free energy   =      -0.13797131 Ry
     correction to one-el term =     151.96087457 Ry

     WARNING: you are using the parabolic pbc correction;
              the potential shift above must be added to 
              band and Fermi energies.

     convergence has been achieved in  15 iterations
     The dielectric solvent contribution to forces
     atom    1 type  1   force =     0.00000000   -0.00729171   -0.12298660
     atom    2 type  1   force =     0.00000000    0.00304046   -0.00162306
     atom    3 type  1   force =     0.00000000    0.00927694    0.04419264
     atom    4 type  1   force =     0.00000000   -0.03453688    0.11080596
     atom    5 type  1   force =    -0.00000000   -0.01660309   -0.05692656
     atom    6 type  1   force =     0.00000001   -0.00304102    0.00188991
     atom    7 type  1   force =     0.00000127    0.00724640    0.12325777
     atom    8 type  1   force =     0.00000135    0.01662249    0.05733828
     atom    9 type  1   force =    -0.00000077    0.03457829   -0.11055152
     atom   10 type  1   force =     0.00000024   -0.00926201   -0.04386428
     atom   11 type  1   force =    -0.00000000   -0.00729230   -0.12298624
     atom   12 type  1   force =    -0.00000000    0.00304085   -0.00162242
     atom   13 type  1   force =    -0.00000000    0.00927628    0.04419140
     atom   14 type  1   force =    -0.00000000   -0.03453717    0.11080538
     atom   15 type  1   force =    -0.00000000   -0.01660338   -0.05692504
     atom   16 type  1   force =    -0.00000001   -0.00304102    0.00188991
     atom   17 type  1   force =    -0.00000127    0.00724640    0.12325777
     atom   18 type  1   force =    -0.00000135    0.01662249    0.05733829
     atom   19 type  1   force =     0.00000077    0.03457829   -0.11055152
     atom   20 type  1   force =    -0.00000024   -0.00926201   -0.04386428


     Forces acting on atoms (cartesian axes, Ry/au):

     atom    1 type  1   force =     0.00000000    0.00001148   -0.00007299
     atom    2 type  1   force =     0.00000000   -0.00006281   -0.00011950
     atom    3 type  1   force =     0.00000000   -0.00029969    0.00016043
     atom    4 type  1   force =     0.00000000    0.00012809    0.00013789
     atom    5 type  1   force =     0.00000000   -0.00000604   -0.00016688
     atom    6 type  1   force =     0.00000041    0.00007752    0.00012164
     atom    7 type  1   force =    -0.00000105    0.00000932    0.00008744
     atom    8 type  1   force =    -0.00000042    0.00001401    0.00008096
     atom    9 type  1   force =     0.00000135   -0.00012351   -0.00014086
     atom   10 type  1   force =    -0.00000190    0.00025223   -0.00008967
     atom   11 type  1   force =     0.00000000    0.00001262   -0.00007153
     atom   12 type  1   force =     0.00000000   -0.00006723   -0.00011769
     atom   13 type  1   force =     0.00000000   -0.00029774    0.00015945
     atom   14 type  1   force =     0.00000000    0.00012901    0.00013872
     atom   15 type  1   force =     0.00000000   -0.00000683   -0.00016691
     atom   16 type  1   force =    -0.00000041    0.00007752    0.00012164
     atom   17 type  1   force =     0.00000105    0.00000932    0.00008744
     atom   18 type  1   force =     0.00000042    0.00001401    0.00008096
     atom   19 type  1   force =    -0.00000135   -0.00012351   -0.00014086
     atom   20 type  1   force =     0.00000190    0.00025223   -0.00008967
     The non-local contrib.  to forces
     atom    1 type  1   force =     0.00000000    0.00007405    0.03087765
     atom    2 type  1   force =     0.00000000   -0.00100390   -0.00033630
     atom    3 type  1   force =     0.00000000   -0.00168613    0.00431171
     atom    4 type  1   force =     0.00000000    0.01210192   -0.02583254
     atom    5 type  1   force =     0.00000000    0.00864897    0.03281349
     atom    6 type  1   force =     0.00000047    0.00105664    0.00038102
     atom    7 type  1   force =    -0.00000235   -0.00008858   -0.03087078
     atom    8 type  1   force =    -0.00000137   -0.00865112   -0.03289355
     atom    9 type  1   force =     0.00000255   -0.01205909    0.02582112
     atom   10 type  1   force =    -0.00000297    0.00161001   -0.00426825
     atom   11 type  1   force =     0.00000000    0.00007730    0.03087837
     atom   12 type  1   force =     0.00000000   -0.00100754   -0.00033333
     atom   13 type  1   force =     0.00000000   -0.00168337    0.00431007
     atom   14 type  1   force =     0.00000000    0.01210171   -0.02583131
     atom   15 type  1   force =     0.00000000    0.00864795    0.03281408
     atom   16 type  1   force =    -0.00000047    0.00105664    0.00038102
     atom   17 type  1   force =     0.00000235   -0.00008858   -0.03087078
     atom   18 type  1   force =     0.00000137   -0.00865112   -0.03289355
     atom   19 type  1   force =    -0.00000255   -0.01205909    0.02582112
     atom   20 type  1   force =     0.00000297    0.00161001   -0.00426825
     The ionic contribution  to forces
     atom    1 type  1   force =    -0.00000002    0.11231806    5.72436716
     atom    2 type  1   force =    -0.00000002   -0.07239600    0.44509154
     atom    3 type  1   force =    -0.00000003   -0.09398830   -2.80659973
     atom    4 type  1   force =    -0.00000002    0.32904651   -6.50255015
     atom    5 type  1   force =    -0.00000001    0.16439045    8.08264204
     atom    6 type  1   force =     0.00000285    0.07343708   -0.44388231
     atom    7 type  1   force =    -0.00004467   -0.11225901   -5.72487649
     atom    8 type  1   force =    -0.00002600   -0.16451030   -8.08206405
     atom    9 type  1   force =     0.00003699   -0.32822770    6.50223242
     atom   10 type  1   force =    -0.00005183    0.09219230    2.80565047
     atom   11 type  1   force =     0.00000001    0.11236790    5.72431667
     atom   12 type  1   force =     0.00000001   -0.07248030    0.44508132
     atom   13 type  1   force =     0.00000002   -0.09394206   -2.80658251
     atom   14 type  1   force =     0.00000001    0.32905187   -6.50255845
     atom   15 type  1   force =     0.00000001    0.16436713    8.08267204
     atom   16 type  1   force =    -0.00000284    0.07343707   -0.44388233
     atom   17 type  1   force =     0.00004467   -0.11225901   -5.72487646
     atom   18 type  1   force =     0.00002600   -0.16451029   -8.08206401
     atom   19 type  1   force =    -0.00003699   -0.32822770    6.50223240
     atom   20 type  1   force =     0.00005183    0.09219230    2.80565042
     The local contribution  to forces
     atom    1 type  1   force =     0.00000349   -0.10509047   -5.63233122
     atom    2 type  1   force =     0.00000349    0.07029637   -0.44325212
     atom    3 type  1   force =     0.00000290    0.08609827    2.75825605
     atom    4 type  1   force =     0.00000407   -0.30647985    6.41771062
     atom    5 type  1   force =     0.00000408   -0.15644825   -8.05869746
     atom    6 type  1   force =     0.00000178   -0.07137533    0.44173252
     atom    7 type  1   force =     0.00004911    0.10511179    5.63257666
     atom    8 type  1   force =     0.00003031    0.15655827    8.05770230
     atom    9 type  1   force =    -0.00003330    0.30558134   -6.41763966
     atom   10 type  1   force =     0.00005706   -0.08428865   -2.75760902
     atom   11 type  1   force =     0.00000442   -0.10514182   -5.63228035
     atom   12 type  1   force =     0.00000441    0.07037952   -0.44324371
     atom   13 type  1   force =     0.00000557    0.08605187    2.75824072
     atom   14 type  1   force =     0.00000500   -0.30648381    6.41771909
     atom   15 type  1   force =     0.00000384   -0.15642442   -8.05872959
     atom   16 type  1   force =     0.00000762   -0.07137475    0.44173312
     atom   17 type  1   force =    -0.00004028    0.10511179    5.63257605
     atom   18 type  1   force =    -0.00002090    0.15655886    8.05770110
     atom   19 type  1   force =     0.00004155    0.30558134   -6.41763906
     atom   20 type  1   force =    -0.00004825   -0.08428865   -2.75760780
     The core correction contribution to forces
     atom    1 type  1   force =     0.00000000    0.00000000    0.00000000
     atom    2 type  1   force =     0.00000000    0.00000000    0.00000000
     atom    3 type  1   force =     0.00000000    0.00000000    0.00000000
     atom    4 type  1   force =     0.00000000    0.00000000    0.00000000
     atom    5 type  1   force =     0.00000000    0.00000000    0.00000000
     atom    6 type  1   force =     0.00000000    0.00000000    0.00000000
     atom    7 type  1   force =     0.00000000    0.00000000    0.00000000
     atom    8 type  1   force =     0.00000000    0.00000000    0.00000000
     atom    9 type  1   force =     0.00000000    0.00000000    0.00000000
     atom   10 type  1   force =     0.00000000    0.00000000    0.00000000
     atom   11 type  1   force =     0.00000000    0.00000000    0.00000000
     atom   12 type  1   force =     0.00000000    0.00000000    0.00000000
     atom   13 type  1   force =     0.00000000    0.00000000    0.00000000
     atom   14 type  1   force =     0.00000000    0.00000000    0.00000000
     atom   15 type  1   force =     0.00000000    0.00000000    0.00000000
     atom   16 type  1   force =     0.00000000    0.00000000    0.00000000
     atom   17 type  1   force =     0.00000000    0.00000000    0.00000000
     atom   18 type  1   force =     0.00000000    0.00000000    0.00000000
     atom   19 type  1   force =     0.00000000    0.00000000    0.00000000
     atom   20 type  1   force =     0.00000000    0.00000000    0.00000000
     The Hubbard contrib.    to forces
     atom    1 type  1   force =     0.00000000    0.00000000    0.00000000
     atom    2 type  1   force =     0.00000000    0.00000000    0.00000000
     atom    3 type  1   force =     0.00000000    0.00000000    0.00000000
     atom    4 type  1   force =     0.00000000    0.00000000    0.00000000
     atom    5 type  1   force =     0.00000000    0.00000000    0.00000000
     atom    6 type  1   force =     0.00000000    0.00000000    0.00000000
     atom    7 type  1   force =     0.00000000    0.00000000    0.00000000
     atom    8 type  1   force =     0.00000000    0.00000000    0.00000000
     atom    9 type  1   force =     0.00000000    0.00000000    0.00000000
     atom   10 type  1   force =     0.00000000    0.00000000    0.00000000
     atom   11 type  1   force =     0.00000000    0.00000000    0.00000000
     atom   12 type  1   force =     0.00000000    0.00000000    0.00000000
     atom   13 type  1   force =     0.00000000    0.00000000    0.00000000
     atom   14 type  1   force =     0.00000000    0.00000000    0.00000000
     atom   15 type  1   force =     0.00000000    0.00000000    0.00000000
     atom   16 type  1   force =     0.00000000    0.00000000    0.00000000
     atom   17 type  1   force =     0.00000000    0.00000000    0.00000000
     atom   18 type  1   force =     0.00000000    0.00000000    0.00000000
     atom   19 type  1   force =     0.00000000    0.00000000    0.00000000
     atom   20 type  1   force =     0.00000000    0.00000000    0.00000000
     The SCF correction term to forces
     atom    1 type  1   force =    -0.00000000    0.00000147   -0.00000026
     atom    2 type  1   force =     0.00000000    0.00000017    0.00000018
     atom    3 type  1   force =     0.00000000   -0.00000055   -0.00000050
     atom    4 type  1   force =    -0.00000000   -0.00000369    0.00000373
     atom    5 type  1   force =     0.00000000    0.00000580    0.00000134
     atom    6 type  1   force =     0.00000000   -0.00000022   -0.00000006
     atom    7 type  1   force =     0.00000000   -0.00000136    0.00000030
     atom    8 type  1   force =    -0.00000000   -0.00000571   -0.00000172
     atom    9 type  1   force =     0.00000001    0.00000357   -0.00000378
     atom   10 type  1   force =     0.00000001    0.00000049    0.00000055
     atom   11 type  1   force =     0.00000000    0.00000147   -0.00000025
     atom   12 type  1   force =     0.00000000    0.00000017    0.00000018
     atom   13 type  1   force =    -0.00000000   -0.00000054   -0.00000050
     atom   14 type  1   force =    -0.00000000   -0.00000368    0.00000373
     atom   15 type  1   force =     0.00000000    0.00000582    0.00000132
     atom   16 type  1   force =    -0.00000000   -0.00000022   -0.00000006
     atom   17 type  1   force =    -0.00000000   -0.00000136    0.00000030
     atom   18 type  1   force =     0.00000000   -0.00000571   -0.00000172
     atom   19 type  1   force =    -0.00000001    0.00000357   -0.00000378
     atom   20 type  1   force =    -0.00000001    0.00000049    0.00000055

     Total force =     0.000830     Total SCF correction =     0.000016
     Energy error            =      6.7E-06 Ry
     Gradient error          =      3.0E-04 Ry/Bohr

     bfgs converged in  34 scf cycles and  33 bfgs steps
     (criteria: energy <  1.0E-05 Ry, force <  3.9E-04 Ry/Bohr)

     End of BFGS Geometry Optimization

     Final energy             =    -300.9488741235 Ry

     File ./Li/Lithium.bfgs deleted, as requested
Begin final coordinates

ATOMIC_POSITIONS (angstrom)
Li              -0.0000000600        2.9854160249       25.7763914063
Li              -0.0000000600        6.1861969770       23.8178913155
Li              -0.0000000500        1.5785538341       22.5066632004
Li              -0.0000000700        4.4844633277       21.0255905208
Li              -0.0000000700        0.1555443465       27.0668270550
Li               1.7175780191        3.7988608396       23.3979155085
Li               1.7176040235        6.9997747829       21.4392247129
Li               1.7175913897        2.1492256723       20.1514504458
Li               1.7175556984        5.5012866868       26.1906274451
Li               1.7176010618        0.7262578678       24.7081898984
Li               3.4351561700        2.9854117476       25.7763579294
Li               3.4351561700        6.1862527893       23.8178706990
Li               3.4351561500        1.5785376985       22.5066770317
Li               3.4351561600        4.4844382991       21.0255794456
Li               3.4351561800        0.1555529692       27.0668372376
Li               5.1527343109        3.7988608296       23.3979154985
Li               5.1527083165        6.9997747829       21.4392247229
Li               5.1527209403        2.1492256623       20.1514504657
Li               5.1527566516        5.5012866868       26.1906274351
Li               5.1527112782        0.7262578678       24.7081898784
End final coordinates



     Writing all to output data dir ./Li/Lithium.save/ :
     XML data file
     init_run     :     13.61s CPU     20.69s WALL (       1 calls)
     electrons    :   7970.93s CPU  10317.12s WALL (      34 calls)
     update_pot   :      3.24s CPU      4.14s WALL (      33 calls)
     forces       :    162.22s CPU    166.65s WALL (      34 calls)

     Called by init_run:
     wfcinit      :      1.07s CPU      1.42s WALL (       1 calls)
     wfcinit:wfcr :      1.00s CPU      1.34s WALL (      15 calls)
     potinit      :      0.50s CPU      0.55s WALL (       1 calls)
     hinit0       :      1.93s CPU      2.15s WALL (       1 calls)

     Called by electrons:
     c_bands      :   3747.65s CPU   5025.35s WALL (     548 calls)
     sum_band     :    276.42s CPU    376.99s WALL (     548 calls)
     v_of_rho     :     41.08s CPU     50.91s WALL (     549 calls)
     v_h          :      3.76s CPU      4.80s WALL (     549 calls)
     v_xc         :     37.31s CPU     46.10s WALL (     549 calls)
     newd         :     18.75s CPU     26.60s WALL (     549 calls)
     PAW_pot      :      4.61s CPU      6.52s WALL (     582 calls)
     mix_rho      :     99.46s CPU    131.54s WALL (     548 calls)

     Called by c_bands:
     init_us_2    :     30.39s CPU     33.18s WALL (   17460 calls)
     cegterg      :   3448.91s CPU   4269.62s WALL (    9342 calls)

     Called by sum_band:
     sum_band:wei :      0.63s CPU      0.78s WALL (     548 calls)
     sum_band:loo :    250.09s CPU    339.28s WALL (     548 calls)
     sum_band:buf :      3.73s CPU      4.09s WALL (    8220 calls)
     sum_band:ini :     12.71s CPU     13.38s WALL (    8220 calls)
     sum_band:cal :     37.55s CPU     44.97s WALL (    8715 calls)
     sum_band:bec :      0.51s CPU      0.56s WALL (    8715 calls)
     addusdens    :     14.39s CPU     15.10s WALL (     548 calls)
                                        0.00s GPU  (     548 calls)
     addusd:skk   :      2.32s CPU      2.36s WALL (     548 calls)
                                        0.00s GPU  (     548 calls)

     Called by *egterg:
     cdiaghg      :    714.73s CPU    745.60s WALL (  115527 calls)
     cegterg:over :    245.04s CPU    270.59s WALL (  107365 calls)
     cegterg:upda :    221.61s CPU    228.72s WALL (  107365 calls)
     cegterg:last :     46.85s CPU     47.57s WALL (   11619 calls)
     h_psi        :   1988.48s CPU   2730.44s WALL (  116722 calls)
     s_psi        :    136.84s CPU    142.08s WALL (  116722 calls)
     g_psi        :      3.33s CPU      3.51s WALL (  107365 calls)

     Called by h_psi:
     h_psi:calbec :    232.13s CPU    285.87s WALL (  116722 calls)
     vloc_psi     :   1587.81s CPU   2261.35s WALL (  116722 calls)
                                        0.00s GPU  (  116722 calls)
     add_vuspsi   :    154.98s CPU    168.83s WALL (  116722 calls)

     General routines
     calbec       :    276.76s CPU    338.63s WALL (  127477 calls)
     fft          :     29.89s CPU     44.11s WALL (    7203 calls)
     ffts         :     66.96s CPU     89.65s WALL (   60260 calls)
     fftw         :   1693.78s CPU   2417.55s WALL ( 3384014 calls)
     interpolate  :      3.80s CPU      4.91s WALL (     549 calls)

     Parallel routines

     PAW routines
     PAW_pot      :      4.61s CPU      6.52s WALL (     582 calls)
     PAW_symme    :      0.13s CPU      0.16s WALL (    1130 calls)

     Environ routines

     PWSCF        :      2h21m CPU      3h 1m WALL


   This run was terminated on:   5:36: 9   5Jan2025            

=------------------------------------------------------------------------------=
   JOB DONE.
=------------------------------------------------------------------------------=
