
     Program PWSCF v.7.4 starts on  3Jan2025 at 16: 0:45 

     This program is part of the open-source Quantum ESPRESSO suite
     for quantum simulation of materials; please cite
         "P. Giannozzi et al., J. Phys.:Condens. Matter 21 395502 (2009);
         "P. Giannozzi et al., J. Phys.:Condens. Matter 29 465901 (2017);
         "P. Giannozzi et al., J. Chem. Phys. 152 154105 (2020);
          URL http://www.quantum-espresso.org", 
     in publications or presentations arising from this work. More details at
     http://www.quantum-espresso.org/quote

     Parallel version (MPI & OpenMP), running on     384 processor cores
     Number of MPI processes:               384
     Threads/MPI process:                     1

     MPI processes distributed on     3 nodes
     234724 MiB available memory on the printing compute node when the environment starts

     Reading input from espresso.pwi
Warning: card &CELL ignored
Warning: card    PRESS_CONV_THR   = 0.1 ignored
Warning: card    CELL_DOFREE      = 'ALL' ignored
Warning: card / ignored
Warning: card &FCP ignored
Warning: card / ignored
Warning: card &RISM ignored
Warning: card / ignored

     Current dimensions of program PWSCF are:
     Max number of different atomic species (ntypx) = 10
     Max number of k-points (npk) =  40000
     Max angular momentum in pseudopotentials (lmaxx) =  4

     IMPORTANT: XC functional enforced from input :
     Exchange-correlation= PBE
                           (   1   4   3   4   0   0   0)
     Any further DFT definition will be discarded
     Please, verify this is what you really want


     Reading input from environ.in:
     * using ionic solvent mode
     * setting boundary derivatives method to SSCS default
     * setting electrolyte-boundary derivatives method to SSCS default

Environ Warning (1001): card EOF ignored

     

     K-points division:     npool     =       2
     R & G space division:  proc/nbgrp/npool/nimage =     192
     Subspace diagonalization in iterative solution of the eigenvalue problem:
     a serial algorithm will be used


     Parallelization info
     --------------------
     sticks:   dense  smooth     PW     G-vecs:    dense   smooth      PW
     Min          83      33      8                47331    11965    1600
     Max          84      34      9                47398    12006    1675
     Sum       16113    6449   1713              9095383  2301201  316649

     Using Slab Decomposition



     bravais-lattice index     =           12
     lattice parameter (alat)  =      18.3607  a.u.
     unit-cell volume          =   23801.8584 (a.u.)^3
     number of atoms/cell      =           36
     number of atomic types    =            1
     number of electrons       =       108.00
     number of Kohn-Sham states=           81
     kinetic-energy cutoff     =      80.0000  Ry
     charge density cutoff     =     800.0000  Ry
     scf convergence threshold =      1.0E-06
     mixing beta               =       0.2000
     number of iterations used =            8  local-TF  mixing
     energy convergence thresh.=      1.0E-05
     force convergence thresh. =      3.9E-04
     Exchange-correlation= PBE
                           (   1   4   3   4   0   0   0)
     nstep                     =          999


     ================================================================================

                                  Environ Setup Summary

     ================================================================================

     Please cite

          O. Andreussi, I. Dabo and N. Marzari, J. Chem. Phys. 136, 064102 (2012)
          F. Nattino, M. Truscott, N. Marzari, and O. Andreussi, J. Chem. Phys. 150, 041722 (2019)

     in publications or presentations arising from this work.

     ================================================================================

     Parameters
     ==========

     compensation onset threshold      =               0.1000E+00
     static permittivity               =                    89.90
     surface tension in input (dyn/cm) =                    37.30
     surface tension in internal units =               0.4792E-04

     Solvent Boundary
     ================

     solvent mode                      =                    ionic
     derivatives method                =                   lowmem
     electrolyte derivatives method    =                   lowmem
     numerical core for derivatives    =                      fft
     switching function adopted        =                     SCCS
     density limit for vacuum region   =               0.5000E-02
     density limit for bulk solvent    =               0.1000E-03
     soft-sphere radius mode           =                    bondi
     soft-sphere softness              =                     0.50
     alpha                             =                     1.32

     Electrostatic Setup
     ===================

     electrostatic problem to solve    =                    modpb
     numerical solver adopted          =                   newton
     type of auxiliary density adopted =                     none
     numerical core for poisson        =                      fft
     adopting a nested solver scheme
     inner solver                      =                       cg
     inner core                        =                      fft
     type of pbc corrections           =                parabolic
     numerical core for corrections    =                      1da

     ================================================================================


     >>>>> Grand-Canonical SCF is activated <<<<<
     Initial Total Charge  =     0.000000 e
     Target Fermi Energy   =    -1.904000 eV
     Thr. of Fermi Energy  =     0.001000 eV
     Wave-shift of Kerker  =     0.400000 bohr^-1
     Wave-shift of Hartree =     1.500000 bohr^-1
     Mixing Rate of Fermi  =     0.050000

     celldm(1)=  18.360747  celldm(2)=   0.790569  celldm(3)=   5.127180
     celldm(4)=   0.316228  celldm(5)=   0.000000  celldm(6)=   0.000000

     crystal axes: (cart. coord. in units of alat)
               a(1) = (   1.000000   0.000000   0.000000 )  
               a(2) = (   0.250000   0.750000   0.000000 )  
               a(3) = (   0.000000   0.000000   5.127180 )  

     reciprocal axes: (cart. coord. in units 2 pi/alat)
               b(1) = (  1.000000 -0.333333  0.000000 )  
               b(2) = (  0.000000  1.333333  0.000000 )  
               b(3) = (  0.000000  0.000000  0.195039 )  


     PseudoPot. # 1 for Li read from file:
     /work/e89/e89/ba3g18/Repos/Pseudopotentials/Pslibrary/Li.pbe-sl-kjpaw_psl.1.0.0.UPF
     MD5 check sum: 3f4d2cafebb47c6c3aa8ed472e6f074d
     Pseudo is Projector augmented-wave, Zval =  3.0
     Generated using 'atomic' code by A. Dal Corso  v.7.4
     Shape of augmentation charge: PSQ
     Using radial grid of 1017 points,  4 beta functions with: 
                l(1) =   0
                l(2) =   0
                l(3) =   1
                l(4) =   1
     Q(r) pseudized with 0 coefficients 


     atomic species   valence    mass     pseudopotential
     Li                3.00     6.94000     Li( 1.00)

     No symmetry found


                                    s                        frac. trans.

      isym =  1     identity                                     

 cryst.   s( 1) = (     1          0          0      )
                  (     0          1          0      )
                  (     0          0          1      )

 cart.    s( 1) = (  1.0000000  0.0000000  0.0000000 )
                  (  0.0000000  1.0000000  0.0000000 )
                  (  0.0000000  0.0000000  1.0000000 )


     point group C_1 (1)    
     there are  1 classes
     the character table:

       E    
A      1.00

     the symmetry operations in each class and the name of the first element:

     E        1
          identity                                               

   Cartesian axes

     site n.     atom                  positions (alat units)
         1        Li     tau(   1) = (   0.0000648  -0.0292383   3.0578552  )
         2        Li     tau(   2) = (   0.2499449   0.4124655   2.1319758  )
         3        Li     tau(   3) = (   0.2499498   0.0920953   2.2661148  )
         4        Li     tau(   4) = (   0.4999693   0.4993349   2.3468251  )
         5        Li     tau(   5) = (   0.4999653   0.1635245   2.4818582  )
         6        Li     tau(   6) = (   0.2499920   0.5915666   2.5827672  )
         7        Li     tau(   7) = (   0.2500375   0.2441563   2.7043267  )
         8        Li     tau(   8) = (   0.5000513   0.6618324   2.8414618  )
         9        Li     tau(   9) = (   0.5000700   0.3422796   2.9435347  )
        10        Li     tau(  10) = (   0.2499487   0.6714878   2.2857237  )
        11        Li     tau(  11) = (   0.2499620   0.3391898   2.4228649  )
        12        Li     tau(  12) = (   0.5000073   0.7417758   2.5444416  )
        13        Li     tau(  13) = (   0.5000348   0.4197973   2.6453100  )
        14        Li     tau(  14) = (   0.5000311   0.0840086   2.7803550  )
        15        Li     tau(  15) = (   0.2500499   0.4912299   2.8610692  )
        16        Li     tau(  16) = (   0.2500583   0.1708713   2.9951991  )
        17        Li     tau(  17) = (   0.4999408   0.6125600   2.0692985  )
        18        Li     tau(  18) = (   0.4999314   0.2410724   2.1836170  )
        19        Li     tau(  19) = (   0.5000572  -0.0292464   3.0578600  )
        20        Li     tau(  20) = (   0.7499438   0.4124635   2.1319808  )
        21        Li     tau(  21) = (   0.7499496   0.0920944   2.2661175  )
        22        Li     tau(  22) = (   0.9999676   0.4993372   2.3468281  )
        23        Li     tau(  23) = (   0.9999665   0.1635248   2.4818583  )
        24        Li     tau(  24) = (   0.7499923   0.5915680   2.5827656  )
        25        Li     tau(  25) = (   0.7500376   0.2441549   2.7043322  )
        26        Li     tau(  26) = (   1.0000522   0.6618320   2.8414645  )
        27        Li     tau(  27) = (   1.0000668   0.3422731   2.9435329  )
        28        Li     tau(  28) = (   0.7499479   0.6714886   2.2857233  )
        29        Li     tau(  29) = (   0.7499627   0.3391888   2.4228709  )
        30        Li     tau(  30) = (   1.0000087   0.7417753   2.5444435  )
        31        Li     tau(  31) = (   1.0000332   0.4197977   2.6453106  )
        32        Li     tau(  32) = (   1.0000318   0.0840073   2.7803514  )
        33        Li     tau(  33) = (   0.7500508   0.4912305   2.8610660  )
        34        Li     tau(  34) = (   0.7500531   0.1708672   2.9952049  )
        35        Li     tau(  35) = (   0.9999375   0.6125581   2.0693028  )
        36        Li     tau(  36) = (   0.9999319   0.2410760   2.1836203  )

   Crystallographic axes

     site n.     atom                  positions (cryst. coord.)
         1        Li     tau(   1) = (  0.0098109 -0.0389844  0.5964010  )
         2        Li     tau(   2) = (  0.1124564  0.5499540  0.4158184  )
         3        Li     tau(   3) = (  0.2192514  0.1227937  0.4419807  )
         4        Li     tau(   4) = (  0.3335243  0.6657799  0.4577224  )
         5        Li     tau(   5) = (  0.4454572  0.2180327  0.4840591  )
         6        Li     tau(   6) = (  0.0528031  0.7887555  0.5037403  )
         7        Li     tau(   7) = (  0.1686521  0.3255417  0.5274491  )
         8        Li     tau(   8) = (  0.2794404  0.8824432  0.5541958  )
         9        Li     tau(   9) = (  0.3859768  0.4563728  0.5741040  )
        10        Li     tau(  10) = (  0.0261194  0.8953170  0.4458052  )
        11        Li     tau(  11) = (  0.1368988  0.4522530  0.4725531  )
        12        Li     tau(  12) = (  0.2527487  0.9890344  0.4962653  )
        13        Li     tau(  13) = (  0.3601024  0.5597297  0.5159386  )
        14        Li     tau(  14) = (  0.4720282  0.1120114  0.5422776  )
        15        Li     tau(  15) = (  0.0863066  0.6549732  0.5580201  )
        16        Li     tau(  16) = (  0.1931012  0.2278285  0.5841806  )
        17        Li     tau(  17) = (  0.2957542  0.8167466  0.4035939  )
        18        Li     tau(  18) = (  0.4195740  0.3214298  0.4258904  )
        19        Li     tau(  19) = (  0.5098060 -0.0389952  0.5964019  )
        20        Li     tau(  20) = (  0.6124559  0.5499514  0.4158194  )
        21        Li     tau(  21) = (  0.7192515  0.1227925  0.4419813  )
        22        Li     tau(  22) = (  0.8335219  0.6657830  0.4577230  )
        23        Li     tau(  23) = (  0.9454583  0.2180330  0.4840591  )
        24        Li     tau(  24) = (  0.5528029  0.7887573  0.5037400  )
        25        Li     tau(  25) = (  0.6686526  0.3255399  0.5274502  )
        26        Li     tau(  26) = (  0.7794415  0.8824427  0.5541964  )
        27        Li     tau(  27) = (  0.8859758  0.4563641  0.5741037  )
        28        Li     tau(  28) = (  0.5261184  0.8953181  0.4458052  )
        29        Li     tau(  29) = (  0.6368998  0.4522517  0.4725543  )
        30        Li     tau(  30) = (  0.7527502  0.9890337  0.4962657  )
        31        Li     tau(  31) = (  0.8601006  0.5597302  0.5159387  )
        32        Li     tau(  32) = (  0.9720293  0.1120098  0.5422769  )
        33        Li     tau(  33) = (  0.5863073  0.6549739  0.5580194  )
        34        Li     tau(  34) = (  0.6930974  0.2278229  0.5841817  )
        35        Li     tau(  35) = (  0.7957514  0.8167442  0.4035947  )
        36        Li     tau(  36) = (  0.9195732  0.3214346  0.4258911  )

     number of k points=    32  Marzari-Vanderbilt smearing, width (Ry)=  0.0100
                       cart. coord. in units 2pi/alat
        k(    1) = (   0.0000000   0.0000000   0.0000000), wk =   0.0317460
        k(    2) = (   0.0000000   0.1481481   0.0000000), wk =   0.0634921
        k(    3) = (   0.0000000   0.2962963   0.0000000), wk =   0.0634921
        k(    4) = (   0.0000000   0.4444444   0.0000000), wk =   0.0634921
        k(    5) = (   0.0000000   0.5925926   0.0000000), wk =   0.0634921
        k(    6) = (   0.1428571  -0.0476190   0.0000000), wk =   0.0634921
        k(    7) = (   0.1428571   0.1005291   0.0000000), wk =   0.0634921
        k(    8) = (   0.1428571   0.2486772   0.0000000), wk =   0.0634921
        k(    9) = (   0.1428571   0.3968254   0.0000000), wk =   0.0634921
        k(   10) = (   0.1428571   0.5449735   0.0000000), wk =   0.0634921
        k(   11) = (   0.1428571  -0.6402116   0.0000000), wk =   0.0634921
        k(   12) = (   0.1428571  -0.4920635   0.0000000), wk =   0.0634921
        k(   13) = (   0.1428571  -0.3439153   0.0000000), wk =   0.0634921
        k(   14) = (   0.1428571  -0.1957672   0.0000000), wk =   0.0634921
        k(   15) = (   0.2857143  -0.0952381   0.0000000), wk =   0.0634921
        k(   16) = (   0.2857143   0.0529101   0.0000000), wk =   0.0634921
        k(   17) = (   0.2857143   0.2010582   0.0000000), wk =   0.0634921
        k(   18) = (   0.2857143   0.3492063   0.0000000), wk =   0.0634921
        k(   19) = (   0.2857143   0.4973545   0.0000000), wk =   0.0634921
        k(   20) = (   0.2857143  -0.6878307   0.0000000), wk =   0.0634921
        k(   21) = (   0.2857143  -0.5396825   0.0000000), wk =   0.0634921
        k(   22) = (   0.2857143  -0.3915344   0.0000000), wk =   0.0634921
        k(   23) = (   0.2857143  -0.2433862   0.0000000), wk =   0.0634921
        k(   24) = (   0.4285714  -0.1428571   0.0000000), wk =   0.0634921
        k(   25) = (   0.4285714   0.0052910   0.0000000), wk =   0.0634921
        k(   26) = (   0.4285714   0.1534392   0.0000000), wk =   0.0634921
        k(   27) = (   0.4285714   0.3015873   0.0000000), wk =   0.0634921
        k(   28) = (   0.4285714   0.4497354   0.0000000), wk =   0.0634921
        k(   29) = (   0.4285714  -0.7354497   0.0000000), wk =   0.0634921
        k(   30) = (   0.4285714  -0.5873016   0.0000000), wk =   0.0634921
        k(   31) = (   0.4285714  -0.4391534   0.0000000), wk =   0.0634921
        k(   32) = (   0.4285714  -0.2910053   0.0000000), wk =   0.0634921

                       cryst. coord.
        k(    1) = (   0.0000000   0.0000000   0.0000000), wk =   0.0317460
        k(    2) = (   0.0000000   0.1111111   0.0000000), wk =   0.0634921
        k(    3) = (   0.0000000   0.2222222   0.0000000), wk =   0.0634921
        k(    4) = (   0.0000000   0.3333333   0.0000000), wk =   0.0634921
        k(    5) = (   0.0000000   0.4444444   0.0000000), wk =   0.0634921
        k(    6) = (   0.1428571   0.0000000   0.0000000), wk =   0.0634921
        k(    7) = (   0.1428571   0.1111111   0.0000000), wk =   0.0634921
        k(    8) = (   0.1428571   0.2222222   0.0000000), wk =   0.0634921
        k(    9) = (   0.1428571   0.3333333   0.0000000), wk =   0.0634921
        k(   10) = (   0.1428571   0.4444444   0.0000000), wk =   0.0634921
        k(   11) = (   0.1428571  -0.4444444   0.0000000), wk =   0.0634921
        k(   12) = (   0.1428571  -0.3333333   0.0000000), wk =   0.0634921
        k(   13) = (   0.1428571  -0.2222222   0.0000000), wk =   0.0634921
        k(   14) = (   0.1428571  -0.1111111   0.0000000), wk =   0.0634921
        k(   15) = (   0.2857143   0.0000000   0.0000000), wk =   0.0634921
        k(   16) = (   0.2857143   0.1111111   0.0000000), wk =   0.0634921
        k(   17) = (   0.2857143   0.2222222   0.0000000), wk =   0.0634921
        k(   18) = (   0.2857143   0.3333333   0.0000000), wk =   0.0634921
        k(   19) = (   0.2857143   0.4444444   0.0000000), wk =   0.0634921
        k(   20) = (   0.2857143  -0.4444444   0.0000000), wk =   0.0634921
        k(   21) = (   0.2857143  -0.3333333   0.0000000), wk =   0.0634921
        k(   22) = (   0.2857143  -0.2222222   0.0000000), wk =   0.0634921
        k(   23) = (   0.2857143  -0.1111111   0.0000000), wk =   0.0634921
        k(   24) = (   0.4285714   0.0000000   0.0000000), wk =   0.0634921
        k(   25) = (   0.4285714   0.1111111   0.0000000), wk =   0.0634921
        k(   26) = (   0.4285714   0.2222222   0.0000000), wk =   0.0634921
        k(   27) = (   0.4285714   0.3333333   0.0000000), wk =   0.0634921
        k(   28) = (   0.4285714   0.4444444   0.0000000), wk =   0.0634921
        k(   29) = (   0.4285714  -0.4444444   0.0000000), wk =   0.0634921
        k(   30) = (   0.4285714  -0.3333333   0.0000000), wk =   0.0634921
        k(   31) = (   0.4285714  -0.2222222   0.0000000), wk =   0.0634921
        k(   32) = (   0.4285714  -0.1111111   0.0000000), wk =   0.0634921

     Dense  grid:  9095383 G-vectors     FFT dimensions: ( 180, 135, 864)

     Smooth grid:  2301201 G-vectors     FFT dimensions: ( 108,  90, 540)

     Dynamical RAM for                 wfc:       1.85 MB

     Dynamical RAM for     wfc (w. buffer):      31.45 MB

     Dynamical RAM for           str. fact:       0.72 MB

     Dynamical RAM for           local pot:       0.00 MB

     Dynamical RAM for          nlocal pot:       6.58 MB

     Dynamical RAM for                qrad:       0.65 MB

     Dynamical RAM for          rho,v,vnew:       4.95 MB

     Dynamical RAM for               rhoin:       1.65 MB

     Dynamical RAM for            rho*nmix:      11.56 MB

     Dynamical RAM for           G-vectors:       2.80 MB

     Dynamical RAM for          h,s,v(r/c):       4.81 MB

     Dynamical RAM for          <psi|beta>:       0.36 MB

     Dynamical RAM for                 psi:       7.40 MB

     Dynamical RAM for                hpsi:       7.40 MB

     Dynamical RAM for                spsi:       7.40 MB

     Dynamical RAM for      wfcinit/wfcrot:       3.85 MB

     Dynamical RAM for           addusdens:      28.91 MB

     Dynamical RAM for          addusforce:      54.24 MB

     Estimated static dynamical RAM per process >      54.88 MB

     Estimated max dynamical RAM per process >     138.78 MB

     Estimated total dynamical RAM >      43.09 GB

     Initial potential from superposition of free atoms

     starting charge     107.8341, renormalised to     108.0000

     negative rho (up, down):  4.042E-03 0.000E+00
     Starting wfcs are random
     Checking if some PAW data can be deallocated... 

     total cpu time spent up to now is       30.9 secs

     Self-consistent Calculation

     iteration #  1     ecut=    80.00 Ry     beta= 0.20
     Davidson diagonalization with overlap

---- Real-time Memory Report at c_bands before calling an iterative solver
           703 MiB given to the printing process from OS
             0 MiB allocation reported by mallinfo(arena+hblkhd)
        217179 MiB available memory on the node where the printing process lives
------------------
     c_bands:  1 eigenvalues not converged
     ethr =  1.00E-12,  avg # of iterations =110.4

     negative rho (up, down):  3.003E-03 0.000E+00

     total cpu time spent up to now is      266.3 secs

     total energy              =    -541.46686071 Ry
     estimated scf accuracy    <       0.16888929 Ry

     total charge of GC-SCF    =      -0.01687028 e
     the Fermi energy          =      -4.58584992 eV
                        (error :       2.68184992 eV)
     electrostatic embedding   =       0.00000000 Ry
     cavitation energy         =       0.03078573 Ry
     electrolyte free energy   =       0.01024461 Ry
     correction to one-el term =      -0.00000000 Ry

     iteration #  2     ecut=    80.00 Ry     beta= 0.20
     Davidson diagonalization with overlap

---- Real-time Memory Report at c_bands before calling an iterative solver
           703 MiB given to the printing process from OS
             0 MiB allocation reported by mallinfo(arena+hblkhd)
        214264 MiB available memory on the node where the printing process lives
------------------
     ethr =  1.00E-05,  avg # of iterations = 11.4

     negative rho (up, down):  2.262E-03 0.000E+00

     add environment contribution to local potential

     total cpu time spent up to now is      302.1 secs

     total energy              =    -541.31317186 Ry
     estimated scf accuracy    <       0.04894329 Ry

     total charge of GC-SCF    =      -0.02425677 e
     the Fermi energy          =      -3.48041170 eV
                        (error :       1.57641170 eV)
     electrostatic embedding   =      -0.00012024 Ry
     cavitation energy         =       0.03078573 Ry
     electrolyte free energy   =       0.01024461 Ry
     correction to one-el term =      -0.00000000 Ry

     iteration #  3     ecut=    80.00 Ry     beta= 0.20
     Davidson diagonalization with overlap

---- Real-time Memory Report at c_bands before calling an iterative solver
           703 MiB given to the printing process from OS
             0 MiB allocation reported by mallinfo(arena+hblkhd)
        214136 MiB available memory on the node where the printing process lives
------------------
     ethr =  1.00E-05,  avg # of iterations = 28.4

     negative rho (up, down):  1.870E-03 0.000E+00

     add environment contribution to local potential

     total cpu time spent up to now is      360.1 secs

     total energy              =    -541.26279583 Ry
     estimated scf accuracy    <       0.02973397 Ry

     total charge of GC-SCF    =      -0.13320558 e
     the Fermi energy          =      -2.92744585 eV
                        (error :       1.02344585 eV)
     electrostatic embedding   =      -0.03275486 Ry
     cavitation energy         =       0.03078573 Ry
     electrolyte free energy   =      -0.00323685 Ry
     correction to one-el term =       0.68219102 Ry

     iteration #  4     ecut=    80.00 Ry     beta= 0.20
     Davidson diagonalization with overlap

---- Real-time Memory Report at c_bands before calling an iterative solver
           703 MiB given to the printing process from OS
             0 MiB allocation reported by mallinfo(arena+hblkhd)
        214046 MiB available memory on the node where the printing process lives
------------------
     ethr =  1.00E-05,  avg # of iterations = 12.1

     negative rho (up, down):  1.511E-03 0.000E+00

     add environment contribution to local potential

     total cpu time spent up to now is      397.7 secs

     total energy              =    -541.20672683 Ry
     estimated scf accuracy    <       0.01534118 Ry

     total charge of GC-SCF    =      -0.26811085 e
     the Fermi energy          =      -3.16328409 eV
                        (error :       1.25928409 eV)
     electrostatic embedding   =      -0.03820436 Ry
     cavitation energy         =       0.03078573 Ry
     electrolyte free energy   =      -0.00376252 Ry
     correction to one-el term =       5.79884485 Ry

     iteration #  5     ecut=    80.00 Ry     beta= 0.20
     Davidson diagonalization with overlap

---- Real-time Memory Report at c_bands before calling an iterative solver
           703 MiB given to the printing process from OS
             0 MiB allocation reported by mallinfo(arena+hblkhd)
        213982 MiB available memory on the node where the printing process lives
------------------
     ethr =  1.00E-05,  avg # of iterations = 24.9

     negative rho (up, down):  1.295E-03 0.000E+00

     add environment contribution to local potential

     total cpu time spent up to now is      455.8 secs

     total energy              =    -541.21994628 Ry
     estimated scf accuracy    <       0.00311494 Ry

     total charge of GC-SCF    =      -0.50331146 e
     the Fermi energy          =      -2.62068960 eV
                        (error :       0.71668960 eV)
     electrostatic embedding   =      -0.05316667 Ry
     cavitation energy         =       0.03078573 Ry
     electrolyte free energy   =      -0.00113295 Ry
     correction to one-el term =      12.14110738 Ry

     iteration #  6     ecut=    80.00 Ry     beta= 0.20
     Davidson diagonalization with overlap

---- Real-time Memory Report at c_bands before calling an iterative solver
           703 MiB given to the printing process from OS
             0 MiB allocation reported by mallinfo(arena+hblkhd)
        213903 MiB available memory on the node where the printing process lives
------------------
     ethr =  2.87E-06,  avg # of iterations = 26.7

     negative rho (up, down):  1.180E-03 0.000E+00

     add environment contribution to local potential

     total cpu time spent up to now is      508.1 secs

     total energy              =    -541.28045953 Ry
     estimated scf accuracy    <       0.01379615 Ry

     total charge of GC-SCF    =      -0.67776002 e
     the Fermi energy          =      -2.18672957 eV
                        (error :       0.28272957 eV)
     electrostatic embedding   =      -0.10548604 Ry
     cavitation energy         =       0.03078573 Ry
     electrolyte free energy   =      -0.00139117 Ry
     correction to one-el term =      23.48788653 Ry

     iteration #  7     ecut=    80.00 Ry     beta= 0.20
     Davidson diagonalization with overlap

---- Real-time Memory Report at c_bands before calling an iterative solver
           703 MiB given to the printing process from OS
             0 MiB allocation reported by mallinfo(arena+hblkhd)
        213821 MiB available memory on the node where the printing process lives
------------------
     ethr =  2.87E-06,  avg # of iterations =  9.5

     negative rho (up, down):  1.096E-03 0.000E+00

     add environment contribution to local potential

     total cpu time spent up to now is      540.7 secs

     total energy              =    -541.28754526 Ry
     estimated scf accuracy    <       0.00574620 Ry

     total charge of GC-SCF    =      -0.88119192 e
     the Fermi energy          =      -2.27241793 eV
                        (error :       0.36841793 eV)
     electrostatic embedding   =      -0.15674768 Ry
     cavitation energy         =       0.03078573 Ry
     electrolyte free energy   =      -0.00141017 Ry
     correction to one-el term =      30.22932847 Ry

     iteration #  8     ecut=    80.00 Ry     beta= 0.20
     Davidson diagonalization with overlap

---- Real-time Memory Report at c_bands before calling an iterative solver
           703 MiB given to the printing process from OS
             0 MiB allocation reported by mallinfo(arena+hblkhd)
        213663 MiB available memory on the node where the printing process lives
------------------
     ethr =  2.87E-06,  avg # of iterations =  8.3

     negative rho (up, down):  1.141E-03 0.000E+00

     add environment contribution to local potential

     total cpu time spent up to now is      570.9 secs

     total energy              =    -541.28352438 Ry
     estimated scf accuracy    <       0.00391887 Ry

     total charge of GC-SCF    =      -1.30061502 e
     the Fermi energy          =      -2.23679303 eV
                        (error :       0.33279303 eV)
     electrostatic embedding   =      -0.23184331 Ry
     cavitation energy         =       0.03078573 Ry
     electrolyte free energy   =      -0.00198720 Ry
     correction to one-el term =      38.20408547 Ry

     iteration #  9     ecut=    80.00 Ry     beta= 0.20
     Davidson diagonalization with overlap

---- Real-time Memory Report at c_bands before calling an iterative solver
           703 MiB given to the printing process from OS
             0 MiB allocation reported by mallinfo(arena+hblkhd)
        213574 MiB available memory on the node where the printing process lives
------------------
     ethr =  2.87E-06,  avg # of iterations = 11.4

     negative rho (up, down):  9.930E-04 0.000E+00

     add environment contribution to local potential

     total cpu time spent up to now is      606.2 secs

     total energy              =    -541.31905216 Ry
     estimated scf accuracy    <       0.00078460 Ry

     total charge of GC-SCF    =      -1.41244687 e
     the Fermi energy          =      -2.29901402 eV
                        (error :       0.39501402 eV)
     electrostatic embedding   =      -0.41310179 Ry
     cavitation energy         =       0.03078573 Ry
     electrolyte free energy   =      -0.00289325 Ry
     correction to one-el term =      52.48037960 Ry

     iteration # 10     ecut=    80.00 Ry     beta= 0.20
     Davidson diagonalization with overlap

---- Real-time Memory Report at c_bands before calling an iterative solver
           703 MiB given to the printing process from OS
             0 MiB allocation reported by mallinfo(arena+hblkhd)
        213519 MiB available memory on the node where the printing process lives
------------------
     ethr =  7.17E-07,  avg # of iterations =  9.7

     negative rho (up, down):  7.949E-04 0.000E+00

     add environment contribution to local potential

     total cpu time spent up to now is      639.5 secs

     total energy              =    -541.31289892 Ry
     estimated scf accuracy    <       0.00109712 Ry

     total charge of GC-SCF    =      -1.66602703 e
     the Fermi energy          =      -2.27105792 eV
                        (error :       0.36705792 eV)
     electrostatic embedding   =      -0.46724762 Ry
     cavitation energy         =       0.03078573 Ry
     electrolyte free energy   =      -0.00327599 Ry
     correction to one-el term =      56.14947160 Ry

     iteration # 11     ecut=    80.00 Ry     beta= 0.20
     Davidson diagonalization with overlap

---- Real-time Memory Report at c_bands before calling an iterative solver
           703 MiB given to the printing process from OS
             0 MiB allocation reported by mallinfo(arena+hblkhd)
        213501 MiB available memory on the node where the printing process lives
------------------
     ethr =  7.17E-07,  avg # of iterations = 12.4

     negative rho (up, down):  7.173E-04 0.000E+00

     add environment contribution to local potential

     total cpu time spent up to now is      678.7 secs

     total energy              =    -541.31457541 Ry
     estimated scf accuracy    <       0.00129283 Ry

     total charge of GC-SCF    =      -2.06348756 e
     the Fermi energy          =      -2.23971411 eV
                        (error :       0.33571411 eV)
     electrostatic embedding   =      -0.59890024 Ry
     cavitation energy         =       0.03078573 Ry
     electrolyte free energy   =      -0.00416088 Ry
     correction to one-el term =      64.10120042 Ry

     iteration # 12     ecut=    80.00 Ry     beta= 0.20
     Davidson diagonalization with overlap

---- Real-time Memory Report at c_bands before calling an iterative solver
           703 MiB given to the printing process from OS
             0 MiB allocation reported by mallinfo(arena+hblkhd)
        213490 MiB available memory on the node where the printing process lives
------------------
     ethr =  7.17E-07,  avg # of iterations = 13.9

     negative rho (up, down):  6.462E-04 0.000E+00

     add environment contribution to local potential

     total cpu time spent up to now is      720.4 secs

     total energy              =    -541.32918457 Ry
     estimated scf accuracy    <       0.00022519 Ry

     total charge of GC-SCF    =      -2.38999416 e
     the Fermi energy          =      -2.29124043 eV
                        (error :       0.38724043 eV)
     electrostatic embedding   =      -0.85067574 Ry
     cavitation energy         =       0.03078573 Ry
     electrolyte free energy   =      -0.00580506 Ry
     correction to one-el term =      76.67818076 Ry

     iteration # 13     ecut=    80.00 Ry     beta= 0.20
     Davidson diagonalization with overlap

---- Real-time Memory Report at c_bands before calling an iterative solver
           703 MiB given to the printing process from OS
             0 MiB allocation reported by mallinfo(arena+hblkhd)
        213519 MiB available memory on the node where the printing process lives
------------------
     ethr =  2.04E-07,  avg # of iterations = 19.6

     negative rho (up, down):  6.091E-04 0.000E+00

     add environment contribution to local potential

     total cpu time spent up to now is      768.4 secs

     total energy              =    -541.36544356 Ry
     estimated scf accuracy    <       0.00021279 Ry

     total charge of GC-SCF    =      -2.41129221 e
     the Fermi energy          =      -2.24777219 eV
                        (error :       0.34377219 eV)
     electrostatic embedding   =      -1.09050412 Ry
     cavitation energy         =       0.03078573 Ry
     electrolyte free energy   =      -0.00785462 Ry
     correction to one-el term =      87.31241699 Ry

     iteration # 14     ecut=    80.00 Ry     beta= 0.20
     Davidson diagonalization with overlap

---- Real-time Memory Report at c_bands before calling an iterative solver
           703 MiB given to the printing process from OS
             0 MiB allocation reported by mallinfo(arena+hblkhd)
        213486 MiB available memory on the node where the printing process lives
------------------
     ethr =  1.93E-07,  avg # of iterations =  3.8

     negative rho (up, down):  5.433E-04 0.000E+00

     add environment contribution to local potential

     total cpu time spent up to now is      793.0 secs

     total energy              =    -541.34693410 Ry
     estimated scf accuracy    <       0.00020292 Ry

     total charge of GC-SCF    =      -2.67660165 e
     the Fermi energy          =      -2.24681661 eV
                        (error :       0.34281661 eV)
     electrostatic embedding   =      -1.10771308 Ry
     cavitation energy         =       0.03078573 Ry
     electrolyte free energy   =      -0.00801207 Ry
     correction to one-el term =      88.02470220 Ry

     iteration # 15     ecut=    80.00 Ry     beta= 0.20
     Davidson diagonalization with overlap

---- Real-time Memory Report at c_bands before calling an iterative solver
           703 MiB given to the printing process from OS
             0 MiB allocation reported by mallinfo(arena+hblkhd)
        213486 MiB available memory on the node where the printing process lives
------------------
     ethr =  1.83E-07,  avg # of iterations = 20.1

     negative rho (up, down):  5.041E-04 0.000E+00

     add environment contribution to local potential

     total cpu time spent up to now is      841.9 secs

     total energy              =    -541.35244049 Ry
     estimated scf accuracy    <       0.00025235 Ry

     total charge of GC-SCF    =      -3.04410111 e
     the Fermi energy          =      -2.21529973 eV
                        (error :       0.31129973 eV)
     electrostatic embedding   =      -1.30850770 Ry
     cavitation energy         =       0.03078573 Ry
     electrolyte free energy   =      -0.00995330 Ry
     correction to one-el term =      95.70344978 Ry

     iteration # 16     ecut=    80.00 Ry     beta= 0.20
     Davidson diagonalization with overlap

---- Real-time Memory Report at c_bands before calling an iterative solver
           703 MiB given to the printing process from OS
             0 MiB allocation reported by mallinfo(arena+hblkhd)
        213467 MiB available memory on the node where the printing process lives
------------------
     ethr =  1.83E-07,  avg # of iterations = 18.1

     negative rho (up, down):  4.805E-04 0.000E+00

     add environment contribution to local potential

     total cpu time spent up to now is      889.8 secs

     total energy              =    -541.37691043 Ry
     estimated scf accuracy    <       0.00017750 Ry

     total charge of GC-SCF    =      -3.12746446 e
     the Fermi energy          =      -2.19335890 eV
                        (error :       0.28935890 eV)
     electrostatic embedding   =      -1.63503531 Ry
     cavitation energy         =       0.03078573 Ry
     electrolyte free energy   =      -0.01344128 Ry
     correction to one-el term =     107.06496595 Ry

     iteration # 17     ecut=    80.00 Ry     beta= 0.20
     Davidson diagonalization with overlap

---- Real-time Memory Report at c_bands before calling an iterative solver
           703 MiB given to the printing process from OS
             0 MiB allocation reported by mallinfo(arena+hblkhd)
        213483 MiB available memory on the node where the printing process lives
------------------
     ethr =  1.60E-07,  avg # of iterations = 10.9

     negative rho (up, down):  4.561E-04 0.000E+00

     add environment contribution to local potential

     total cpu time spent up to now is      926.0 secs

     total energy              =    -541.36740839 Ry
     estimated scf accuracy    <       0.00016614 Ry

     total charge of GC-SCF    =      -3.57843033 e
     the Fermi energy          =      -2.18999653 eV
                        (error :       0.28599653 eV)
     electrostatic embedding   =      -1.71271362 Ry
     cavitation energy         =       0.03078573 Ry
     electrolyte free energy   =      -0.01434937 Ry
     correction to one-el term =     109.55256092 Ry

     iteration # 18     ecut=    80.00 Ry     beta= 0.20
     Davidson diagonalization with overlap

---- Real-time Memory Report at c_bands before calling an iterative solver
           703 MiB given to the printing process from OS
             0 MiB allocation reported by mallinfo(arena+hblkhd)
        213489 MiB available memory on the node where the printing process lives
------------------
     ethr =  1.49E-07,  avg # of iterations = 18.4

     negative rho (up, down):  4.559E-04 0.000E+00

     add environment contribution to local potential

     total cpu time spent up to now is      974.2 secs

     total energy              =    -541.41700146 Ry
     estimated scf accuracy    <       0.00013460 Ry

     total charge of GC-SCF    =      -4.41847907 e
     the Fermi energy          =      -2.14722380 eV
                        (error :       0.24322380 eV)
     electrostatic embedding   =      -2.17108714 Ry
     cavitation energy         =       0.03078573 Ry
     electrolyte free energy   =      -0.02029968 Ry
     correction to one-el term =     123.37451181 Ry

     iteration # 19     ecut=    80.00 Ry     beta= 0.20
     Davidson diagonalization with overlap

---- Real-time Memory Report at c_bands before calling an iterative solver
           703 MiB given to the printing process from OS
             0 MiB allocation reported by mallinfo(arena+hblkhd)
        213482 MiB available memory on the node where the printing process lives
------------------
     ethr =  1.20E-07,  avg # of iterations = 23.5

     negative rho (up, down):  4.376E-04 0.000E+00

     add environment contribution to local potential

     total cpu time spent up to now is     1035.6 secs

     total energy              =    -541.40381093 Ry
     estimated scf accuracy    <       0.00005471 Ry

     total charge of GC-SCF    =      -4.51164270 e
     the Fermi energy          =      -2.05079578 eV
                        (error :       0.14679578 eV)
     electrostatic embedding   =      -3.16739546 Ry
     cavitation energy         =       0.03078573 Ry
     electrolyte free energy   =      -0.03635374 Ry
     correction to one-el term =     148.96075851 Ry

     iteration # 20     ecut=    80.00 Ry     beta= 0.20
     Davidson diagonalization with overlap

---- Real-time Memory Report at c_bands before calling an iterative solver
           703 MiB given to the printing process from OS
             0 MiB allocation reported by mallinfo(arena+hblkhd)
        213486 MiB available memory on the node where the printing process lives
------------------
     ethr =  4.86E-08,  avg # of iterations = 12.1

     negative rho (up, down):  4.326E-04 0.000E+00

     add environment contribution to local potential

     total cpu time spent up to now is     1079.0 secs

     total energy              =    -541.40619420 Ry
     estimated scf accuracy    <       0.00006608 Ry

     total charge of GC-SCF    =      -4.55925413 e
     the Fermi energy          =      -2.02742994 eV
                        (error :       0.12342994 eV)
     electrostatic embedding   =      -3.28958715 Ry
     cavitation energy         =       0.03078573 Ry
     electrolyte free energy   =      -0.03864419 Ry
     correction to one-el term =     151.86590237 Ry

     iteration # 21     ecut=    80.00 Ry     beta= 0.20
     Davidson diagonalization with overlap

---- Real-time Memory Report at c_bands before calling an iterative solver
           703 MiB given to the printing process from OS
             0 MiB allocation reported by mallinfo(arena+hblkhd)
        213478 MiB available memory on the node where the printing process lives
------------------
     ethr =  4.86E-08,  avg # of iterations =  5.6

     negative rho (up, down):  4.270E-04 0.000E+00

     add environment contribution to local potential

     total cpu time spent up to now is     1109.9 secs

     total energy              =    -541.41659531 Ry
     estimated scf accuracy    <       0.00006288 Ry

     total charge of GC-SCF    =      -4.41859000 e
     the Fermi energy          =      -2.02136594 eV
                        (error :       0.11736594 eV)
     electrostatic embedding   =      -3.35377832 Ry
     cavitation energy         =       0.03078573 Ry
     electrolyte free energy   =      -0.03981604 Ry
     correction to one-el term =     153.34177221 Ry

     iteration # 22     ecut=    80.00 Ry     beta= 0.20
     Davidson diagonalization with overlap

---- Real-time Memory Report at c_bands before calling an iterative solver
           703 MiB given to the printing process from OS
             0 MiB allocation reported by mallinfo(arena+hblkhd)
        213474 MiB available memory on the node where the printing process lives
------------------
     ethr =  4.86E-08,  avg # of iterations = 10.8

     negative rho (up, down):  4.213E-04 0.000E+00

     add environment contribution to local potential

     total cpu time spent up to now is     1151.2 secs

     total energy              =    -541.40547710 Ry
     estimated scf accuracy    <       0.00005919 Ry

     total charge of GC-SCF    =      -4.45872221 e
     the Fermi energy          =      -2.04713303 eV
                        (error :       0.14313303 eV)
     electrostatic embedding   =      -3.16378828 Ry
     cavitation energy         =       0.03078573 Ry
     electrolyte free energy   =      -0.03633746 Ry
     correction to one-el term =     148.82057289 Ry

     iteration # 23     ecut=    80.00 Ry     beta= 0.20
     Davidson diagonalization with overlap

---- Real-time Memory Report at c_bands before calling an iterative solver
           703 MiB given to the printing process from OS
             0 MiB allocation reported by mallinfo(arena+hblkhd)
        213443 MiB available memory on the node where the printing process lives
------------------
     ethr =  4.86E-08,  avg # of iterations =  6.2

     negative rho (up, down):  3.944E-04 0.000E+00

     add environment contribution to local potential

     total cpu time spent up to now is     1181.9 secs

     total energy              =    -541.40396810 Ry
     estimated scf accuracy    <       0.00005608 Ry

     total charge of GC-SCF    =      -4.67940288 e
     the Fermi energy          =      -2.04229588 eV
                        (error :       0.13829588 eV)
     electrostatic embedding   =      -3.21519979 Ry
     cavitation energy         =       0.03078573 Ry
     electrolyte free energy   =      -0.03727839 Ry
     correction to one-el term =     150.00700581 Ry

     iteration # 24     ecut=    80.00 Ry     beta= 0.20
     Davidson diagonalization with overlap

---- Real-time Memory Report at c_bands before calling an iterative solver
           703 MiB given to the printing process from OS
             0 MiB allocation reported by mallinfo(arena+hblkhd)
        213441 MiB available memory on the node where the printing process lives
------------------
     ethr =  4.86E-08,  avg # of iterations = 23.2

     negative rho (up, down):  3.870E-04 0.000E+00

     add environment contribution to local potential

     total cpu time spent up to now is     1240.7 secs

     total energy              =    -541.40709373 Ry
     estimated scf accuracy    <       0.00005133 Ry

     total charge of GC-SCF    =      -4.80705929 e
     the Fermi energy          =      -2.01992191 eV
                        (error :       0.11592191 eV)
     electrostatic embedding   =      -3.47332347 Ry
     cavitation energy         =       0.03078573 Ry
     electrolyte free energy   =      -0.04257422 Ry
     correction to one-el term =     155.28203688 Ry

     iteration # 25     ecut=    80.00 Ry     beta= 0.20
     Davidson diagonalization with overlap

---- Real-time Memory Report at c_bands before calling an iterative solver
           703 MiB given to the printing process from OS
             0 MiB allocation reported by mallinfo(arena+hblkhd)
        213450 MiB available memory on the node where the printing process lives
------------------
     ethr =  4.55E-08,  avg # of iterations = 10.5

     negative rho (up, down):  3.757E-04 0.000E+00

     add environment contribution to local potential

     total cpu time spent up to now is     1281.7 secs

     total energy              =    -541.40891877 Ry
     estimated scf accuracy    <       0.00003503 Ry

     total charge of GC-SCF    =      -4.95819389 e
     the Fermi energy          =      -2.00363704 eV
                        (error :       0.09963704 eV)
     electrostatic embedding   =      -3.64680155 Ry
     cavitation energy         =       0.03078573 Ry
     electrolyte free energy   =      -0.04601870 Ry
     correction to one-el term =     159.09175805 Ry

     iteration # 26     ecut=    80.00 Ry     beta= 0.20
     Davidson diagonalization with overlap

---- Real-time Memory Report at c_bands before calling an iterative solver
           703 MiB given to the printing process from OS
             0 MiB allocation reported by mallinfo(arena+hblkhd)
        213443 MiB available memory on the node where the printing process lives
------------------
     ethr =  3.10E-08,  avg # of iterations = 14.5

     negative rho (up, down):  3.622E-04 0.000E+00

     add environment contribution to local potential

     total cpu time spent up to now is     1328.8 secs

     total energy              =    -541.42098708 Ry
     estimated scf accuracy    <       0.00002763 Ry

     total charge of GC-SCF    =      -5.34683155 e
     the Fermi energy          =      -1.98042467 eV
                        (error :       0.07642467 eV)
     electrostatic embedding   =      -3.84839354 Ry
     cavitation energy         =       0.03078573 Ry
     electrolyte free energy   =      -0.05032444 Ry
     correction to one-el term =     163.29813842 Ry

     iteration # 27     ecut=    80.00 Ry     beta= 0.20
     Davidson diagonalization with overlap

---- Real-time Memory Report at c_bands before calling an iterative solver
           703 MiB given to the printing process from OS
             0 MiB allocation reported by mallinfo(arena+hblkhd)
        213442 MiB available memory on the node where the printing process lives
------------------
     c_bands:  1 eigenvalues not converged
     ethr =  2.44E-08,  avg # of iterations = 29.8

     negative rho (up, down):  3.599E-04 0.000E+00

     add environment contribution to local potential

     total cpu time spent up to now is     1403.2 secs

     total energy              =    -541.41316449 Ry
     estimated scf accuracy    <       0.00001660 Ry

     total charge of GC-SCF    =      -5.36277367 e
     the Fermi energy          =      -1.92160977 eV
                        (error :       0.01760977 eV)
     electrostatic embedding   =      -4.39228906 Ry
     cavitation energy         =       0.03078573 Ry
     electrolyte free energy   =      -0.06268667 Ry
     correction to one-el term =     174.04749493 Ry

     iteration # 28     ecut=    80.00 Ry     beta= 0.20
     Davidson diagonalization with overlap

---- Real-time Memory Report at c_bands before calling an iterative solver
           703 MiB given to the printing process from OS
             0 MiB allocation reported by mallinfo(arena+hblkhd)
        213391 MiB available memory on the node where the printing process lives
------------------
     ethr =  1.46E-08,  avg # of iterations = 10.6

     negative rho (up, down):  3.620E-04 0.000E+00

     add environment contribution to local potential

     total cpu time spent up to now is     1442.2 secs

     total energy              =    -541.41350810 Ry
     estimated scf accuracy    <       0.00001293 Ry

     total charge of GC-SCF    =      -5.43067598 e
     the Fermi energy          =      -1.91736506 eV
                        (error :       0.01336506 eV)
     electrostatic embedding   =      -4.41796164 Ry
     cavitation energy         =       0.03078573 Ry
     electrolyte free energy   =      -0.06326707 Ry
     correction to one-el term =     174.60059842 Ry

     iteration # 29     ecut=    80.00 Ry     beta= 0.20
     Davidson diagonalization with overlap

---- Real-time Memory Report at c_bands before calling an iterative solver
           703 MiB given to the printing process from OS
             0 MiB allocation reported by mallinfo(arena+hblkhd)
        213351 MiB available memory on the node where the printing process lives
------------------
     ethr =  1.14E-08,  avg # of iterations = 12.9

     negative rho (up, down):  3.609E-04 0.000E+00

     add environment contribution to local potential

     total cpu time spent up to now is     1488.9 secs

     total energy              =    -541.41432072 Ry
     estimated scf accuracy    <       0.00000502 Ry

     total charge of GC-SCF    =      -5.52323205 e
     the Fermi energy          =      -1.90739239 eV
                        (error :       0.00339239 eV)
     electrostatic embedding   =      -4.51553259 Ry
     cavitation energy         =       0.03078573 Ry
     electrolyte free energy   =      -0.06565628 Ry
     correction to one-el term =     176.44569012 Ry

     iteration # 30     ecut=    80.00 Ry     beta= 0.20
     Davidson diagonalization with overlap

---- Real-time Memory Report at c_bands before calling an iterative solver
           703 MiB given to the printing process from OS
             0 MiB allocation reported by mallinfo(arena+hblkhd)
        213358 MiB available memory on the node where the printing process lives
------------------
     ethr =  4.42E-09,  avg # of iterations = 21.6

     negative rho (up, down):  3.609E-04 0.000E+00

     add environment contribution to local potential

     total cpu time spent up to now is     1546.4 secs

     total energy              =    -541.41339701 Ry
     estimated scf accuracy    <       0.00000361 Ry

     total charge of GC-SCF    =      -5.47316440 e
     the Fermi energy          =      -1.89266183 eV
                        (error :       0.01133817 eV)
     electrostatic embedding   =      -4.65665142 Ry
     cavitation energy         =       0.03078573 Ry
     electrolyte free energy   =      -0.06902582 Ry
     correction to one-el term =     179.14532670 Ry

     iteration # 31     ecut=    80.00 Ry     beta= 0.20
     Davidson diagonalization with overlap

---- Real-time Memory Report at c_bands before calling an iterative solver
           703 MiB given to the printing process from OS
             0 MiB allocation reported by mallinfo(arena+hblkhd)
        213312 MiB available memory on the node where the printing process lives
------------------
     ethr =  3.18E-09,  avg # of iterations = 11.6

     negative rho (up, down):  3.598E-04 0.000E+00

     add environment contribution to local potential

     total cpu time spent up to now is     1591.7 secs

     total energy              =    -541.41342648 Ry
     estimated scf accuracy    <       0.00000182 Ry

     total charge of GC-SCF    =      -5.50411544 e
     the Fermi energy          =      -1.90167868 eV
                        (error :       0.00232132 eV)
     electrostatic embedding   =      -4.57890158 Ry
     cavitation energy         =       0.03078573 Ry
     electrolyte free energy   =      -0.06717973 Ry
     correction to one-el term =     177.64380477 Ry

     iteration # 32     ecut=    80.00 Ry     beta= 0.20
     Davidson diagonalization with overlap

---- Real-time Memory Report at c_bands before calling an iterative solver
           703 MiB given to the printing process from OS
             0 MiB allocation reported by mallinfo(arena+hblkhd)
        213331 MiB available memory on the node where the printing process lives
------------------
     ethr =  1.61E-09,  avg # of iterations = 14.9

     negative rho (up, down):  3.583E-04 0.000E+00

     add environment contribution to local potential

     total cpu time spent up to now is     1637.9 secs

     total energy              =    -541.41329522 Ry
     estimated scf accuracy    <       0.00000049 Ry

     total charge of GC-SCF    =      -5.48384910 e
     the Fermi energy          =      -1.89815806 eV
                        (error :       0.00584194 eV)
     electrostatic embedding   =      -4.62321000 Ry
     cavitation energy         =       0.03078573 Ry
     electrolyte free energy   =      -0.06828508 Ry
     correction to one-el term =     178.43569405 Ry

     iteration # 33     ecut=    80.00 Ry     beta= 0.20
     Davidson diagonalization with overlap

---- Real-time Memory Report at c_bands before calling an iterative solver
           703 MiB given to the printing process from OS
             0 MiB allocation reported by mallinfo(arena+hblkhd)
        213332 MiB available memory on the node where the printing process lives
------------------
     ethr =  4.29E-10,  avg # of iterations = 20.1

     negative rho (up, down):  3.569E-04 0.000E+00

     add environment contribution to local potential

     total cpu time spent up to now is     1693.3 secs

     total energy              =    -541.41329530 Ry
     estimated scf accuracy    <       0.00000015 Ry

     total charge of GC-SCF    =      -5.48849547 e
     the Fermi energy          =      -1.90165242 eV
                        (error :       0.00234758 eV)
     electrostatic embedding   =      -4.59110869 Ry
     cavitation energy         =       0.03078573 Ry
     electrolyte free energy   =      -0.06753371 Ry
     correction to one-el term =     177.80218160 Ry

     iteration # 34     ecut=    80.00 Ry     beta= 0.20
     Davidson diagonalization with overlap

---- Real-time Memory Report at c_bands before calling an iterative solver
           703 MiB given to the printing process from OS
             0 MiB allocation reported by mallinfo(arena+hblkhd)
        213327 MiB available memory on the node where the printing process lives
------------------
     ethr =  1.36E-10,  avg # of iterations = 12.4

     negative rho (up, down):  3.563E-04 0.000E+00

     add environment contribution to local potential

     total cpu time spent up to now is     1738.4 secs

     total energy              =    -541.41329751 Ry
     estimated scf accuracy    <       0.00000011 Ry

     total charge of GC-SCF    =      -5.47559658 e
     the Fermi energy          =      -1.90141929 eV
                        (error :       0.00258071 eV)
     electrostatic embedding   =      -4.59756527 Ry
     cavitation energy         =       0.03078573 Ry
     electrolyte free energy   =      -0.06769693 Ry
     correction to one-el term =     177.91375999 Ry

     iteration # 35     ecut=    80.00 Ry     beta= 0.20
     Davidson diagonalization with overlap

---- Real-time Memory Report at c_bands before calling an iterative solver
           703 MiB given to the printing process from OS
             0 MiB allocation reported by mallinfo(arena+hblkhd)
        213262 MiB available memory on the node where the printing process lives
------------------
     ethr =  9.34E-11,  avg # of iterations = 19.4

     negative rho (up, down):  3.547E-04 0.000E+00

     total cpu time spent up to now is     1777.2 secs

     End of self-consistent calculation

          k = 0.0000 0.0000 0.0000 (287685 PWs)   bands (ev):

   -49.0821 -49.0821 -49.0820 -49.0820 -48.7083 -48.7083 -48.7076 -48.7076
   -48.6873 -48.6872 -48.6867 -48.6866 -48.5054 -48.5052 -48.5051 -48.5050
   -48.4454 -48.4452 -48.4452 -48.4450 -48.4273 -48.4209 -48.4209 -48.4148
   -48.3557 -48.3532 -48.3499 -48.3476 -48.3435 -48.3430 -48.3414 -48.3412
   -48.3370 -48.3363 -48.3330 -48.3323  -5.3243  -4.8410  -4.1356  -4.0012
    -4.0003  -3.4818  -3.4785  -3.3865  -3.1950  -3.1853  -2.9658  -2.9562
    -2.7124  -2.7010  -2.6720  -2.6559  -2.4728  -2.4666  -2.4197  -1.9396
    -1.9141  -1.8738  -1.8504  -1.7485  -1.6028  -1.5720  -1.4920  -1.1257
    -1.0354  -1.0044  -0.9029  -0.8979  -0.7767  -0.7687  -0.6558  -0.6376
    -0.4208  -0.2884  -0.2698  -0.1719  -0.1387  -0.1016  -0.0804  -0.0669
     0.0350

     occupation numbers 
     1.0000   1.0000   1.0000   1.0000   1.0000   1.0000   1.0000   1.0000
     1.0000   1.0000   1.0000   1.0000   1.0000   1.0000   1.0000   1.0000
     1.0000   1.0000   1.0000   1.0000   1.0000   1.0000   1.0000   1.0000
     1.0000   1.0000   1.0000   1.0000   1.0000   1.0000   1.0000   1.0000
     1.0000   1.0000   1.0000   1.0000   1.0000   1.0000   1.0000   1.0000
     1.0000   1.0000   1.0000   1.0000   1.0000   1.0000   1.0000   1.0000
     1.0000   1.0000   1.0000   1.0000   1.0000   1.0000   1.0000   0.5957
     0.4569   0.2660   0.1810   0.0179   0.0001   0.0000   0.0000   0.0000
     0.0000   0.0000   0.0000   0.0000   0.0000   0.0000   0.0000   0.0000
     0.0000   0.0000   0.0000   0.0000   0.0000   0.0000   0.0000   0.0000
     0.0000

          k = 0.0000 0.1481 0.0000 (287592 PWs)   bands (ev):

   -49.0821 -49.0821 -49.0820 -49.0820 -48.7083 -48.7083 -48.7076 -48.7076
   -48.6873 -48.6872 -48.6867 -48.6866 -48.5054 -48.5052 -48.5051 -48.5050
   -48.4454 -48.4452 -48.4452 -48.4450 -48.4273 -48.4209 -48.4209 -48.4148
   -48.3557 -48.3532 -48.3499 -48.3476 -48.3435 -48.3430 -48.3414 -48.3412
   -48.3370 -48.3363 -48.3330 -48.3323  -5.2981  -4.8142  -4.1074  -4.0923
    -3.8572  -3.6421  -3.5712  -3.3524  -3.3406  -3.2733  -3.1171  -2.7912
    -2.7755  -2.6915  -2.6055  -2.5400  -2.4498  -2.3341  -2.1510  -2.1308
    -2.0139  -1.9606  -1.7616  -1.6470  -1.6408  -1.4918  -1.4132  -1.2827
    -1.2551  -1.0576  -1.0474  -0.8113  -0.7386  -0.7009  -0.4678  -0.4306
    -0.3739  -0.3639  -0.3599  -0.2435  -0.1335  -0.1043  -0.0702   0.1191
     0.2237

     occupation numbers 
     1.0000   1.0000   1.0000   1.0000   1.0000   1.0000   1.0000   1.0000
     1.0000   1.0000   1.0000   1.0000   1.0000   1.0000   1.0000   1.0000
     1.0000   1.0000   1.0000   1.0000   1.0000   1.0000   1.0000   1.0000
     1.0000   1.0000   1.0000   1.0000   1.0000   1.0000   1.0000   1.0000
     1.0000   1.0000   1.0000   1.0000   1.0000   1.0000   1.0000   1.0000
     1.0000   1.0000   1.0000   1.0000   1.0000   1.0000   1.0000   1.0000
     1.0000   1.0000   1.0000   1.0000   1.0000   1.0007   1.0577   1.0710
     0.9543   0.7113   0.0255   0.0006   0.0005   0.0000   0.0000   0.0000
     0.0000   0.0000   0.0000   0.0000   0.0000   0.0000   0.0000   0.0000
     0.0000   0.0000   0.0000   0.0000   0.0000   0.0000   0.0000   0.0000
     0.0000

          k = 0.0000 0.2963 0.0000 (287510 PWs)   bands (ev):

   -49.0821 -49.0821 -49.0820 -49.0820 -48.7083 -48.7083 -48.7076 -48.7076
   -48.6873 -48.6872 -48.6867 -48.6866 -48.5054 -48.5052 -48.5051 -48.5050
   -48.4454 -48.4452 -48.4452 -48.4450 -48.4272 -48.4209 -48.4209 -48.4148
   -48.3557 -48.3532 -48.3499 -48.3476 -48.3435 -48.3430 -48.3414 -48.3412
   -48.3370 -48.3363 -48.3330 -48.3323  -5.2198  -4.7337  -4.1317  -4.0395
    -4.0206  -3.6628  -3.6102  -3.5459  -3.5193  -3.2637  -3.1455  -3.0303
    -2.8277  -2.7457  -2.3721  -2.3692  -2.2596  -2.2260  -2.1462  -2.0511
    -1.9654  -1.9600  -1.7576  -1.6408  -1.6008  -1.5124  -1.4994  -1.4724
    -1.2536  -1.0732  -0.9404  -0.7496  -0.7316  -0.7040  -0.5646  -0.4595
    -0.3724  -0.2747  -0.1365  -0.0186  -0.0086   0.0239   0.0922   0.1885
     0.3145

     occupation numbers 
     1.0000   1.0000   1.0000   1.0000   1.0000   1.0000   1.0000   1.0000
     1.0000   1.0000   1.0000   1.0000   1.0000   1.0000   1.0000   1.0000
     1.0000   1.0000   1.0000   1.0000   1.0000   1.0000   1.0000   1.0000
     1.0000   1.0000   1.0000   1.0000   1.0000   1.0000   1.0000   1.0000
     1.0000   1.0000   1.0000   1.0000   1.0000   1.0000   1.0000   1.0000
     1.0000   1.0000   1.0000   1.0000   1.0000   1.0000   1.0000   1.0000
     1.0000   1.0000   1.0002   1.0002   1.0069   1.0157   1.0610   1.0497
     0.7366   0.7082   0.0229   0.0005   0.0001   0.0000   0.0000   0.0000
     0.0000   0.0000   0.0000   0.0000   0.0000   0.0000   0.0000   0.0000
     0.0000   0.0000   0.0000   0.0000   0.0000   0.0000   0.0000   0.0000
     0.0000

          k = 0.0000 0.4444 0.0000 (287562 PWs)   bands (ev):

   -49.0821 -49.0821 -49.0820 -49.0820 -48.7083 -48.7083 -48.7076 -48.7076
   -48.6873 -48.6872 -48.6867 -48.6866 -48.5054 -48.5052 -48.5051 -48.5050
   -48.4454 -48.4452 -48.4452 -48.4450 -48.4272 -48.4209 -48.4209 -48.4148
   -48.3558 -48.3532 -48.3499 -48.3476 -48.3435 -48.3430 -48.3414 -48.3411
   -48.3370 -48.3363 -48.3330 -48.3323  -5.0890  -4.6000  -4.3792  -4.1186
    -3.9117  -3.8375  -3.7662  -3.5972  -3.4181  -3.2464  -3.1261  -3.1009
    -2.9069  -2.8150  -2.4610  -2.4172  -2.3434  -2.2256  -2.1555  -1.9918
    -1.9205  -1.8406  -1.6603  -1.5811  -1.5413  -1.4835  -1.3911  -1.3862
    -1.0709  -1.0686  -0.9817  -0.7726  -0.7122  -0.7006  -0.4428  -0.3633
    -0.2623  -0.2453  -0.1035  -0.0385   0.1554   0.2047   0.2885   0.3870
     0.4161

     occupation numbers 
     1.0000   1.0000   1.0000   1.0000   1.0000   1.0000   1.0000   1.0000
     1.0000   1.0000   1.0000   1.0000   1.0000   1.0000   1.0000   1.0000
     1.0000   1.0000   1.0000   1.0000   1.0000   1.0000   1.0000   1.0000
     1.0000   1.0000   1.0000   1.0000   1.0000   1.0000   1.0000   1.0000
     1.0000   1.0000   1.0000   1.0000   1.0000   1.0000   1.0000   1.0000
     1.0000   1.0000   1.0000   1.0000   1.0000   1.0000   1.0000   1.0000
     1.0000   1.0000   1.0000   1.0000   1.0005   1.0158   1.0546   0.8661
     0.4908   0.1517   0.0010   0.0000   0.0000   0.0000   0.0000   0.0000
     0.0000   0.0000   0.0000   0.0000   0.0000   0.0000   0.0000   0.0000
     0.0000   0.0000   0.0000   0.0000   0.0000   0.0000   0.0000   0.0000
     0.0000

          k = 0.0000 0.5926 0.0000 (287567 PWs)   bands (ev):

   -49.0821 -49.0821 -49.0820 -49.0820 -48.7083 -48.7083 -48.7076 -48.7076
   -48.6873 -48.6872 -48.6867 -48.6866 -48.5054 -48.5052 -48.5051 -48.5050
   -48.4454 -48.4453 -48.4452 -48.4450 -48.4272 -48.4209 -48.4209 -48.4148
   -48.3558 -48.3532 -48.3499 -48.3476 -48.3435 -48.3430 -48.3414 -48.3411
   -48.3370 -48.3363 -48.3330 -48.3323  -4.9058  -4.6698  -4.4111  -4.1700
    -4.0531  -3.9354  -3.6762  -3.5321  -3.4213  -3.4156  -3.1236  -2.9104
    -2.7892  -2.7516  -2.6788  -2.6470  -2.5657  -2.2833  -2.0945  -1.9365
    -1.9270  -1.8074  -1.7367  -1.5671  -1.5122  -1.4599  -1.1589  -1.0643
    -1.0325  -0.9029  -0.8621  -0.7687  -0.6625  -0.5660  -0.4106  -0.4040
    -0.2464  -0.1766  -0.1645  -0.1633   0.1870   0.2611   0.3313   0.3702
     0.4305

     occupation numbers 
     1.0000   1.0000   1.0000   1.0000   1.0000   1.0000   1.0000   1.0000
     1.0000   1.0000   1.0000   1.0000   1.0000   1.0000   1.0000   1.0000
     1.0000   1.0000   1.0000   1.0000   1.0000   1.0000   1.0000   1.0000
     1.0000   1.0000   1.0000   1.0000   1.0000   1.0000   1.0000   1.0000
     1.0000   1.0000   1.0000   1.0000   1.0000   1.0000   1.0000   1.0000
     1.0000   1.0000   1.0000   1.0000   1.0000   1.0000   1.0000   1.0000
     1.0000   1.0000   1.0000   1.0000   1.0000   1.0035   1.0833   0.5787
     0.5266   0.0774   0.0127   0.0000   0.0000   0.0000   0.0000   0.0000
     0.0000   0.0000   0.0000   0.0000   0.0000   0.0000   0.0000   0.0000
     0.0000   0.0000   0.0000   0.0000   0.0000   0.0000   0.0000   0.0000
     0.0000

          k = 0.1429-0.0476 0.0000 (287660 PWs)   bands (ev):

   -49.0821 -49.0821 -49.0820 -49.0820 -48.7083 -48.7083 -48.7076 -48.7076
   -48.6873 -48.6871 -48.6868 -48.6866 -48.5054 -48.5052 -48.5051 -48.5050
   -48.4454 -48.4453 -48.4452 -48.4450 -48.4271 -48.4223 -48.4195 -48.4149
   -48.3556 -48.3534 -48.3498 -48.3477 -48.3434 -48.3429 -48.3414 -48.3413
   -48.3369 -48.3363 -48.3330 -48.3323  -5.2972  -4.8131  -4.3513  -4.1058
    -3.8392  -3.5977  -3.3617  -3.3100  -3.1605  -3.0764  -3.0675  -3.0139
    -2.7926  -2.7070  -2.6435  -2.4897  -2.4388  -2.3119  -2.2609  -2.1667
    -2.0055  -1.9389  -1.6502  -1.6375  -1.5747  -1.5108  -1.4666  -1.3121
    -1.1716  -1.1156  -1.0623  -0.8722  -0.7951  -0.7296  -0.6430  -0.5868
    -0.4726  -0.4340  -0.3527  -0.2198  -0.2104  -0.0797  -0.0746   0.0055
     0.0947

     occupation numbers 
     1.0000   1.0000   1.0000   1.0000   1.0000   1.0000   1.0000   1.0000
     1.0000   1.0000   1.0000   1.0000   1.0000   1.0000   1.0000   1.0000
     1.0000   1.0000   1.0000   1.0000   1.0000   1.0000   1.0000   1.0000
     1.0000   1.0000   1.0000   1.0000   1.0000   1.0000   1.0000   1.0000
     1.0000   1.0000   1.0000   1.0000   1.0000   1.0000   1.0000   1.0000
     1.0000   1.0000   1.0000   1.0000   1.0000   1.0000   1.0000   1.0000
     1.0000   1.0000   1.0000   1.0000   1.0000   1.0015   1.0066   1.0469
     0.9234   0.5923   0.0007   0.0004   0.0000   0.0000   0.0000   0.0000
     0.0000   0.0000   0.0000   0.0000   0.0000   0.0000   0.0000   0.0000
     0.0000   0.0000   0.0000   0.0000   0.0000   0.0000   0.0000   0.0000
     0.0000

          k = 0.1429 0.1005 0.0000 (287652 PWs)   bands (ev):

   -49.0821 -49.0821 -49.0820 -49.0820 -48.7083 -48.7083 -48.7076 -48.7076
   -48.6873 -48.6871 -48.6868 -48.6866 -48.5054 -48.5052 -48.5051 -48.5050
   -48.4454 -48.4453 -48.4452 -48.4450 -48.4271 -48.4223 -48.4195 -48.4149
   -48.3556 -48.3534 -48.3498 -48.3477 -48.3434 -48.3429 -48.3414 -48.3413
   -48.3369 -48.3363 -48.3330 -48.3323  -5.2879  -4.8035  -4.2247  -4.0957
    -3.7145  -3.7049  -3.4924  -3.4823  -3.3383  -3.1752  -3.0153  -2.9542
    -2.9038  -2.8362  -2.4359  -2.3849  -2.3669  -2.3098  -2.2363  -2.1553
    -2.1207  -1.8924  -1.5840  -1.5621  -1.5166  -1.4724  -1.4460  -1.2603
    -1.2501  -1.1524  -0.9762  -0.7729  -0.7616  -0.7133  -0.6667  -0.5934
    -0.4890  -0.4626  -0.3704  -0.2704  -0.1662  -0.0630   0.0012   0.0661
     0.1284

     occupation numbers 
     1.0000   1.0000   1.0000   1.0000   1.0000   1.0000   1.0000   1.0000
     1.0000   1.0000   1.0000   1.0000   1.0000   1.0000   1.0000   1.0000
     1.0000   1.0000   1.0000   1.0000   1.0000   1.0000   1.0000   1.0000
     1.0000   1.0000   1.0000   1.0000   1.0000   1.0000   1.0000   1.0000
     1.0000   1.0000   1.0000   1.0000   1.0000   1.0000   1.0000   1.0000
     1.0000   1.0000   1.0000   1.0000   1.0000   1.0000   1.0000   1.0000
     1.0000   1.0000   1.0000   1.0001   1.0002   1.0016   1.0123   1.0548
     1.0765   0.3479   0.0000   0.0000   0.0000   0.0000   0.0000   0.0000
     0.0000   0.0000   0.0000   0.0000   0.0000   0.0000   0.0000   0.0000
     0.0000   0.0000   0.0000   0.0000   0.0000   0.0000   0.0000   0.0000
     0.0000

          k = 0.1429 0.2487 0.0000 (287592 PWs)   bands (ev):

   -49.0821 -49.0821 -49.0820 -49.0820 -48.7083 -48.7083 -48.7076 -48.7076
   -48.6873 -48.6871 -48.6868 -48.6866 -48.5054 -48.5052 -48.5051 -48.5050
   -48.4454 -48.4453 -48.4452 -48.4450 -48.4271 -48.4223 -48.4195 -48.4149
   -48.3556 -48.3534 -48.3498 -48.3477 -48.3434 -48.3429 -48.3414 -48.3413
   -48.3369 -48.3363 -48.3330 -48.3323  -5.2264  -4.7403  -4.0464  -4.0295
    -3.8921  -3.7805  -3.7634  -3.5327  -3.3731  -3.2695  -3.2687  -3.2308
    -2.7559  -2.5937  -2.4952  -2.4281  -2.3735  -2.3059  -2.0216  -1.9680
    -1.8525  -1.7423  -1.7184  -1.6291  -1.5530  -1.5320  -1.4554  -1.3660
    -1.2959  -0.9546  -0.9323  -0.8285  -0.7744  -0.7117  -0.6845  -0.4589
    -0.4105  -0.4023  -0.2659  -0.1152  -0.0680   0.0244   0.1585   0.1934
     0.2324

     occupation numbers 
     1.0000   1.0000   1.0000   1.0000   1.0000   1.0000   1.0000   1.0000
     1.0000   1.0000   1.0000   1.0000   1.0000   1.0000   1.0000   1.0000
     1.0000   1.0000   1.0000   1.0000   1.0000   1.0000   1.0000   1.0000
     1.0000   1.0000   1.0000   1.0000   1.0000   1.0000   1.0000   1.0000
     1.0000   1.0000   1.0000   1.0000   1.0000   1.0000   1.0000   1.0000
     1.0000   1.0000   1.0000   1.0000   1.0000   1.0000   1.0000   1.0000
     1.0000   1.0000   1.0000   1.0000   1.0002   1.0018   0.9797   0.7505
     0.1878   0.0150   0.0073   0.0003   0.0000   0.0000   0.0000   0.0000
     0.0000   0.0000   0.0000   0.0000   0.0000   0.0000   0.0000   0.0000
     0.0000   0.0000   0.0000   0.0000   0.0000   0.0000   0.0000   0.0000
     0.0000

          k = 0.1429 0.3968 0.0000 (287560 PWs)   bands (ev):

   -49.0821 -49.0821 -49.0820 -49.0820 -48.7083 -48.7083 -48.7076 -48.7076
   -48.6873 -48.6871 -48.6868 -48.6866 -48.5054 -48.5052 -48.5051 -48.5050
   -48.4454 -48.4453 -48.4452 -48.4450 -48.4271 -48.4223 -48.4195 -48.4149
   -48.3557 -48.3534 -48.3498 -48.3477 -48.3434 -48.3429 -48.3414 -48.3412
   -48.3369 -48.3363 -48.3330 -48.3323  -5.1125  -4.6237  -4.2514  -4.0168
    -3.9112  -3.8171  -3.7672  -3.7326  -3.5034  -3.3048  -3.2346  -3.1426
    -2.9734  -2.7274  -2.5300  -2.4316  -2.2785  -2.1691  -1.9754  -1.9445
    -1.7563  -1.7285  -1.6622  -1.5594  -1.5243  -1.5063  -1.5036  -1.3153
    -1.1651  -1.0283  -0.9532  -0.8576  -0.7773  -0.6857  -0.4306  -0.3943
    -0.3093  -0.2621  -0.1902  -0.0473   0.1400   0.1664   0.1784   0.2078
     0.3352

     occupation numbers 
     1.0000   1.0000   1.0000   1.0000   1.0000   1.0000   1.0000   1.0000
     1.0000   1.0000   1.0000   1.0000   1.0000   1.0000   1.0000   1.0000
     1.0000   1.0000   1.0000   1.0000   1.0000   1.0000   1.0000   1.0000
     1.0000   1.0000   1.0000   1.0000   1.0000   1.0000   1.0000   1.0000
     1.0000   1.0000   1.0000   1.0000   1.0000   1.0000   1.0000   1.0000
     1.0000   1.0000   1.0000   1.0000   1.0000   1.0000   1.0000   1.0000
     1.0000   1.0000   1.0000   1.0000   1.0041   1.0453   0.7880   0.6233
     0.0222   0.0100   0.0011   0.0000   0.0000   0.0000   0.0000   0.0000
     0.0000   0.0000   0.0000   0.0000   0.0000   0.0000   0.0000   0.0000
     0.0000   0.0000   0.0000   0.0000   0.0000   0.0000   0.0000   0.0000
     0.0000

          k = 0.1429 0.5450 0.0000 (287462 PWs)   bands (ev):

   -49.0821 -49.0821 -49.0820 -49.0820 -48.7083 -48.7083 -48.7076 -48.7076
   -48.6873 -48.6871 -48.6868 -48.6866 -48.5054 -48.5052 -48.5051 -48.5050
   -48.4454 -48.4453 -48.4452 -48.4450 -48.4271 -48.4223 -48.4195 -48.4150
   -48.3557 -48.3534 -48.3498 -48.3477 -48.3434 -48.3429 -48.3414 -48.3412
   -48.3369 -48.3363 -48.3330 -48.3323  -4.9462  -4.5594  -4.4514  -4.2024
    -4.0577  -3.7186  -3.7183  -3.6902  -3.5359  -3.3022  -3.1863  -3.0439
    -2.9545  -2.8961  -2.5248  -2.3897  -2.3235  -2.2696  -2.1089  -2.1033
    -1.8529  -1.6613  -1.6049  -1.5693  -1.5273  -1.4512  -1.2564  -1.1396
    -1.0167  -0.9669  -0.9416  -0.7711  -0.6724  -0.5762  -0.4984  -0.4572
    -0.2746  -0.1802  -0.0951   0.0852   0.0950   0.2133   0.2576   0.3043
     0.3633

     occupation numbers 
     1.0000   1.0000   1.0000   1.0000   1.0000   1.0000   1.0000   1.0000
     1.0000   1.0000   1.0000   1.0000   1.0000   1.0000   1.0000   1.0000
     1.0000   1.0000   1.0000   1.0000   1.0000   1.0000   1.0000   1.0000
     1.0000   1.0000   1.0000   1.0000   1.0000   1.0000   1.0000   1.0000
     1.0000   1.0000   1.0000   1.0000   1.0000   1.0000   1.0000   1.0000
     1.0000   1.0000   1.0000   1.0000   1.0000   1.0000   1.0000   1.0000
     1.0000   1.0000   1.0000   1.0001   1.0010   1.0052   1.0812   1.0826
     0.1889   0.0010   0.0001   0.0000   0.0000   0.0000   0.0000   0.0000
     0.0000   0.0000   0.0000   0.0000   0.0000   0.0000   0.0000   0.0000
     0.0000   0.0000   0.0000   0.0000   0.0000   0.0000   0.0000   0.0000
     0.0000

          k = 0.1429-0.6402 0.0000 (287578 PWs)   bands (ev):

   -49.0821 -49.0821 -49.0820 -49.0820 -48.7083 -48.7083 -48.7076 -48.7076
   -48.6873 -48.6871 -48.6868 -48.6866 -48.5054 -48.5052 -48.5051 -48.5050
   -48.4454 -48.4453 -48.4452 -48.4450 -48.4271 -48.4223 -48.4195 -48.4150
   -48.3557 -48.3534 -48.3498 -48.3477 -48.3434 -48.3429 -48.3414 -48.3412
   -48.3369 -48.3363 -48.3330 -48.3323  -4.8116  -4.7270  -4.3364  -4.3154
    -4.2276  -3.8243  -3.6165  -3.5756  -3.4822  -3.2103  -3.0867  -3.0618
    -2.8053  -2.7090  -2.6916  -2.6612  -2.3164  -2.2454  -2.1406  -2.0369
    -1.9726  -1.7465  -1.6262  -1.6146  -1.5026  -1.4696  -1.3055  -1.1311
    -1.0204  -0.9627  -0.7438  -0.7268  -0.5984  -0.5812  -0.4720  -0.4710
    -0.2266  -0.1698  -0.1087  -0.0571   0.0863   0.0947   0.1916   0.2810
     0.4225

     occupation numbers 
     1.0000   1.0000   1.0000   1.0000   1.0000   1.0000   1.0000   1.0000
     1.0000   1.0000   1.0000   1.0000   1.0000   1.0000   1.0000   1.0000
     1.0000   1.0000   1.0000   1.0000   1.0000   1.0000   1.0000   1.0000
     1.0000   1.0000   1.0000   1.0000   1.0000   1.0000   1.0000   1.0000
     1.0000   1.0000   1.0000   1.0000   1.0000   1.0000   1.0000   1.0000
     1.0000   1.0000   1.0000   1.0000   1.0000   1.0000   1.0000   1.0000
     1.0000   1.0000   1.0000   1.0000   1.0013   1.0099   1.0648   1.0214
     0.7739   0.0169   0.0003   0.0002   0.0000   0.0000   0.0000   0.0000
     0.0000   0.0000   0.0000   0.0000   0.0000   0.0000   0.0000   0.0000
     0.0000   0.0000   0.0000   0.0000   0.0000   0.0000   0.0000   0.0000
     0.0000

          k = 0.1429-0.4921 0.0000 (287444 PWs)   bands (ev):

   -49.0821 -49.0821 -49.0820 -49.0820 -48.7083 -48.7083 -48.7076 -48.7076
   -48.6873 -48.6871 -48.6868 -48.6866 -48.5054 -48.5052 -48.5051 -48.5050
   -48.4454 -48.4453 -48.4452 -48.4450 -48.4271 -48.4223 -48.4195 -48.4149
   -48.3557 -48.3533 -48.3498 -48.3477 -48.3434 -48.3429 -48.3414 -48.3412
   -48.3369 -48.3363 -48.3330 -48.3323  -5.0116  -4.5221  -4.4524  -4.4185
    -3.9566  -3.9066  -3.7848  -3.4631  -3.1922  -3.1429  -3.0272  -2.9718
    -2.9313  -2.8383  -2.4689  -2.4145  -2.3456  -2.3150  -2.1596  -2.1316
    -1.9524  -1.8223  -1.6010  -1.5805  -1.5326  -1.4662  -1.4417  -1.3428
    -1.3142  -1.0460  -0.9191  -0.7824  -0.6481  -0.5545  -0.5080  -0.4487
    -0.2153  -0.1964  -0.0971   0.0156   0.0392   0.1643   0.2081   0.3042
     0.3095

     occupation numbers 
     1.0000   1.0000   1.0000   1.0000   1.0000   1.0000   1.0000   1.0000
     1.0000   1.0000   1.0000   1.0000   1.0000   1.0000   1.0000   1.0000
     1.0000   1.0000   1.0000   1.0000   1.0000   1.0000   1.0000   1.0000
     1.0000   1.0000   1.0000   1.0000   1.0000   1.0000   1.0000   1.0000
     1.0000   1.0000   1.0000   1.0000   1.0000   1.0000   1.0000   1.0000
     1.0000   1.0000   1.0000   1.0000   1.0000   1.0000   1.0000   1.0000
     1.0000   1.0000   1.0000   1.0000   1.0005   1.0013   1.0518   1.0705
     0.6665   0.1061   0.0001   0.0000   0.0000   0.0000   0.0000   0.0000
     0.0000   0.0000   0.0000   0.0000   0.0000   0.0000   0.0000   0.0000
     0.0000   0.0000   0.0000   0.0000   0.0000   0.0000   0.0000   0.0000
     0.0000

          k = 0.1429-0.3439 0.0000 (287554 PWs)   bands (ev):

   -49.0821 -49.0821 -49.0820 -49.0820 -48.7083 -48.7083 -48.7076 -48.7076
   -48.6873 -48.6871 -48.6868 -48.6866 -48.5054 -48.5052 -48.5051 -48.5050
   -48.4454 -48.4453 -48.4452 -48.4450 -48.4271 -48.4223 -48.4195 -48.4149
   -48.3557 -48.3533 -48.3498 -48.3477 -48.3434 -48.3429 -48.3414 -48.3412
   -48.3369 -48.3363 -48.3330 -48.3323  -5.1592  -4.6714  -4.4483  -4.1295
    -3.9577  -3.9366  -3.6121  -3.2594  -3.2253  -3.1946  -3.1728  -2.8439
    -2.7423  -2.7045  -2.4465  -2.3907  -2.3292  -2.3109  -2.0582  -1.9912
    -1.9830  -1.9324  -1.9097  -1.8387  -1.5034  -1.4797  -1.4688  -1.3641
    -1.3607  -1.3239  -0.9826  -0.8134  -0.6548  -0.5763  -0.5516  -0.5353
    -0.4068  -0.2062  -0.1704  -0.1148   0.0063   0.0917   0.1192   0.1832
     0.2466

     occupation numbers 
     1.0000   1.0000   1.0000   1.0000   1.0000   1.0000   1.0000   1.0000
     1.0000   1.0000   1.0000   1.0000   1.0000   1.0000   1.0000   1.0000
     1.0000   1.0000   1.0000   1.0000   1.0000   1.0000   1.0000   1.0000
     1.0000   1.0000   1.0000   1.0000   1.0000   1.0000   1.0000   1.0000
     1.0000   1.0000   1.0000   1.0000   1.0000   1.0000   1.0000   1.0000
     1.0000   1.0000   1.0000   1.0000   1.0000   1.0000   1.0000   1.0000
     1.0000   1.0000   1.0000   1.0001   1.0008   1.0015   1.0604   0.8633
     0.8256   0.5560   0.4338   0.1463   0.0000   0.0000   0.0000   0.0000
     0.0000   0.0000   0.0000   0.0000   0.0000   0.0000   0.0000   0.0000
     0.0000   0.0000   0.0000   0.0000   0.0000   0.0000   0.0000   0.0000
     0.0000

          k = 0.1429-0.1958 0.0000 (287529 PWs)   bands (ev):

   -49.0821 -49.0821 -49.0820 -49.0820 -48.7083 -48.7083 -48.7076 -48.7076
   -48.6873 -48.6871 -48.6868 -48.6866 -48.5054 -48.5052 -48.5051 -48.5050
   -48.4454 -48.4453 -48.4452 -48.4450 -48.4271 -48.4223 -48.4195 -48.4149
   -48.3556 -48.3533 -48.3498 -48.3477 -48.3434 -48.3429 -48.3414 -48.3413
   -48.3369 -48.3363 -48.3330 -48.3323  -5.2544  -4.7690  -4.4259  -4.0595
    -3.9141  -3.7514  -3.4369  -3.3030  -3.2279  -3.1503  -3.0077  -2.9098
    -2.7828  -2.5030  -2.5010  -2.4465  -2.4001  -2.3450  -2.2713  -2.1119
    -2.0093  -1.9708  -1.8269  -1.6759  -1.5529  -1.4747  -1.4525  -1.4369
    -1.3117  -1.2969  -1.1128  -0.7697  -0.6501  -0.6434  -0.5559  -0.5465
    -0.5156  -0.4525  -0.2359  -0.1912  -0.1141  -0.0863  -0.0140   0.0990
     0.1851

     occupation numbers 
[...]
     atom    9 type  1   force =    -0.00018270    0.31623351    9.53666571
     atom   10 type  1   force =    -0.00000720    0.13919856   -6.61627468
     atom   11 type  1   force =    -0.00009778    0.00899198   -3.37068980
     atom   12 type  1   force =    -0.00003944   -0.04661853   -0.73725878
     atom   13 type  1   force =    -0.00009401    0.07322327    2.35721501
     atom   14 type  1   force =    -0.00003139   -0.07884850    4.77220014
     atom   15 type  1   force =     0.00013397    0.07529912    7.75186944
     atom   16 type  1   force =     0.00013460    0.06902878   10.06399971
     atom   17 type  1   force =     0.00007849    0.29844647  -10.84453844
     atom   18 type  1   force =     0.00018282   -0.31626217   -9.53664964
     atom   19 type  1   force =    -0.00007730   -0.29842676   10.84456974
     atom   20 type  1   force =    -0.00013432   -0.06903287  -10.06403447
     atom   21 type  1   force =    -0.00013552   -0.07529886   -7.75182313
     atom   22 type  1   force =     0.00003600    0.07884819   -4.77214206
     atom   23 type  1   force =     0.00008484   -0.07321435   -2.35725689
     atom   24 type  1   force =     0.00004009    0.04662635    0.73725963
     atom   25 type  1   force =     0.00009810   -0.00900422    3.37065875
     atom   26 type  1   force =     0.00000607   -0.13919464    6.61625903
     atom   27 type  1   force =    -0.00017411    0.31623666    9.53666349
     atom   28 type  1   force =    -0.00000803    0.13920358   -6.61627828
     atom   29 type  1   force =    -0.00010022    0.00898261   -3.37064406
     atom   30 type  1   force =    -0.00004679   -0.04660834   -0.73724182
     atom   31 type  1   force =    -0.00008291    0.07322060    2.35722235
     atom   32 type  1   force =    -0.00003536   -0.07884562    4.77217228
     atom   33 type  1   force =     0.00013592    0.07530738    7.75184924
     atom   34 type  1   force =     0.00013800    0.06902180   10.06402838
     atom   35 type  1   force =     0.00007724    0.29844668  -10.84452829
     atom   36 type  1   force =     0.00017323   -0.31626103   -9.53665305
     The local contribution  to forces
     atom    1 type  1   force =     0.00009610    0.29675994  -10.85071716
     atom    2 type  1   force =     0.00016634    0.04817346    9.99657267
     atom    3 type  1   force =     0.00016370    0.08347149    7.65306056
     atom    4 type  1   force =    -0.00004911   -0.07351937    4.71126660
     atom    5 type  1   force =    -0.00011573    0.07101869    2.32611937
     atom    6 type  1   force =    -0.00003735   -0.05146825   -0.72624087
     atom    7 type  1   force =    -0.00007828    0.01382352   -3.32803616
     atom    8 type  1   force =    -0.00001080    0.12624751   -6.52891226
     atom    9 type  1   force =     0.00022669   -0.29538059   -9.45071282
     atom   10 type  1   force =     0.00000882   -0.12624839    6.52892927
     atom   11 type  1   force =     0.00007528   -0.01382345    3.32809190
     atom   12 type  1   force =     0.00003040    0.05147149    0.72622538
     atom   13 type  1   force =     0.00011842   -0.07102320   -2.32610185
     atom   14 type  1   force =     0.00004990    0.07351795   -4.71132434
     atom   15 type  1   force =    -0.00016426   -0.08346549   -7.65309176
     atom   16 type  1   force =    -0.00016376   -0.04817494   -9.99651966
     atom   17 type  1   force =    -0.00009607   -0.29678132   10.85068368
     atom   18 type  1   force =    -0.00022683    0.29540747    9.45068528
     atom   19 type  1   force =     0.00009509    0.29676029  -10.85072940
     atom   20 type  1   force =     0.00016324    0.04817978    9.99654481
     atom   21 type  1   force =     0.00016578    0.08346426    7.65303312
     atom   22 type  1   force =    -0.00005451   -0.07351678    4.71125469
     atom   23 type  1   force =    -0.00010919    0.07101591    2.32613186
     atom   24 type  1   force =    -0.00003097   -0.05147957   -0.72623839
     atom   25 type  1   force =    -0.00007560    0.01383525   -3.32807194
     atom   26 type  1   force =    -0.00000774    0.12624450   -6.52892527
     atom   27 type  1   force =     0.00021847   -0.29538336   -9.45071048
     atom   28 type  1   force =     0.00001008   -0.12625369    6.52893282
     atom   29 type  1   force =     0.00007801   -0.01381396    3.32804668
     atom   30 type  1   force =     0.00003779    0.05146125    0.72620860
     atom   31 type  1   force =     0.00010710   -0.07102029   -2.32610892
     atom   32 type  1   force =     0.00005374    0.07351490   -4.71129692
     atom   33 type  1   force =    -0.00016591   -0.08347383   -7.65307180
     atom   34 type  1   force =    -0.00016612   -0.04816818   -9.99654956
     atom   35 type  1   force =    -0.00009513   -0.29678149   10.85067188
     atom   36 type  1   force =    -0.00021760    0.29540622    9.45068877
     The core correction contribution to forces
     atom    1 type  1   force =     0.00000000    0.00000000    0.00000000
     atom    2 type  1   force =     0.00000000    0.00000000    0.00000000
     atom    3 type  1   force =     0.00000000    0.00000000    0.00000000
     atom    4 type  1   force =     0.00000000    0.00000000    0.00000000
     atom    5 type  1   force =     0.00000000    0.00000000    0.00000000
     atom    6 type  1   force =     0.00000000    0.00000000    0.00000000
     atom    7 type  1   force =     0.00000000    0.00000000    0.00000000
     atom    8 type  1   force =     0.00000000    0.00000000    0.00000000
     atom    9 type  1   force =     0.00000000    0.00000000    0.00000000
     atom   10 type  1   force =     0.00000000    0.00000000    0.00000000
     atom   11 type  1   force =     0.00000000    0.00000000    0.00000000
     atom   12 type  1   force =     0.00000000    0.00000000    0.00000000
     atom   13 type  1   force =     0.00000000    0.00000000    0.00000000
     atom   14 type  1   force =     0.00000000    0.00000000    0.00000000
     atom   15 type  1   force =     0.00000000    0.00000000    0.00000000
     atom   16 type  1   force =     0.00000000    0.00000000    0.00000000
     atom   17 type  1   force =     0.00000000    0.00000000    0.00000000
     atom   18 type  1   force =     0.00000000    0.00000000    0.00000000
     atom   19 type  1   force =     0.00000000    0.00000000    0.00000000
     atom   20 type  1   force =     0.00000000    0.00000000    0.00000000
     atom   21 type  1   force =     0.00000000    0.00000000    0.00000000
     atom   22 type  1   force =     0.00000000    0.00000000    0.00000000
     atom   23 type  1   force =     0.00000000    0.00000000    0.00000000
     atom   24 type  1   force =     0.00000000    0.00000000    0.00000000
     atom   25 type  1   force =     0.00000000    0.00000000    0.00000000
     atom   26 type  1   force =     0.00000000    0.00000000    0.00000000
     atom   27 type  1   force =     0.00000000    0.00000000    0.00000000
     atom   28 type  1   force =     0.00000000    0.00000000    0.00000000
     atom   29 type  1   force =     0.00000000    0.00000000    0.00000000
     atom   30 type  1   force =     0.00000000    0.00000000    0.00000000
     atom   31 type  1   force =     0.00000000    0.00000000    0.00000000
     atom   32 type  1   force =     0.00000000    0.00000000    0.00000000
     atom   33 type  1   force =     0.00000000    0.00000000    0.00000000
     atom   34 type  1   force =     0.00000000    0.00000000    0.00000000
     atom   35 type  1   force =     0.00000000    0.00000000    0.00000000
     atom   36 type  1   force =     0.00000000    0.00000000    0.00000000
     The Hubbard contrib.    to forces
     atom    1 type  1   force =     0.00000000    0.00000000    0.00000000
     atom    2 type  1   force =     0.00000000    0.00000000    0.00000000
     atom    3 type  1   force =     0.00000000    0.00000000    0.00000000
     atom    4 type  1   force =     0.00000000    0.00000000    0.00000000
     atom    5 type  1   force =     0.00000000    0.00000000    0.00000000
     atom    6 type  1   force =     0.00000000    0.00000000    0.00000000
     atom    7 type  1   force =     0.00000000    0.00000000    0.00000000
     atom    8 type  1   force =     0.00000000    0.00000000    0.00000000
     atom    9 type  1   force =     0.00000000    0.00000000    0.00000000
     atom   10 type  1   force =     0.00000000    0.00000000    0.00000000
     atom   11 type  1   force =     0.00000000    0.00000000    0.00000000
     atom   12 type  1   force =     0.00000000    0.00000000    0.00000000
     atom   13 type  1   force =     0.00000000    0.00000000    0.00000000
     atom   14 type  1   force =     0.00000000    0.00000000    0.00000000
     atom   15 type  1   force =     0.00000000    0.00000000    0.00000000
     atom   16 type  1   force =     0.00000000    0.00000000    0.00000000
     atom   17 type  1   force =     0.00000000    0.00000000    0.00000000
     atom   18 type  1   force =     0.00000000    0.00000000    0.00000000
     atom   19 type  1   force =     0.00000000    0.00000000    0.00000000
     atom   20 type  1   force =     0.00000000    0.00000000    0.00000000
     atom   21 type  1   force =     0.00000000    0.00000000    0.00000000
     atom   22 type  1   force =     0.00000000    0.00000000    0.00000000
     atom   23 type  1   force =     0.00000000    0.00000000    0.00000000
     atom   24 type  1   force =     0.00000000    0.00000000    0.00000000
     atom   25 type  1   force =     0.00000000    0.00000000    0.00000000
     atom   26 type  1   force =     0.00000000    0.00000000    0.00000000
     atom   27 type  1   force =     0.00000000    0.00000000    0.00000000
     atom   28 type  1   force =     0.00000000    0.00000000    0.00000000
     atom   29 type  1   force =     0.00000000    0.00000000    0.00000000
     atom   30 type  1   force =     0.00000000    0.00000000    0.00000000
     atom   31 type  1   force =     0.00000000    0.00000000    0.00000000
     atom   32 type  1   force =     0.00000000    0.00000000    0.00000000
     atom   33 type  1   force =     0.00000000    0.00000000    0.00000000
     atom   34 type  1   force =     0.00000000    0.00000000    0.00000000
     atom   35 type  1   force =     0.00000000    0.00000000    0.00000000
     atom   36 type  1   force =     0.00000000    0.00000000    0.00000000
     The SCF correction term to forces
     atom    1 type  1   force =     0.00000001   -0.00000045    0.00000615
     atom    2 type  1   force =     0.00000001   -0.00000028    0.00000319
     atom    3 type  1   force =    -0.00000001    0.00000042    0.00000033
     atom    4 type  1   force =    -0.00000001   -0.00000009   -0.00000000
     atom    5 type  1   force =    -0.00000000   -0.00000001    0.00000008
     atom    6 type  1   force =     0.00000001   -0.00000002    0.00000015
     atom    7 type  1   force =     0.00000001   -0.00000004    0.00000011
     atom    8 type  1   force =     0.00000001   -0.00000025    0.00000120
     atom    9 type  1   force =     0.00000002   -0.00000086    0.00000103
     atom   10 type  1   force =     0.00000002    0.00000025   -0.00000112
     atom   11 type  1   force =     0.00000001    0.00000002   -0.00000001
     atom   12 type  1   force =     0.00000000    0.00000003   -0.00000003
     atom   13 type  1   force =    -0.00000000    0.00000002    0.00000006
     atom   14 type  1   force =     0.00000001    0.00000008    0.00000011
     atom   15 type  1   force =     0.00000003   -0.00000042   -0.00000027
     atom   16 type  1   force =     0.00000002    0.00000027   -0.00000317
     atom   17 type  1   force =    -0.00000000    0.00000045   -0.00000612
     atom   18 type  1   force =    -0.00000003    0.00000085   -0.00000101
     atom   19 type  1   force =    -0.00000001   -0.00000044    0.00000612
     atom   20 type  1   force =    -0.00000002   -0.00000027    0.00000319
     atom   21 type  1   force =    -0.00000003    0.00000043    0.00000033
     atom   22 type  1   force =    -0.00000002   -0.00000009    0.00000001
     atom   23 type  1   force =     0.00000001   -0.00000000    0.00000007
     atom   24 type  1   force =    -0.00000001   -0.00000001    0.00000016
     atom   25 type  1   force =    -0.00000001   -0.00000004    0.00000010
     atom   26 type  1   force =    -0.00000002   -0.00000024    0.00000117
     atom   27 type  1   force =     0.00000002   -0.00000085    0.00000104
     atom   28 type  1   force =    -0.00000001    0.00000026   -0.00000111
     atom   29 type  1   force =    -0.00000001    0.00000003   -0.00000000
     atom   30 type  1   force =    -0.00000002    0.00000004   -0.00000003
     atom   31 type  1   force =    -0.00000000    0.00000001    0.00000006
     atom   32 type  1   force =     0.00000002    0.00000008    0.00000009
     atom   33 type  1   force =     0.00000000   -0.00000042   -0.00000028
     atom   34 type  1   force =    -0.00000000    0.00000028   -0.00000316
     atom   35 type  1   force =    -0.00000002    0.00000047   -0.00000612
     atom   36 type  1   force =    -0.00000001    0.00000084   -0.00000102

     Total force =     0.001474     Total SCF correction =     0.000014
     Energy error            =      9.3E-06 Ry
     Gradient error          =      3.6E-04 Ry/Bohr

     bfgs converged in  36 scf cycles and  35 bfgs steps
     (criteria: energy <  1.0E-05 Ry, force <  3.9E-04 Ry/Bohr)

     End of BFGS Geometry Optimization

     Final energy             =    -541.4229390816 Ry

     File ./Li/Lithium.bfgs deleted, as requested
Begin final coordinates

ATOMIC_POSITIONS (angstrom)
Li               0.0001138205       -0.0724229712       29.6422064876
Li               2.4291058885        3.9869968387       20.6692632075
Li               2.4292618958        0.9213315465       21.8176594262
Li               4.8582428114        4.7742993163       22.9301245869
Li               4.8581016747        1.6497604053       23.9532900049
Li               2.4289834065        5.6997251958       25.2090231235
Li               2.4287822566        2.3961777567       26.2927673487
Li               4.8578762035        6.4629111224       27.5707931183
Li               4.8580712628        3.2697919075       28.8254989625
Li               2.4291890697        6.4918658460       22.2453287405
Li               2.4292627521        3.2715499040       23.5233538493
Li               4.8580779611        7.2550521060       24.6071318860
Li               4.8579905309        4.0179243309       25.8628488728
Li               4.8578448269        0.8934192543       26.8860385608
Li               2.4287739906        4.7463935110       27.9984778838
Li               2.4289492128        1.6807281243       29.1468081974
Li               4.8579402095        5.7401400084       20.1739143763
Li               4.8580212192        2.3979691936       20.9906180000
Li               4.8581451159       -0.0724371797       29.6422173827
Li               7.2871470664        3.9869934926       20.6692797377
Li               7.2873123792        0.9213324245       21.8176714185
Li               9.7162821187        4.7743027371       22.9301313947
Li               9.7161498375        1.6497640812       23.9532853999
Li               7.2870284889        5.6997348198       25.2090216828
Li               7.2868272854        2.3961738336       26.2927838826
Li               9.7159247700        6.4629126617       27.5707966780
Li               9.7161064057        3.2697699768       28.8254980991
Li               7.2872327438        6.4918676661       22.2453264571
Li               7.2873051069        3.2715550532       23.5233749256
Li               9.7161327076        7.2550470000       24.6071386284
Li               9.7160250048        4.0179263207       25.8628509098
Li               9.7158968636        0.8934128073       26.8860253602
Li               7.2868295962        4.7463916073       27.9984685116
Li               7.2869763445        1.6807211900       29.1468249424
Li               9.7159795531        5.7401455988       20.1739247110
Li               9.7160689735        2.3979767206       20.9906172024
End final coordinates



     Writing all to output data dir ./Li/Lithium.save/ :
     XML data file
     init_run     :     22.60s CPU     30.56s WALL (       1 calls)
     electrons    :  27516.81s CPU  33865.59s WALL (      36 calls)
     update_pot   :      6.03s CPU      7.08s WALL (      35 calls)
     forces       :   1039.68s CPU   1096.12s WALL (      36 calls)

     Called by init_run:
     wfcinit      :      3.10s CPU      4.09s WALL (       1 calls)
     wfcinit:wfcr :      2.77s CPU      3.74s WALL (      16 calls)
     potinit      :      0.95s CPU      1.02s WALL (       1 calls)
     hinit0       :      9.45s CPU     15.99s WALL (       1 calls)

     Called by electrons:
     c_bands      :  18496.81s CPU  23093.76s WALL (     695 calls)
     sum_band     :   1029.36s CPU   1348.40s WALL (     695 calls)
     v_of_rho     :     89.47s CPU    107.53s WALL (     697 calls)
     v_h          :      7.20s CPU      8.93s WALL (     697 calls)
     v_xc         :     82.24s CPU     98.57s WALL (     697 calls)
     newd         :     37.92s CPU     45.80s WALL (     697 calls)
     PAW_pot      :      6.78s CPU      9.18s WALL (     732 calls)
     mix_rho      :    211.51s CPU    264.93s WALL (     695 calls)

     Called by c_bands:
     init_us_2    :    280.15s CPU    281.70s WALL (   23392 calls)
     cegterg      :  17336.81s CPU  20401.05s WALL (   14776 calls)

     Called by sum_band:
     sum_band:wei :      1.30s CPU      1.47s WALL (     695 calls)
     sum_band:loo :    978.33s CPU   1289.46s WALL (     695 calls)
     sum_band:buf :     21.77s CPU     23.09s WALL (   11120 calls)
     sum_band:ini :    133.00s CPU    133.31s WALL (   11120 calls)
     sum_band:cal :    173.62s CPU    192.91s WALL (   11680 calls)
     sum_band:bec :      1.57s CPU      1.74s WALL (   11680 calls)
     addusdens    :     34.93s CPU     35.22s WALL (     695 calls)
                                        0.00s GPU  (     695 calls)
     addusd:skk   :      7.18s CPU      7.24s WALL (     695 calls)
                                        0.00s GPU  (     695 calls)

     Called by *egterg:
     cdiaghg      :   4939.39s CPU   5108.94s WALL (  212848 calls)
     cegterg:over :   1152.26s CPU   1251.95s WALL (  199515 calls)
     cegterg:upda :   1095.31s CPU   1110.93s WALL (  199515 calls)
     cegterg:last :    291.73s CPU    293.06s WALL (   17933 calls)
     h_psi        :   8298.15s CPU  11015.63s WALL (  214307 calls)
     s_psi        :   1108.65s CPU   1115.64s WALL (  214307 calls)
     g_psi        :     13.30s CPU     13.91s WALL (  199515 calls)

     Called by h_psi:
     h_psi:calbec :   1272.83s CPU   1440.08s WALL (  214307 calls)
     vloc_psi     :   5844.81s CPU   8373.78s WALL (  214307 calls)
                                        0.00s GPU  (  214307 calls)
     add_vuspsi   :   1138.00s CPU   1154.85s WALL (  214307 calls)

     General routines
     calbec       :   1475.46s CPU   1664.50s WALL (  228291 calls)
     fft          :     69.82s CPU    102.67s WALL (    9130 calls)
     ffts         :    110.26s CPU    145.78s WALL (   78267 calls)
     fftw         :   6144.63s CPU   8839.37s WALL ( 8952534 calls)
     interpolate  :      6.97s CPU      8.79s WALL (     697 calls)

     Parallel routines

     PAW routines
     PAW_pot      :      6.78s CPU      9.18s WALL (     732 calls)

     Environ routines

     PWSCF        :      8h 6m CPU      9h54m WALL


   This run was terminated on:   1:55:30   4Jan2025            

=------------------------------------------------------------------------------=
   JOB DONE.
=------------------------------------------------------------------------------=
