
     Program PWSCF v.7.4 starts on 26Dec2024 at  6: 7: 2 

     This program is part of the open-source Quantum ESPRESSO suite
     for quantum simulation of materials; please cite
         "P. Giannozzi et al., J. Phys.:Condens. Matter 21 395502 (2009);
         "P. Giannozzi et al., J. Phys.:Condens. Matter 29 465901 (2017);
         "P. Giannozzi et al., J. Chem. Phys. 152 154105 (2020);
          URL http://www.quantum-espresso.org", 
     in publications or presentations arising from this work. More details at
     http://www.quantum-espresso.org/quote

     Parallel version (MPI & OpenMP), running on     192 processor cores
     Number of MPI processes:               192
     Threads/MPI process:                     1

     MPI processes distributed on     1 nodes
     646103 MiB available memory on the printing compute node when the environment starts
 
     Reading input from espresso.pwi
Warning: card &CELL ignored
Warning: card    PRESS_CONV_THR   = 0.1 ignored
Warning: card    CELL_DOFREE      = 'ALL' ignored
Warning: card / ignored
Warning: card &FCP ignored
Warning: card / ignored
Warning: card &RISM ignored
Warning: card / ignored

     Current dimensions of program PWSCF are:
     Max number of different atomic species (ntypx) = 10
     Max number of k-points (npk) =  40000
     Max angular momentum in pseudopotentials (lmaxx) =  4

     IMPORTANT: XC functional enforced from input :
     Exchange-correlation= PBE
                           (   1   4   3   4   0   0   0)
     Any further DFT definition will be discarded
     Please, verify this is what you really want

 
     Reading input from environ.in:
     * using ionic solvent mode
     * setting boundary derivatives method to SSCS default
     * setting electrolyte-boundary derivatives method to SSCS default

Environ Warning (1001): card EOF ignored

     
     Found identity + (  0.5000 -0.0000 -0.0000) symmetry
     This is a supercell, fractional translations are disabled
 
     R & G space division:  proc/nbgrp/npool/nimage =     192
     Subspace diagonalization in iterative solution of the eigenvalue problem:
     a serial algorithm will be used

 
     Parallelization info
     --------------------
     sticks:   dense  smooth     PW     G-vecs:    dense   smooth      PW
     Min          62      25      6                33436     8439    1136
     Max          63      27      7                33505     8489    1207
     Sum       11999    4803   1285              6425037  1625491  225007
 
     Using Slab Decomposition
 


     bravais-lattice index     =            8
     lattice parameter (alat)  =      12.9830  a.u.
     unit-cell volume          =   16814.9384 (a.u.)^3
     number of atoms/cell      =           20
     number of atomic types    =            1
     number of electrons       =        60.00
     number of Kohn-Sham states=           45
     kinetic-energy cutoff     =      80.0000  Ry
     charge density cutoff     =     800.0000  Ry
     scf convergence threshold =      1.0E-14
     mixing beta               =       0.2000
     number of iterations used =            8  local-TF  mixing
     Exchange-correlation= PBE
                           (   1   4   3   4   0   0   0)

     ================================================================================
 
                                  Environ Setup Summary

     ================================================================================
 
     Please cite

          O. Andreussi, I. Dabo and N. Marzari, J. Chem. Phys. 136, 064102 (2012)
          F. Nattino, M. Truscott, N. Marzari, and O. Andreussi, J. Chem. Phys. 150, 041722 (2019)

     in publications or presentations arising from this work.

     ================================================================================
 
     Parameters
     ==========

     compensation onset threshold      =               0.1000E+00
     static permittivity               =                    89.90
     surface tension in input (dyn/cm) =                    37.30
     surface tension in internal units =               0.4792E-04

     Solvent Boundary
     ================

     solvent mode                      =                    ionic
     derivatives method                =                   lowmem
     electrolyte derivatives method    =                   lowmem
     numerical core for derivatives    =                      fft
     switching function adopted        =                     SCCS
     density limit for vacuum region   =               0.5000E-02
     density limit for bulk solvent    =               0.1000E-03
     soft-sphere radius mode           =                    bondi
     soft-sphere softness              =                     0.50
     alpha                             =                     1.32

     Electrostatic Setup
     ===================

     electrostatic problem to solve    =                    modpb
     numerical solver adopted          =                   newton
     type of auxiliary density adopted =                     none
     numerical core for poisson        =                      fft
     adopting a nested solver scheme
     inner solver                      =                       cg
     inner core                        =                      fft
     type of pbc corrections           =                parabolic
     numerical core for corrections    =                      1da

     ================================================================================
 

     celldm(1)=  12.983009  celldm(2)=   1.118034  celldm(3)=   6.872491
     celldm(4)=   0.000000  celldm(5)=   0.000000  celldm(6)=   0.000000

     crystal axes: (cart. coord. in units of alat)
               a(1) = (   1.000000   0.000000   0.000000 )  
               a(2) = (   0.000000   1.118034   0.000000 )  
               a(3) = (   0.000000   0.000000   6.872491 )  

     reciprocal axes: (cart. coord. in units 2 pi/alat)
               b(1) = (  1.000000  0.000000  0.000000 )  
               b(2) = (  0.000000  0.894427  0.000000 )  
               b(3) = (  0.000000  0.000000  0.145508 )  


     PseudoPot. # 1 for Li read from file:
     /home/ba3g18/Repos/Pseudopotentials/pslibrary.1.0.0/pbe/PSEUDOPOTENTIALS/Li.pbe-sl-kjpaw_psl.1.0.0.UPF
     MD5 check sum: 3f4d2cafebb47c6c3aa8ed472e6f074d
     Pseudo is Projector augmented-wave, Zval =  3.0
     Generated using 'atomic' code by A. Dal Corso  v.7.4
     Shape of augmentation charge: PSQ
     Using radial grid of 1017 points,  4 beta functions with: 
                l(1) =   0
                l(2) =   0
                l(3) =   1
                l(4) =   1
     Q(r) pseudized with 0 coefficients 


     atomic species   valence    mass     pseudopotential
     Li                3.00     6.94000     Li( 1.00)

      2 Sym. Ops. (no inversion) found


                                    s                        frac. trans.

      isym =  1     identity                                     

 cryst.   s( 1) = (     1          0          0      )
                  (     0          1          0      )
                  (     0          0          1      )

 cart.    s( 1) = (  1.0000000  0.0000000  0.0000000 )
                  (  0.0000000  1.0000000  0.0000000 )
                  (  0.0000000  0.0000000  1.0000000 )


      isym =  2     inv. 180 deg rotation - cart. axis [1,0,0]   

 cryst.   s( 2) = (    -1          0          0      )
                  (     0          1          0      )
                  (     0          0          1      )

 cart.    s( 2) = ( -1.0000000  0.0000000  0.0000000 )
                  (  0.0000000  1.0000000  0.0000000 )
                  (  0.0000000  0.0000000  1.0000000 )


     point group C_s (m)    
     there are  2 classes
     the character table:

       E     s    
A'     1.00  1.00
A''    1.00 -1.00

     the symmetry operations in each class and the name of the first element:

     E        1
          identity                                               
     s        2
          inv. 180 deg rotation - cart. axis [1,0,0]             

   Cartesian axes

     site n.     atom                  positions (alat units)
         1        Li     tau(   1) = (  -0.0000000   0.4547292   3.7086617  )
         2        Li     tau(   2) = (  -0.0000000   0.8914138   3.4987125  )
         3        Li     tau(   3) = (  -0.0000000   0.2262358   3.2707670  )
         4        Li     tau(   4) = (  -0.0000000   0.6419492   3.0386306  )
         5        Li     tau(   5) = (  -0.0000000   0.0704740   3.9477550  )
         6        Li     tau(   6) = (   0.2500000   0.5620329   3.3737787  )
         7        Li     tau(   7) = (   0.2499999   0.9987150   3.1638288  )
         8        Li     tau(   8) = (   0.2499999   0.2649328   2.9247322  )
         9        Li     tau(   9) = (   0.2500000   0.8114931   3.8338586  )
        10        Li     tau(  10) = (   0.2500002   0.1091766   3.6017224  )
        11        Li     tau(  11) = (   0.5000000   0.4547291   3.7086616  )
        12        Li     tau(  12) = (   0.5000000   0.8914136   3.4987123  )
        13        Li     tau(  13) = (   0.5000000   0.2262357   3.2707668  )
        14        Li     tau(  14) = (   0.5000000   0.6419493   3.0386301  )
        15        Li     tau(  15) = (   0.5000000   0.0704745   3.9477556  )
        16        Li     tau(  16) = (   0.7500000   0.5620329   3.3737787  )
        17        Li     tau(  17) = (   0.7500001   0.9987150   3.1638288  )
        18        Li     tau(  18) = (   0.7500000   0.2649328   2.9247322  )
        19        Li     tau(  19) = (   0.7499999   0.8114931   3.8338586  )
        20        Li     tau(  20) = (   0.7499998   0.1091766   3.6017224  )

   Crystallographic axes

     site n.     atom                  positions (cryst. coord.)
         1        Li     tau(   1) = ( -0.0000000  0.4067222  0.5396386  )
         2        Li     tau(   2) = ( -0.0000000  0.7973048  0.5090894  )
         3        Li     tau(   3) = ( -0.0000000  0.2023515  0.4759216  )
         4        Li     tau(   4) = ( -0.0000000  0.5741768  0.4421440  )
         5        Li     tau(   5) = ( -0.0000000  0.0630339  0.5744285  )
         6        Li     tau(   6) = (  0.2500000  0.5026975  0.4909106  )
         7        Li     tau(   7) = (  0.2499999  0.8932778  0.4603613  )
         8        Li     tau(   8) = (  0.2499999  0.2369631  0.4255709  )
         9        Li     tau(   9) = (  0.2500000  0.7258215  0.5578557  )
        10        Li     tau(  10) = (  0.2500002  0.0976505  0.5240781  )
        11        Li     tau(  11) = (  0.5000000  0.4067221  0.5396386  )
        12        Li     tau(  12) = (  0.5000000  0.7973046  0.5090894  )
        13        Li     tau(  13) = (  0.5000000  0.2023514  0.4759216  )
        14        Li     tau(  14) = (  0.5000000  0.5741769  0.4421439  )
        15        Li     tau(  15) = (  0.5000000  0.0630343  0.5744286  )
        16        Li     tau(  16) = (  0.7500000  0.5026975  0.4909106  )
        17        Li     tau(  17) = (  0.7500001  0.8932778  0.4603613  )
        18        Li     tau(  18) = (  0.7500000  0.2369631  0.4255709  )
        19        Li     tau(  19) = (  0.7499999  0.7258215  0.5578557  )
        20        Li     tau(  20) = (  0.7499998  0.0976505  0.5240781  )

     number of k points=    30  Marzari-Vanderbilt smearing, width (Ry)=  0.0100
                       cart. coord. in units 2pi/alat
        k(    1) = (   0.0000000   0.0000000   0.0000000), wk =   0.0222222
        k(    2) = (   0.0000000   0.0993808   0.0000000), wk =   0.0444444
        k(    3) = (   0.0000000   0.1987616   0.0000000), wk =   0.0444444
        k(    4) = (   0.0000000   0.2981424   0.0000000), wk =   0.0444444
        k(    5) = (   0.0000000   0.3975232   0.0000000), wk =   0.0444444
        k(    6) = (   0.1000000   0.0000000   0.0000000), wk =   0.0444444
        k(    7) = (   0.1000000   0.0993808   0.0000000), wk =   0.0888889
        k(    8) = (   0.1000000   0.1987616   0.0000000), wk =   0.0888889
        k(    9) = (   0.1000000   0.2981424   0.0000000), wk =   0.0888889
        k(   10) = (   0.1000000   0.3975232   0.0000000), wk =   0.0888889
        k(   11) = (   0.2000000   0.0000000   0.0000000), wk =   0.0444444
        k(   12) = (   0.2000000   0.0993808   0.0000000), wk =   0.0888889
        k(   13) = (   0.2000000   0.1987616   0.0000000), wk =   0.0888889
        k(   14) = (   0.2000000   0.2981424   0.0000000), wk =   0.0888889
        k(   15) = (   0.2000000   0.3975232   0.0000000), wk =   0.0888889
        k(   16) = (   0.3000000   0.0000000   0.0000000), wk =   0.0444444
        k(   17) = (   0.3000000   0.0993808   0.0000000), wk =   0.0888889
        k(   18) = (   0.3000000   0.1987616   0.0000000), wk =   0.0888889
        k(   19) = (   0.3000000   0.2981424   0.0000000), wk =   0.0888889
        k(   20) = (   0.3000000   0.3975232   0.0000000), wk =   0.0888889
        k(   21) = (   0.4000000   0.0000000   0.0000000), wk =   0.0444444
        k(   22) = (   0.4000000   0.0993808   0.0000000), wk =   0.0888889
        k(   23) = (   0.4000000   0.1987616   0.0000000), wk =   0.0888889
        k(   24) = (   0.4000000   0.2981424   0.0000000), wk =   0.0888889
        k(   25) = (   0.4000000   0.3975232   0.0000000), wk =   0.0888889
        k(   26) = (  -0.5000000   0.0000000   0.0000000), wk =   0.0222222
        k(   27) = (  -0.5000000   0.0993808   0.0000000), wk =   0.0444444
        k(   28) = (  -0.5000000   0.1987616   0.0000000), wk =   0.0444444
        k(   29) = (  -0.5000000   0.2981424   0.0000000), wk =   0.0444444
        k(   30) = (  -0.5000000   0.3975232   0.0000000), wk =   0.0444444

                       cryst. coord.
        k(    1) = (   0.0000000   0.0000000   0.0000000), wk =   0.0222222
        k(    2) = (   0.0000000   0.1111111   0.0000000), wk =   0.0444444
        k(    3) = (   0.0000000   0.2222222   0.0000000), wk =   0.0444444
        k(    4) = (   0.0000000   0.3333333   0.0000000), wk =   0.0444444
        k(    5) = (   0.0000000   0.4444444   0.0000000), wk =   0.0444444
        k(    6) = (   0.1000000   0.0000000   0.0000000), wk =   0.0444444
        k(    7) = (   0.1000000   0.1111111   0.0000000), wk =   0.0888889
        k(    8) = (   0.1000000   0.2222222   0.0000000), wk =   0.0888889
        k(    9) = (   0.1000000   0.3333333   0.0000000), wk =   0.0888889
        k(   10) = (   0.1000000   0.4444444   0.0000000), wk =   0.0888889
        k(   11) = (   0.2000000   0.0000000   0.0000000), wk =   0.0444444
        k(   12) = (   0.2000000   0.1111111   0.0000000), wk =   0.0888889
        k(   13) = (   0.2000000   0.2222222   0.0000000), wk =   0.0888889
        k(   14) = (   0.2000000   0.3333333   0.0000000), wk =   0.0888889
        k(   15) = (   0.2000000   0.4444444   0.0000000), wk =   0.0888889
        k(   16) = (   0.3000000   0.0000000   0.0000000), wk =   0.0444444
        k(   17) = (   0.3000000   0.1111111   0.0000000), wk =   0.0888889
        k(   18) = (   0.3000000   0.2222222   0.0000000), wk =   0.0888889
        k(   19) = (   0.3000000   0.3333333   0.0000000), wk =   0.0888889
        k(   20) = (   0.3000000   0.4444444   0.0000000), wk =   0.0888889
        k(   21) = (   0.4000000   0.0000000   0.0000000), wk =   0.0444444
        k(   22) = (   0.4000000   0.1111111   0.0000000), wk =   0.0888889
        k(   23) = (   0.4000000   0.2222222   0.0000000), wk =   0.0888889
        k(   24) = (   0.4000000   0.3333333   0.0000000), wk =   0.0888889
        k(   25) = (   0.4000000   0.4444444   0.0000000), wk =   0.0888889
        k(   26) = (  -0.5000000   0.0000000   0.0000000), wk =   0.0222222
        k(   27) = (  -0.5000000   0.1111111   0.0000000), wk =   0.0444444
        k(   28) = (  -0.5000000   0.2222222   0.0000000), wk =   0.0444444
        k(   29) = (  -0.5000000   0.3333333   0.0000000), wk =   0.0444444
        k(   30) = (  -0.5000000   0.4444444   0.0000000), wk =   0.0444444

     Dense  grid:  6425037 G-vectors     FFT dimensions: ( 120, 135, 810)

     Smooth grid:  1625491 G-vectors     FFT dimensions: (  75,  90, 512)

     Dynamical RAM for                 wfc:       0.73 MB

     Dynamical RAM for     wfc (w. buffer):      22.52 MB

     Dynamical RAM for           str. fact:       0.51 MB

     Dynamical RAM for           local pot:       0.00 MB

     Dynamical RAM for          nlocal pot:       2.58 MB

     Dynamical RAM for                qrad:       0.65 MB

     Dynamical RAM for          rho,v,vnew:       3.38 MB

     Dynamical RAM for               rhoin:       1.13 MB

     Dynamical RAM for            rho*nmix:       8.16 MB

     Dynamical RAM for           G-vectors:       1.98 MB

     Dynamical RAM for          h,s,v(r/c):       0.37 MB

     Dynamical RAM for          <psi|beta>:       0.11 MB

     Dynamical RAM for                 psi:       1.45 MB

     Dynamical RAM for                hpsi:       1.45 MB

     Dynamical RAM for                spsi:       1.45 MB

     Dynamical RAM for      wfcinit/wfcrot:       1.50 MB

     Dynamical RAM for           addusdens:      32.14 MB

     Dynamical RAM for          addusforce:      51.80 MB

     Estimated static dynamical RAM per process >      36.86 MB

     Estimated max dynamical RAM per process >      98.04 MB

     Estimated total dynamical RAM >      18.16 GB

     Initial potential from superposition of free atoms

     starting charge      59.9078, renormalised to      60.0000

     negative rho (up, down):  2.789E-03 0.000E+00
     Starting wfcs are random
     Checking if some PAW data can be deallocated... 

     total cpu time spent up to now is        7.9 secs

     Self-consistent Calculation

     iteration #  1     ecut=    80.00 Ry     beta= 0.20
     Davidson diagonalization with overlap

---- Real-time Memory Report at c_bands before calling an iterative solver
           460 MiB given to the printing process from OS
             0 MiB allocation reported by mallinfo(arena+hblkhd)
        615253 MiB available memory on the node where the printing process lives
------------------
     ethr =  1.00E-02,  avg # of iterations = 12.2

     negative rho (up, down):  9.823E-05 0.000E+00

     total cpu time spent up to now is       26.9 secs

     total energy              =    -299.74347320 Ry
     estimated scf accuracy    <       2.41774341 Ry
     electrostatic embedding   =       0.00000000 Ry
     cavitation energy         =       0.02212806 Ry
     electrolyte free energy   =       0.00723736 Ry
     correction to one-el term =       0.00000000 Ry

     iteration #  2     ecut=    80.00 Ry     beta= 0.20
     Davidson diagonalization with overlap

---- Real-time Memory Report at c_bands before calling an iterative solver
           460 MiB given to the printing process from OS
             0 MiB allocation reported by mallinfo(arena+hblkhd)
        616551 MiB available memory on the node where the printing process lives
------------------
     ethr =  4.03E-03,  avg # of iterations =  4.5

     negative rho (up, down):  1.228E-06 0.000E+00

     total cpu time spent up to now is       34.1 secs

     total energy              =    -300.09829864 Ry
     estimated scf accuracy    <       1.02695708 Ry
     electrostatic embedding   =       0.00000000 Ry
     cavitation energy         =       0.02212806 Ry
     electrolyte free energy   =       0.00723736 Ry
     correction to one-el term =       0.00000000 Ry

     iteration #  3     ecut=    80.00 Ry     beta= 0.20
     Davidson diagonalization with overlap

---- Real-time Memory Report at c_bands before calling an iterative solver
           460 MiB given to the printing process from OS
             0 MiB allocation reported by mallinfo(arena+hblkhd)
        616364 MiB available memory on the node where the printing process lives
------------------
     ethr =  1.71E-03,  avg # of iterations =  4.6

     negative rho (up, down):  4.304E-07 0.000E+00

     total cpu time spent up to now is       41.8 secs

     total energy              =    -300.49275264 Ry
     estimated scf accuracy    <       0.15888359 Ry
     electrostatic embedding   =       0.00000000 Ry
     cavitation energy         =       0.02212806 Ry
     electrolyte free energy   =       0.00723736 Ry
     correction to one-el term =       0.00000000 Ry

     iteration #  4     ecut=    80.00 Ry     beta= 0.20
     Davidson diagonalization with overlap

---- Real-time Memory Report at c_bands before calling an iterative solver
           460 MiB given to the printing process from OS
             0 MiB allocation reported by mallinfo(arena+hblkhd)
        616246 MiB available memory on the node where the printing process lives
------------------
     ethr =  2.65E-04,  avg # of iterations =  8.3

     negative rho (up, down):  9.679E-08 0.000E+00

     total cpu time spent up to now is       53.4 secs

     total energy              =    -300.64198628 Ry
     estimated scf accuracy    <       0.12634829 Ry
     electrostatic embedding   =       0.00000000 Ry
     cavitation energy         =       0.02212806 Ry
     electrolyte free energy   =       0.00723736 Ry
     correction to one-el term =       0.00000000 Ry

     iteration #  5     ecut=    80.00 Ry     beta= 0.20
     Davidson diagonalization with overlap

---- Real-time Memory Report at c_bands before calling an iterative solver
           469 MiB given to the printing process from OS
             0 MiB allocation reported by mallinfo(arena+hblkhd)
        616122 MiB available memory on the node where the printing process lives
------------------
     ethr =  2.11E-04,  avg # of iterations =  1.8

     negative rho (up, down):  1.821E-08 0.000E+00

     total cpu time spent up to now is       58.9 secs

     total energy              =    -300.62053479 Ry
     estimated scf accuracy    <       0.21067342 Ry
     electrostatic embedding   =       0.00000000 Ry
     cavitation energy         =       0.02212806 Ry
     electrolyte free energy   =       0.00723736 Ry
     correction to one-el term =       0.00000000 Ry

     iteration #  6     ecut=    80.00 Ry     beta= 0.20
     Davidson diagonalization with overlap

---- Real-time Memory Report at c_bands before calling an iterative solver
           478 MiB given to the printing process from OS
             0 MiB allocation reported by mallinfo(arena+hblkhd)
        616045 MiB available memory on the node where the printing process lives
------------------
     ethr =  2.11E-04,  avg # of iterations =  2.7

     add environment contribution to local potential

     total cpu time spent up to now is       67.1 secs

     total energy              =    -300.62102732 Ry
     estimated scf accuracy    <       0.06896267 Ry
     electrostatic embedding   =       0.00000000 Ry
     cavitation energy         =       0.02212806 Ry
     electrolyte free energy   =       0.00723736 Ry
     correction to one-el term =       0.00000000 Ry

     iteration #  7     ecut=    80.00 Ry     beta= 0.20
     Davidson diagonalization with overlap

---- Real-time Memory Report at c_bands before calling an iterative solver
           491 MiB given to the printing process from OS
             0 MiB allocation reported by mallinfo(arena+hblkhd)
        615810 MiB available memory on the node where the printing process lives
------------------
     c_bands:  1 eigenvalues not converged
     c_bands:  1 eigenvalues not converged
     c_bands:  1 eigenvalues not converged
     c_bands:  1 eigenvalues not converged
     ethr =  1.15E-04,  avg # of iterations = 14.5

     add environment contribution to local potential

     total cpu time spent up to now is       80.2 secs

     total energy              =    -300.63239918 Ry
     estimated scf accuracy    <       0.03014779 Ry
     electrostatic embedding   =      -0.04484109 Ry
     cavitation energy         =       0.02212806 Ry
     electrolyte free energy   =      -0.00158306 Ry
     correction to one-el term =      -5.21301705 Ry

     iteration #  8     ecut=    80.00 Ry     beta= 0.20
     Davidson diagonalization with overlap

---- Real-time Memory Report at c_bands before calling an iterative solver
           502 MiB given to the printing process from OS
             0 MiB allocation reported by mallinfo(arena+hblkhd)
        615697 MiB available memory on the node where the printing process lives
------------------
     ethr =  5.02E-05,  avg # of iterations =  4.4

     negative rho (up, down):  9.336E-04 0.000E+00

     add environment contribution to local potential

     total cpu time spent up to now is       89.2 secs

     total energy              =    -300.63348759 Ry
     estimated scf accuracy    <       0.04220707 Ry
     electrostatic embedding   =      -0.03754361 Ry
     cavitation energy         =       0.02212806 Ry
     electrolyte free energy   =      -0.00207687 Ry
     correction to one-el term =      -4.53234952 Ry

     iteration #  9     ecut=    80.00 Ry     beta= 0.20
     Davidson diagonalization with overlap

---- Real-time Memory Report at c_bands before calling an iterative solver
           511 MiB given to the printing process from OS
             0 MiB allocation reported by mallinfo(arena+hblkhd)
        615613 MiB available memory on the node where the printing process lives
------------------
     ethr =  5.02E-05,  avg # of iterations =  9.1

     negative rho (up, down):  7.573E-08 0.000E+00

     total cpu time spent up to now is       97.3 secs

     total energy              =    -300.68556567 Ry
     estimated scf accuracy    <       0.12290441 Ry
     electrostatic embedding   =      -0.02905093 Ry
     cavitation energy         =       0.02212806 Ry
     electrolyte free energy   =      -0.00214433 Ry
     correction to one-el term =      -3.12654725 Ry

     iteration # 10     ecut=    80.00 Ry     beta= 0.20
     Davidson diagonalization with overlap

---- Real-time Memory Report at c_bands before calling an iterative solver
           519 MiB given to the printing process from OS
             0 MiB allocation reported by mallinfo(arena+hblkhd)
        615558 MiB available memory on the node where the printing process lives
------------------
     ethr =  5.02E-05,  avg # of iterations =  7.1

     total cpu time spent up to now is      104.9 secs

     total energy              =    -300.68063137 Ry
     estimated scf accuracy    <       0.50752067 Ry
     electrostatic embedding   =      -0.02720491 Ry
     cavitation energy         =       0.02212806 Ry
     electrolyte free energy   =      -0.00214433 Ry
     correction to one-el term =      -3.13023930 Ry

     iteration # 11     ecut=    80.00 Ry     beta= 0.20
     Davidson diagonalization with overlap

---- Real-time Memory Report at c_bands before calling an iterative solver
           524 MiB given to the printing process from OS
             0 MiB allocation reported by mallinfo(arena+hblkhd)
        615492 MiB available memory on the node where the printing process lives
------------------
     ethr =  5.02E-05,  avg # of iterations =  1.1

     negative rho (up, down):  1.381E-02 0.000E+00

     total cpu time spent up to now is      110.0 secs

     total energy              =    -300.65788224 Ry
     estimated scf accuracy    <       0.36251728 Ry
     electrostatic embedding   =      -0.02792482 Ry
     cavitation energy         =       0.02212806 Ry
     electrolyte free energy   =      -0.00214433 Ry
     correction to one-el term =      -3.12879948 Ry

     iteration # 12     ecut=    80.00 Ry     beta= 0.20
     Davidson diagonalization with overlap

---- Real-time Memory Report at c_bands before calling an iterative solver
           530 MiB given to the printing process from OS
             0 MiB allocation reported by mallinfo(arena+hblkhd)
        615447 MiB available memory on the node where the printing process lives
------------------
     ethr =  5.02E-05,  avg # of iterations =  4.9

     negative rho (up, down):  1.099E-03 0.000E+00

     total cpu time spent up to now is      116.2 secs

     total energy              =    -300.63859753 Ry
     estimated scf accuracy    <       0.21272614 Ry
     electrostatic embedding   =      -0.02801867 Ry
     cavitation energy         =       0.02212806 Ry
     electrolyte free energy   =      -0.00214433 Ry
     correction to one-el term =      -3.12861176 Ry

     iteration # 13     ecut=    80.00 Ry     beta= 0.20
     Davidson diagonalization with overlap

---- Real-time Memory Report at c_bands before calling an iterative solver
           540 MiB given to the printing process from OS
             0 MiB allocation reported by mallinfo(arena+hblkhd)
        615399 MiB available memory on the node where the printing process lives
------------------
     ethr =  5.02E-05,  avg # of iterations =  4.5

     negative rho (up, down):  2.899E-02 0.000E+00

     add environment contribution to local potential

     total cpu time spent up to now is      125.2 secs

     total energy              =    -300.64309429 Ry
     estimated scf accuracy    <       0.06648439 Ry
     electrostatic embedding   =      -0.02862659 Ry
     cavitation energy         =       0.02212806 Ry
     electrolyte free energy   =      -0.00214433 Ry
     correction to one-el term =      -3.12739593 Ry

     iteration # 14     ecut=    80.00 Ry     beta= 0.20
     Davidson diagonalization with overlap

---- Real-time Memory Report at c_bands before calling an iterative solver
           548 MiB given to the printing process from OS
             0 MiB allocation reported by mallinfo(arena+hblkhd)
        615332 MiB available memory on the node where the printing process lives
------------------
     ethr =  5.02E-05,  avg # of iterations =  6.5

     negative rho (up, down):  4.660E-02 0.000E+00

     add environment contribution to local potential

     total cpu time spent up to now is      134.6 secs

     total energy              =    -300.63855678 Ry
     estimated scf accuracy    <       0.08826890 Ry
     electrostatic embedding   =      -0.02735668 Ry
     cavitation energy         =       0.02212806 Ry
     electrolyte free energy   =      -0.00226366 Ry
     correction to one-el term =      -1.48550731 Ry

     iteration # 15     ecut=    80.00 Ry     beta= 0.20
     Davidson diagonalization with overlap

---- Real-time Memory Report at c_bands before calling an iterative solver
           555 MiB given to the printing process from OS
             0 MiB allocation reported by mallinfo(arena+hblkhd)
        615244 MiB available memory on the node where the printing process lives
------------------
     ethr =  5.02E-05,  avg # of iterations =  1.9

     negative rho (up, down):  3.773E-02 0.000E+00

     add environment contribution to local potential

     total cpu time spent up to now is      142.8 secs

     total energy              =    -300.64173696 Ry
     estimated scf accuracy    <       0.03086886 Ry
     electrostatic embedding   =      -0.02922402 Ry
     cavitation energy         =       0.02212806 Ry
     electrolyte free energy   =      -0.00189172 Ry
     correction to one-el term =      -1.34887195 Ry

     iteration # 16     ecut=    80.00 Ry     beta= 0.20
     Davidson diagonalization with overlap

---- Real-time Memory Report at c_bands before calling an iterative solver
           562 MiB given to the printing process from OS
             0 MiB allocation reported by mallinfo(arena+hblkhd)
        615193 MiB available memory on the node where the printing process lives
------------------
     ethr =  5.02E-05,  avg # of iterations =  1.4

     negative rho (up, down):  5.186E-02 0.000E+00

     add environment contribution to local potential

     total cpu time spent up to now is      151.0 secs

     total energy              =    -300.63780511 Ry
     estimated scf accuracy    <       0.03012294 Ry
     electrostatic embedding   =      -0.02919935 Ry
     cavitation energy         =       0.02212806 Ry
     electrolyte free energy   =      -0.00191183 Ry
     correction to one-el term =      -0.96616830 Ry

     iteration # 17     ecut=    80.00 Ry     beta= 0.20
     Davidson diagonalization with overlap

---- Real-time Memory Report at c_bands before calling an iterative solver
           568 MiB given to the printing process from OS
             0 MiB allocation reported by mallinfo(arena+hblkhd)
        615155 MiB available memory on the node where the printing process lives
------------------
     ethr =  5.02E-05,  avg # of iterations =  4.7

     negative rho (up, down):  5.357E-02 0.000E+00

     add environment contribution to local potential

     total cpu time spent up to now is      159.7 secs

     total energy              =    -300.63868906 Ry
     estimated scf accuracy    <       0.01367914 Ry
     electrostatic embedding   =      -0.03095869 Ry
     cavitation energy         =       0.02212806 Ry
     electrolyte free energy   =      -0.00166409 Ry
     correction to one-el term =       0.05549327 Ry

     iteration # 18     ecut=    80.00 Ry     beta= 0.20
     Davidson diagonalization with overlap

---- Real-time Memory Report at c_bands before calling an iterative solver
           574 MiB given to the printing process from OS
             0 MiB allocation reported by mallinfo(arena+hblkhd)
        615113 MiB available memory on the node where the printing process lives
------------------
     ethr =  2.28E-05,  avg # of iterations =  6.8

     negative rho (up, down):  4.789E-02 0.000E+00

     add environment contribution to local potential

     total cpu time spent up to now is      169.2 secs

     total energy              =    -300.64013324 Ry
     estimated scf accuracy    <       0.00334099 Ry
     electrostatic embedding   =      -0.03356185 Ry
     cavitation energy         =       0.02212806 Ry
     electrolyte free energy   =      -0.00143472 Ry
     correction to one-el term =       0.41713027 Ry

     iteration # 19     ecut=    80.00 Ry     beta= 0.20
     Davidson diagonalization with overlap

---- Real-time Memory Report at c_bands before calling an iterative solver
           581 MiB given to the printing process from OS
             0 MiB allocation reported by mallinfo(arena+hblkhd)
        615087 MiB available memory on the node where the printing process lives
------------------
     c_bands:  1 eigenvalues not converged
     c_bands:  1 eigenvalues not converged
     c_bands:  1 eigenvalues not converged
     c_bands:  2 eigenvalues not converged
     c_bands:  1 eigenvalues not converged
     c_bands:  1 eigenvalues not converged
     ethr =  5.57E-06,  avg # of iterations = 10.2

     negative rho (up, down):  2.529E-02 0.000E+00

     add environment contribution to local potential

     total cpu time spent up to now is      180.4 secs

     total energy              =    -300.63973503 Ry
     estimated scf accuracy    <       0.00238748 Ry
     electrostatic embedding   =      -0.03527618 Ry
     cavitation energy         =       0.02212806 Ry
     electrolyte free energy   =      -0.00140072 Ry
     correction to one-el term =       0.66503768 Ry

     iteration # 20     ecut=    80.00 Ry     beta= 0.20
     Davidson diagonalization with overlap

---- Real-time Memory Report at c_bands before calling an iterative solver
           585 MiB given to the printing process from OS
             0 MiB allocation reported by mallinfo(arena+hblkhd)
        615049 MiB available memory on the node where the printing process lives
------------------
     c_bands:  1 eigenvalues not converged
     c_bands:  1 eigenvalues not converged
     ethr =  3.98E-06,  avg # of iterations = 10.1

     negative rho (up, down):  4.245E-02 0.000E+00

     add environment contribution to local potential

     total cpu time spent up to now is      191.5 secs

     total energy              =    -300.63964674 Ry
     estimated scf accuracy    <       0.00991763 Ry
     electrostatic embedding   =      -0.03459932 Ry
     cavitation energy         =       0.02212806 Ry
     electrolyte free energy   =      -0.00175823 Ry
     correction to one-el term =       0.99459669 Ry

     iteration # 21     ecut=    80.00 Ry     beta= 0.20
     Davidson diagonalization with overlap

---- Real-time Memory Report at c_bands before calling an iterative solver
           590 MiB given to the printing process from OS
             0 MiB allocation reported by mallinfo(arena+hblkhd)
        615021 MiB available memory on the node where the printing process lives
------------------
     ethr =  3.98E-06,  avg # of iterations =  6.1

     negative rho (up, down):  3.392E-02 0.000E+00

     add environment contribution to local potential

     total cpu time spent up to now is      201.3 secs

     total energy              =    -300.64050618 Ry
     estimated scf accuracy    <       0.00261486 Ry
     electrostatic embedding   =      -0.03871412 Ry
     cavitation energy         =       0.02212806 Ry
     electrolyte free energy   =      -0.00173951 Ry
     correction to one-el term =       1.86195646 Ry

     iteration # 22     ecut=    80.00 Ry     beta= 0.20
     Davidson diagonalization with overlap

---- Real-time Memory Report at c_bands before calling an iterative solver
           595 MiB given to the printing process from OS
             0 MiB allocation reported by mallinfo(arena+hblkhd)
        614994 MiB available memory on the node where the printing process lives
------------------
     ethr =  3.98E-06,  avg # of iterations =  4.0

     negative rho (up, down):  3.098E-02 0.000E+00

     add environment contribution to local potential

     total cpu time spent up to now is      210.2 secs

     total energy              =    -300.64072673 Ry
     estimated scf accuracy    <       0.00075634 Ry
     electrostatic embedding   =      -0.03817895 Ry
     cavitation energy         =       0.02212806 Ry
     electrolyte free energy   =      -0.00162906 Ry
     correction to one-el term =       1.80040706 Ry

     iteration # 23     ecut=    80.00 Ry     beta= 0.20
     Davidson diagonalization with overlap

---- Real-time Memory Report at c_bands before calling an iterative solver
           600 MiB given to the printing process from OS
             0 MiB allocation reported by mallinfo(arena+hblkhd)
        614966 MiB available memory on the node where the printing process lives
------------------
     c_bands:  1 eigenvalues not converged
     ethr =  1.26E-06,  avg # of iterations =  7.0

     negative rho (up, down):  1.320E-02 0.000E+00

     add environment contribution to local potential

     total cpu time spent up to now is      219.7 secs

     total energy              =    -300.64075015 Ry
     estimated scf accuracy    <       0.00095285 Ry
     electrostatic embedding   =      -0.03734172 Ry
     cavitation energy         =       0.02212806 Ry
     electrolyte free energy   =      -0.00163745 Ry
     correction to one-el term =       2.03359464 Ry

     iteration # 24     ecut=    80.00 Ry     beta= 0.20
     Davidson diagonalization with overlap

---- Real-time Memory Report at c_bands before calling an iterative solver
           604 MiB given to the printing process from OS
             0 MiB allocation reported by mallinfo(arena+hblkhd)
        614943 MiB available memory on the node where the printing process lives
------------------
     c_bands:  1 eigenvalues not converged
     c_bands:  1 eigenvalues not converged
     ethr =  1.26E-06,  avg # of iterations = 10.6

     negative rho (up, down):  1.463E-02 0.000E+00

     add environment contribution to local potential

     total cpu time spent up to now is      230.9 secs

     total energy              =    -300.64121892 Ry
     estimated scf accuracy    <       0.00069711 Ry
     electrostatic embedding   =      -0.03688353 Ry
     cavitation energy         =       0.02212806 Ry
     electrolyte free energy   =      -0.00151975 Ry
     correction to one-el term =       2.13628465 Ry

     iteration # 25     ecut=    80.00 Ry     beta= 0.20
     Davidson diagonalization with overlap

---- Real-time Memory Report at c_bands before calling an iterative solver
           608 MiB given to the printing process from OS
             0 MiB allocation reported by mallinfo(arena+hblkhd)
        614910 MiB available memory on the node where the printing process lives
------------------
     c_bands:  1 eigenvalues not converged
     ethr =  1.16E-06,  avg # of iterations =  8.2

     negative rho (up, down):  9.305E-03 0.000E+00

     add environment contribution to local potential

     total cpu time spent up to now is      240.6 secs

     total energy              =    -300.64138234 Ry
     estimated scf accuracy    <       0.00011424 Ry
     electrostatic embedding   =      -0.03732847 Ry
     cavitation energy         =       0.02212806 Ry
     electrolyte free energy   =      -0.00158601 Ry
     correction to one-el term =       2.48518905 Ry

     iteration # 26     ecut=    80.00 Ry     beta= 0.20
     Davidson diagonalization with overlap

---- Real-time Memory Report at c_bands before calling an iterative solver
           613 MiB given to the printing process from OS
             0 MiB allocation reported by mallinfo(arena+hblkhd)
        614878 MiB available memory on the node where the printing process lives
------------------
     c_bands:  1 eigenvalues not converged
     c_bands:  2 eigenvalues not converged
     ethr =  1.90E-07,  avg # of iterations = 10.1

     negative rho (up, down):  6.185E-03 0.000E+00

     add environment contribution to local potential

     total cpu time spent up to now is      251.6 secs

     total energy              =    -300.64141220 Ry
     estimated scf accuracy    <       0.00027925 Ry
     electrostatic embedding   =      -0.03675166 Ry
     cavitation energy         =       0.02212806 Ry
     electrolyte free energy   =      -0.00162103 Ry
     correction to one-el term =       2.58512711 Ry

     iteration # 27     ecut=    80.00 Ry     beta= 0.20
     Davidson diagonalization with overlap

---- Real-time Memory Report at c_bands before calling an iterative solver
           617 MiB given to the printing process from OS
             0 MiB allocation reported by mallinfo(arena+hblkhd)
        614865 MiB available memory on the node where the printing process lives
------------------
     c_bands:  1 eigenvalues not converged
     c_bands:  1 eigenvalues not converged
     c_bands:  1 eigenvalues not converged
     c_bands:  1 eigenvalues not converged
     ethr =  1.90E-07,  avg # of iterations = 12.1

     negative rho (up, down):  4.519E-03 0.000E+00

     add environment contribution to local potential

     total cpu time spent up to now is      262.5 secs

     total energy              =    -300.64144466 Ry
     estimated scf accuracy    <       0.00001543 Ry
     electrostatic embedding   =      -0.03664179 Ry
     cavitation energy         =       0.02212806 Ry
     electrolyte free energy   =      -0.00158910 Ry
     correction to one-el term =       2.61006159 Ry

     iteration # 28     ecut=    80.00 Ry     beta= 0.20
     Davidson diagonalization with overlap

---- Real-time Memory Report at c_bands before calling an iterative solver
           620 MiB given to the printing process from OS
             0 MiB allocation reported by mallinfo(arena+hblkhd)
        614846 MiB available memory on the node where the printing process lives
------------------
     c_bands:  1 eigenvalues not converged
     c_bands:  1 eigenvalues not converged
     ethr =  2.57E-08,  avg # of iterations =  5.0

     negative rho (up, down):  2.514E-03 0.000E+00

     add environment contribution to local potential

     total cpu time spent up to now is      271.7 secs

     total energy              =    -300.64143449 Ry
     estimated scf accuracy    <       0.00001160 Ry
     electrostatic embedding   =      -0.03662673 Ry
     cavitation energy         =       0.02212806 Ry
     electrolyte free energy   =      -0.00158224 Ry
     correction to one-el term =       2.61380346 Ry

     iteration # 29     ecut=    80.00 Ry     beta= 0.20
     Davidson diagonalization with overlap

---- Real-time Memory Report at c_bands before calling an iterative solver
           626 MiB given to the printing process from OS
             0 MiB allocation reported by mallinfo(arena+hblkhd)
        614834 MiB available memory on the node where the printing process lives
------------------
     c_bands:  1 eigenvalues not converged
     c_bands:  1 eigenvalues not converged
     ethr =  1.93E-08,  avg # of iterations =  9.6

     negative rho (up, down):  2.590E-03 0.000E+00

     add environment contribution to local potential

     total cpu time spent up to now is      281.8 secs

     total energy              =    -300.64143892 Ry
     estimated scf accuracy    <       0.00000533 Ry
     electrostatic embedding   =      -0.03641775 Ry
     cavitation energy         =       0.02212806 Ry
     electrolyte free energy   =      -0.00157160 Ry
     correction to one-el term =       2.62512052 Ry

     iteration # 30     ecut=    80.00 Ry     beta= 0.20
     Davidson diagonalization with overlap

---- Real-time Memory Report at c_bands before calling an iterative solver
           630 MiB given to the printing process from OS
             0 MiB allocation reported by mallinfo(arena+hblkhd)
        614807 MiB available memory on the node where the printing process lives
------------------
     c_bands:  1 eigenvalues not converged
     ethr =  8.89E-09,  avg # of iterations =  4.1

     negative rho (up, down):  1.776E-03 0.000E+00

     add environment contribution to local potential

     total cpu time spent up to now is      290.8 secs

     total energy              =    -300.64143802 Ry
     estimated scf accuracy    <       0.00000372 Ry
     electrostatic embedding   =      -0.03635742 Ry
     cavitation energy         =       0.02212806 Ry
     electrolyte free energy   =      -0.00156814 Ry
     correction to one-el term =       2.64408897 Ry

     iteration # 31     ecut=    80.00 Ry     beta= 0.20
     Davidson diagonalization with overlap

---- Real-time Memory Report at c_bands before calling an iterative solver
           633 MiB given to the printing process from OS
             0 MiB allocation reported by mallinfo(arena+hblkhd)
        614785 MiB available memory on the node where the printing process lives
------------------
     ethr =  6.19E-09,  avg # of iterations =  6.8

     negative rho (up, down):  1.308E-03 0.000E+00

     add environment contribution to local potential

     total cpu time spent up to now is      300.6 secs

     total energy              =    -300.64143549 Ry
     estimated scf accuracy    <       0.00000178 Ry
     electrostatic embedding   =      -0.03632609 Ry
     cavitation energy         =       0.02212806 Ry
     electrolyte free energy   =      -0.00156796 Ry
     correction to one-el term =       2.66471261 Ry

     iteration # 32     ecut=    80.00 Ry     beta= 0.20
     Davidson diagonalization with overlap

---- Real-time Memory Report at c_bands before calling an iterative solver
           635 MiB given to the printing process from OS
             0 MiB allocation reported by mallinfo(arena+hblkhd)
        614763 MiB available memory on the node where the printing process lives
------------------
     c_bands:  1 eigenvalues not converged
     ethr =  2.97E-09,  avg # of iterations =  4.5

     negative rho (up, down):  6.572E-04 0.000E+00

     add environment contribution to local potential

     total cpu time spent up to now is      309.6 secs

     total energy              =    -300.64142936 Ry
     estimated scf accuracy    <       0.00000137 Ry
     electrostatic embedding   =      -0.03631396 Ry
     cavitation energy         =       0.02212806 Ry
     electrolyte free energy   =      -0.00156756 Ry
     correction to one-el term =       2.66026039 Ry

     iteration # 33     ecut=    80.00 Ry     beta= 0.20
     Davidson diagonalization with overlap

---- Real-time Memory Report at c_bands before calling an iterative solver
           639 MiB given to the printing process from OS
             0 MiB allocation reported by mallinfo(arena+hblkhd)
        614748 MiB available memory on the node where the printing process lives
------------------
     c_bands:  1 eigenvalues not converged
     c_bands:  1 eigenvalues not converged
     ethr =  2.28E-09,  avg # of iterations =  7.4

     negative rho (up, down):  5.439E-04 0.000E+00

     add environment contribution to local potential

     total cpu time spent up to now is      319.6 secs

     total energy              =    -300.64143180 Ry
     estimated scf accuracy    <       0.00000059 Ry
     electrostatic embedding   =      -0.03620588 Ry
     cavitation energy         =       0.02212806 Ry
     electrolyte free energy   =      -0.00156543 Ry
     correction to one-el term =       2.64539528 Ry

     iteration # 34     ecut=    80.00 Ry     beta= 0.20
     Davidson diagonalization with overlap

---- Real-time Memory Report at c_bands before calling an iterative solver
           642 MiB given to the printing process from OS
             0 MiB allocation reported by mallinfo(arena+hblkhd)
        614735 MiB available memory on the node where the printing process lives
------------------
     ethr =  9.91E-10,  avg # of iterations =  4.1

     negative rho (up, down):  5.064E-04 0.000E+00

     add environment contribution to local potential

     total cpu time spent up to now is      328.8 secs

     total energy              =    -300.64143045 Ry
     estimated scf accuracy    <       0.00000038 Ry
     electrostatic embedding   =      -0.03613724 Ry
     cavitation energy         =       0.02212806 Ry
     electrolyte free energy   =      -0.00156426 Ry
     correction to one-el term =       2.64158549 Ry

     iteration # 35     ecut=    80.00 Ry     beta= 0.20
     Davidson diagonalization with overlap

---- Real-time Memory Report at c_bands before calling an iterative solver
           645 MiB given to the printing process from OS
             0 MiB allocation reported by mallinfo(arena+hblkhd)
        614720 MiB available memory on the node where the printing process lives
------------------
     ethr =  6.33E-10,  avg # of iterations =  2.6

     negative rho (up, down):  4.242E-04 0.000E+00

     add environment contribution to local potential

     total cpu time spent up to now is      337.4 secs

     total energy              =    -300.64143029 Ry
     estimated scf accuracy    <       0.00000022 Ry
     electrostatic embedding   =      -0.03610791 Ry
     cavitation energy         =       0.02212806 Ry
     electrolyte free energy   =      -0.00156498 Ry
     correction to one-el term =       2.63557891 Ry

     iteration # 36     ecut=    80.00 Ry     beta= 0.20
     Davidson diagonalization with overlap

---- Real-time Memory Report at c_bands before calling an iterative solver
           649 MiB given to the printing process from OS
             0 MiB allocation reported by mallinfo(arena+hblkhd)
        614706 MiB available memory on the node where the printing process lives
------------------
     ethr =  3.62E-10,  avg # of iterations =  3.5

     negative rho (up, down):  4.078E-04 0.000E+00

     add environment contribution to local potential

     total cpu time spent up to now is      346.7 secs

     total energy              =    -300.64143009 Ry
     estimated scf accuracy    <       0.00000014 Ry
     electrostatic embedding   =      -0.03608675 Ry
     cavitation energy         =       0.02212806 Ry
     electrolyte free energy   =      -0.00156544 Ry
     correction to one-el term =       2.62777578 Ry

     iteration # 37     ecut=    80.00 Ry     beta= 0.20
     Davidson diagonalization with overlap

---- Real-time Memory Report at c_bands before calling an iterative solver
           651 MiB given to the printing process from OS
             0 MiB allocation reported by mallinfo(arena+hblkhd)
        614673 MiB available memory on the node where the printing process lives
------------------
     ethr =  2.39E-10,  avg # of iterations =  2.0

     negative rho (up, down):  4.440E-04 0.000E+00

     add environment contribution to local potential

     total cpu time spent up to now is      355.2 secs

     total energy              =    -300.64142992 Ry
     estimated scf accuracy    <       0.00000012 Ry
     electrostatic embedding   =      -0.03607514 Ry
     cavitation energy         =       0.02212806 Ry
     electrolyte free energy   =      -0.00156558 Ry
     correction to one-el term =       2.62427255 Ry

     iteration # 38     ecut=    80.00 Ry     beta= 0.20
     Davidson diagonalization with overlap

---- Real-time Memory Report at c_bands before calling an iterative solver
           655 MiB given to the printing process from OS
             0 MiB allocation reported by mallinfo(arena+hblkhd)
        614664 MiB available memory on the node where the printing process lives
------------------
     ethr =  1.93E-10,  avg # of iterations =  4.1

     negative rho (up, down):  4.333E-04 0.000E+00

     add environment contribution to local potential

     total cpu time spent up to now is      364.4 secs

     total energy              =    -300.64142979 Ry
     estimated scf accuracy    <       0.00000007 Ry
     electrostatic embedding   =      -0.03609662 Ry
     cavitation energy         =       0.02212806 Ry
     electrolyte free energy   =      -0.00156574 Ry
     correction to one-el term =       2.62209125 Ry

     iteration # 39     ecut=    80.00 Ry     beta= 0.20
     Davidson diagonalization with overlap

---- Real-time Memory Report at c_bands before calling an iterative solver
           659 MiB given to the printing process from OS
             0 MiB allocation reported by mallinfo(arena+hblkhd)
        614658 MiB available memory on the node where the printing process lives
------------------
     ethr =  1.10E-10,  avg # of iterations =  2.0

     negative rho (up, down):  3.857E-04 0.000E+00

     add environment contribution to local potential

     total cpu time spent up to now is      372.9 secs

     total energy              =    -300.64142964 Ry
     estimated scf accuracy    <       0.00000005 Ry
     electrostatic embedding   =      -0.03608008 Ry
     cavitation energy         =       0.02212806 Ry
     electrolyte free energy   =      -0.00156543 Ry
     correction to one-el term =       2.61880761 Ry

     iteration # 40     ecut=    80.00 Ry     beta= 0.20
     Davidson diagonalization with overlap

---- Real-time Memory Report at c_bands before calling an iterative solver
           661 MiB given to the printing process from OS
             0 MiB allocation reported by mallinfo(arena+hblkhd)
        614636 MiB available memory on the node where the printing process lives
------------------
     ethr =  8.03E-11,  avg # of iterations =  2.9

     negative rho (up, down):  3.763E-04 0.000E+00

     add environment contribution to local potential

     total cpu time spent up to now is      381.8 secs

     total energy              =    -300.64142970 Ry
     estimated scf accuracy    <       0.00000003 Ry
     electrostatic embedding   =      -0.03606897 Ry
     cavitation energy         =       0.02212806 Ry
     electrolyte free energy   =      -0.00156502 Ry
     correction to one-el term =       2.61911747 Ry

     iteration # 41     ecut=    80.00 Ry     beta= 0.20
     Davidson diagonalization with overlap

---- Real-time Memory Report at c_bands before calling an iterative solver
           664 MiB given to the printing process from OS
             0 MiB allocation reported by mallinfo(arena+hblkhd)
        614628 MiB available memory on the node where the printing process lives
------------------
     ethr =  4.60E-11,  avg # of iterations =  2.0

     negative rho (up, down):  3.084E-04 0.000E+00

     add environment contribution to local potential

     total cpu time spent up to now is      390.3 secs

     total energy              =    -300.64142993 Ry
     estimated scf accuracy    <       0.00000003 Ry
     electrostatic embedding   =      -0.03606622 Ry
     cavitation energy         =       0.02212806 Ry
     electrolyte free energy   =      -0.00156499 Ry
     correction to one-el term =       2.61891250 Ry

     iteration # 42     ecut=    80.00 Ry     beta= 0.20
     Davidson diagonalization with overlap

---- Real-time Memory Report at c_bands before calling an iterative solver
           668 MiB given to the printing process from OS
             0 MiB allocation reported by mallinfo(arena+hblkhd)
        614623 MiB available memory on the node where the printing process lives
------------------
     ethr =  4.18E-11,  avg # of iterations =  4.0

     negative rho (up, down):  3.008E-04 0.000E+00

     add environment contribution to local potential

     total cpu time spent up to now is      399.5 secs

     total energy              =    -300.64142988 Ry
     estimated scf accuracy    <          1.0E-08 Ry
     electrostatic embedding   =      -0.03606634 Ry
     cavitation energy         =       0.02212806 Ry
     electrolyte free energy   =      -0.00156478 Ry
     correction to one-el term =       2.61638254 Ry

     iteration # 43     ecut=    80.00 Ry     beta= 0.20
     Davidson diagonalization with overlap

---- Real-time Memory Report at c_bands before calling an iterative solver
           669 MiB given to the printing process from OS
             0 MiB allocation reported by mallinfo(arena+hblkhd)
        614618 MiB available memory on the node where the printing process lives
------------------
     ethr =  1.66E-11,  avg # of iterations =  3.1

     negative rho (up, down):  2.965E-04 0.000E+00

     add environment contribution to local potential

     total cpu time spent up to now is      408.7 secs

     total energy              =    -300.64142985 Ry
     estimated scf accuracy    <          8.4E-09 Ry
     electrostatic embedding   =      -0.03605842 Ry
     cavitation energy         =       0.02212806 Ry
     electrolyte free energy   =      -0.00156473 Ry
     correction to one-el term =       2.61512553 Ry

     iteration # 44     ecut=    80.00 Ry     beta= 0.20
     Davidson diagonalization with overlap

---- Real-time Memory Report at c_bands before calling an iterative solver
           671 MiB given to the printing process from OS
             0 MiB allocation reported by mallinfo(arena+hblkhd)
        614602 MiB available memory on the node where the printing process lives
------------------
     ethr =  1.40E-11,  avg # of iterations =  2.0

     negative rho (up, down):  2.916E-04 0.000E+00

     add environment contribution to local potential

     total cpu time spent up to now is      417.3 secs

     total energy              =    -300.64142994 Ry
     estimated scf accuracy    <          5.7E-09 Ry
     electrostatic embedding   =      -0.03605721 Ry
     cavitation energy         =       0.02212806 Ry
     electrolyte free energy   =      -0.00156478 Ry
     correction to one-el term =       2.61486025 Ry

     iteration # 45     ecut=    80.00 Ry     beta= 0.20
     Davidson diagonalization with overlap

---- Real-time Memory Report at c_bands before calling an iterative solver
           675 MiB given to the printing process from OS
             0 MiB allocation reported by mallinfo(arena+hblkhd)
        614599 MiB available memory on the node where the printing process lives
------------------
     ethr =  9.47E-12,  avg # of iterations =  3.0

     negative rho (up, down):  2.898E-04 0.000E+00

     add environment contribution to local potential

     total cpu time spent up to now is      426.3 secs

     total energy              =    -300.64142991 Ry
     estimated scf accuracy    <          4.4E-09 Ry
     electrostatic embedding   =      -0.03605497 Ry
     cavitation energy         =       0.02212806 Ry
     electrolyte free energy   =      -0.00156477 Ry
     correction to one-el term =       2.61483401 Ry

     iteration # 46     ecut=    80.00 Ry     beta= 0.20
     Davidson diagonalization with overlap

---- Real-time Memory Report at c_bands before calling an iterative solver
           677 MiB given to the printing process from OS
             0 MiB allocation reported by mallinfo(arena+hblkhd)
        614589 MiB available memory on the node where the printing process lives
------------------
     ethr =  7.37E-12,  avg # of iterations =  2.0

     negative rho (up, down):  2.950E-04 0.000E+00

     add environment contribution to local potential

     total cpu time spent up to now is      434.7 secs

     total energy              =    -300.64142987 Ry
     estimated scf accuracy    <          3.8E-09 Ry
     electrostatic embedding   =      -0.03605395 Ry
     cavitation energy         =       0.02212806 Ry
     electrolyte free energy   =      -0.00156477 Ry
     correction to one-el term =       2.61487237 Ry

     iteration # 47     ecut=    80.00 Ry     beta= 0.20
     Davidson diagonalization with overlap

---- Real-time Memory Report at c_bands before calling an iterative solver
           680 MiB given to the printing process from OS
             0 MiB allocation reported by mallinfo(arena+hblkhd)
        614566 MiB available memory on the node where the printing process lives
------------------
     ethr =  6.41E-12,  avg # of iterations =  2.0

     negative rho (up, down):  3.051E-04 0.000E+00

     add environment contribution to local potential

     total cpu time spent up to now is      443.0 secs

     total energy              =    -300.64142984 Ry
     estimated scf accuracy    <          3.3E-09 Ry
     electrostatic embedding   =      -0.03605252 Ry
     cavitation energy         =       0.02212806 Ry
     electrolyte free energy   =      -0.00156479 Ry
     correction to one-el term =       2.61494322 Ry

     iteration # 48     ecut=    80.00 Ry     beta= 0.20
     Davidson diagonalization with overlap

---- Real-time Memory Report at c_bands before calling an iterative solver
           683 MiB given to the printing process from OS
             0 MiB allocation reported by mallinfo(arena+hblkhd)
        614571 MiB available memory on the node where the printing process lives
------------------
     ethr =  5.54E-12,  avg # of iterations =  2.0

     negative rho (up, down):  3.065E-04 0.000E+00

     add environment contribution to local potential

     total cpu time spent up to now is      451.5 secs

     total energy              =    -300.64142985 Ry
     estimated scf accuracy    <          2.6E-09 Ry
     electrostatic embedding   =      -0.03605359 Ry
     cavitation energy         =       0.02212806 Ry
     electrolyte free energy   =      -0.00156486 Ry
     correction to one-el term =       2.61523340 Ry

     iteration # 49     ecut=    80.00 Ry     beta= 0.20
     Davidson diagonalization with overlap

---- Real-time Memory Report at c_bands before calling an iterative solver
           684 MiB given to the printing process from OS
             0 MiB allocation reported by mallinfo(arena+hblkhd)
        614555 MiB available memory on the node where the printing process lives
------------------
     ethr =  4.35E-12,  avg # of iterations =  1.4

     negative rho (up, down):  3.106E-04 0.000E+00

     add environment contribution to local potential

     total cpu time spent up to now is      459.6 secs

     total energy              =    -300.64142985 Ry
     estimated scf accuracy    <          2.3E-09 Ry
     electrostatic embedding   =      -0.03605457 Ry
     cavitation energy         =       0.02212806 Ry
     electrolyte free energy   =      -0.00156487 Ry
     correction to one-el term =       2.61562395 Ry

     iteration # 50     ecut=    80.00 Ry     beta= 0.20
     Davidson diagonalization with overlap

---- Real-time Memory Report at c_bands before calling an iterative solver
           686 MiB given to the printing process from OS
             0 MiB allocation reported by mallinfo(arena+hblkhd)
        614553 MiB available memory on the node where the printing process lives
------------------
     ethr =  3.80E-12,  avg # of iterations =  2.0

     negative rho (up, down):  3.112E-04 0.000E+00

     add environment contribution to local potential

     total cpu time spent up to now is      468.0 secs

     total energy              =    -300.64142985 Ry
     estimated scf accuracy    <          1.9E-09 Ry
     electrostatic embedding   =      -0.03605371 Ry
     cavitation energy         =       0.02212806 Ry
     electrolyte free energy   =      -0.00156484 Ry
     correction to one-el term =       2.61613955 Ry

     iteration # 51     ecut=    80.00 Ry     beta= 0.20
     Davidson diagonalization with overlap

---- Real-time Memory Report at c_bands before calling an iterative solver
           690 MiB given to the printing process from OS
             0 MiB allocation reported by mallinfo(arena+hblkhd)
        614545 MiB available memory on the node where the printing process lives
------------------
     ethr =  3.20E-12,  avg # of iterations =  1.1

     negative rho (up, down):  3.122E-04 0.000E+00

     add environment contribution to local potential

     total cpu time spent up to now is      476.0 secs

     total energy              =    -300.64142981 Ry
     estimated scf accuracy    <          1.8E-09 Ry
     electrostatic embedding   =      -0.03605340 Ry
     cavitation energy         =       0.02212806 Ry
     electrolyte free energy   =      -0.00156482 Ry
     correction to one-el term =       2.61621628 Ry

     iteration # 52     ecut=    80.00 Ry     beta= 0.20
     Davidson diagonalization with overlap

---- Real-time Memory Report at c_bands before calling an iterative solver
           690 MiB given to the printing process from OS
             0 MiB allocation reported by mallinfo(arena+hblkhd)
        614538 MiB available memory on the node where the printing process lives
------------------
     ethr =  3.04E-12,  avg # of iterations =  3.1

     negative rho (up, down):  3.138E-04 0.000E+00

     add environment contribution to local potential

     total cpu time spent up to now is      484.7 secs

     total energy              =    -300.64142982 Ry
     estimated scf accuracy    <          1.4E-09 Ry
     electrostatic embedding   =      -0.03605370 Ry
     cavitation energy         =       0.02212806 Ry
     electrolyte free energy   =      -0.00156475 Ry
     correction to one-el term =       2.61618008 Ry

     iteration # 53     ecut=    80.00 Ry     beta= 0.20
     Davidson diagonalization with overlap

---- Real-time Memory Report at c_bands before calling an iterative solver
           693 MiB given to the printing process from OS
             0 MiB allocation reported by mallinfo(arena+hblkhd)
        614533 MiB available memory on the node where the printing process lives
------------------
     ethr =  2.31E-12,  avg # of iterations =  1.9

     negative rho (up, down):  3.141E-04 0.000E+00

     add environment contribution to local potential

     total cpu time spent up to now is      493.2 secs

     total energy              =    -300.64142983 Ry
     estimated scf accuracy    <          1.3E-09 Ry
     electrostatic embedding   =      -0.03605383 Ry
     cavitation energy         =       0.02212806 Ry
     electrolyte free energy   =      -0.00156474 Ry
     correction to one-el term =       2.61629130 Ry

     iteration # 54     ecut=    80.00 Ry     beta= 0.20
     Davidson diagonalization with overlap

---- Real-time Memory Report at c_bands before calling an iterative solver
           696 MiB given to the printing process from OS
             0 MiB allocation reported by mallinfo(arena+hblkhd)
        614518 MiB available memory on the node where the printing process lives
------------------
     ethr =  2.18E-12,  avg # of iterations =  2.0

     negative rho (up, down):  3.136E-04 0.000E+00

     add environment contribution to local potential

     total cpu time spent up to now is      501.8 secs

     total energy              =    -300.64142984 Ry
     estimated scf accuracy    <          9.8E-10 Ry
     electrostatic embedding   =      -0.03605472 Ry
     cavitation energy         =       0.02212806 Ry
     electrolyte free energy   =      -0.00156472 Ry
     correction to one-el term =       2.61614249 Ry

     iteration # 55     ecut=    80.00 Ry     beta= 0.20
     Davidson diagonalization with overlap

---- Real-time Memory Report at c_bands before calling an iterative solver
           697 MiB given to the printing process from OS
             0 MiB allocation reported by mallinfo(arena+hblkhd)
        614511 MiB available memory on the node where the printing process lives
------------------
     ethr =  1.64E-12,  avg # of iterations =  1.0

     negative rho (up, down):  3.095E-04 0.000E+00

     add environment contribution to local potential

     total cpu time spent up to now is      509.8 secs

     total energy              =    -300.64142984 Ry
     estimated scf accuracy    <          9.2E-10 Ry
     electrostatic embedding   =      -0.03605463 Ry
     cavitation energy         =       0.02212806 Ry
     electrolyte free energy   =      -0.00156471 Ry
     correction to one-el term =       2.61611221 Ry

     iteration # 56     ecut=    80.00 Ry     beta= 0.20
     Davidson diagonalization with overlap

---- Real-time Memory Report at c_bands before calling an iterative solver
           698 MiB given to the printing process from OS
             0 MiB allocation reported by mallinfo(arena+hblkhd)
        614510 MiB available memory on the node where the printing process lives
------------------
     ethr =  1.53E-12,  avg # of iterations =  2.9

     negative rho (up, down):  3.070E-04 0.000E+00

     add environment contribution to local potential

     total cpu time spent up to now is      518.7 secs

     total energy              =    -300.64142989 Ry
     estimated scf accuracy    <          6.3E-10 Ry
     electrostatic embedding   =      -0.03605442 Ry
     cavitation energy         =       0.02212806 Ry
     electrolyte free energy   =      -0.00156472 Ry
     correction to one-el term =       2.61599374 Ry

     iteration # 57     ecut=    80.00 Ry     beta= 0.20
     Davidson diagonalization with overlap

---- Real-time Memory Report at c_bands before calling an iterative solver
           700 MiB given to the printing process from OS
             0 MiB allocation reported by mallinfo(arena+hblkhd)
        614503 MiB available memory on the node where the printing process lives
------------------
     ethr =  1.05E-12,  avg # of iterations =  3.3

     negative rho (up, down):  3.063E-04 0.000E+00

     add environment contribution to local potential

     total cpu time spent up to now is      527.9 secs

     total energy              =    -300.64142988 Ry
     estimated scf accuracy    <          4.4E-10 Ry
     electrostatic embedding   =      -0.03605404 Ry
     cavitation energy         =       0.02212806 Ry
     electrolyte free energy   =      -0.00156471 Ry
     correction to one-el term =       2.61596698 Ry

     iteration # 58     ecut=    80.00 Ry     beta= 0.20
     Davidson diagonalization with overlap

---- Real-time Memory Report at c_bands before calling an iterative solver
           701 MiB given to the printing process from OS
             0 MiB allocation reported by mallinfo(arena+hblkhd)
        614497 MiB available memory on the node where the printing process lives
------------------
     ethr =  7.34E-13,  avg # of iterations =  2.0

     negative rho (up, down):  3.034E-04 0.000E+00

     add environment contribution to local potential

     total cpu time spent up to now is      536.2 secs

     total energy              =    -300.64142984 Ry
     estimated scf accuracy    <          4.2E-10 Ry
     electrostatic embedding   =      -0.03605396 Ry
     cavitation energy         =       0.02212806 Ry
     electrolyte free energy   =      -0.00156471 Ry
     correction to one-el term =       2.61595111 Ry

     iteration # 59     ecut=    80.00 Ry     beta= 0.20
     Davidson diagonalization with overlap

---- Real-time Memory Report at c_bands before calling an iterative solver
           704 MiB given to the printing process from OS
             0 MiB allocation reported by mallinfo(arena+hblkhd)
        614499 MiB available memory on the node where the printing process lives
------------------
     ethr =  6.92E-13,  avg # of iterations =  2.7

     negative rho (up, down):  3.047E-04 0.000E+00

     add environment contribution to local potential

     total cpu time spent up to now is      545.1 secs

     total energy              =    -300.64142984 Ry
     estimated scf accuracy    <          3.4E-10 Ry
     electrostatic embedding   =      -0.03605401 Ry
     cavitation energy         =       0.02212806 Ry
     electrolyte free energy   =      -0.00156471 Ry
     correction to one-el term =       2.61591595 Ry

     iteration # 60     ecut=    80.00 Ry     beta= 0.20
     Davidson diagonalization with overlap

---- Real-time Memory Report at c_bands before calling an iterative solver
           705 MiB given to the printing process from OS
             0 MiB allocation reported by mallinfo(arena+hblkhd)
        614487 MiB available memory on the node where the printing process lives
------------------
     ethr =  5.67E-13,  avg # of iterations =  2.0

     negative rho (up, down):  3.056E-04 0.000E+00

     add environment contribution to local potential

     total cpu time spent up to now is      553.8 secs

     total energy              =    -300.64142984 Ry
     estimated scf accuracy    <          2.9E-10 Ry
     electrostatic embedding   =      -0.03605398 Ry
     cavitation energy         =       0.02212806 Ry
     electrolyte free energy   =      -0.00156471 Ry
     correction to one-el term =       2.61599859 Ry

     iteration # 61     ecut=    80.00 Ry     beta= 0.20
     Davidson diagonalization with overlap

---- Real-time Memory Report at c_bands before calling an iterative solver
           707 MiB given to the printing process from OS
             0 MiB allocation reported by mallinfo(arena+hblkhd)
        614479 MiB available memory on the node where the printing process lives
------------------
     ethr =  4.87E-13,  avg # of iterations =  2.0

     negative rho (up, down):  3.058E-04 0.000E+00

     add environment contribution to local potential

     total cpu time spent up to now is      562.0 secs

     total energy              =    -300.64142984 Ry
     estimated scf accuracy    <          2.8E-10 Ry
     electrostatic embedding   =      -0.03605382 Ry
     cavitation energy         =       0.02212806 Ry
     electrolyte free energy   =      -0.00156471 Ry
     correction to one-el term =       2.61601499 Ry

     iteration # 62     ecut=    80.00 Ry     beta= 0.20
     Davidson diagonalization with overlap

---- Real-time Memory Report at c_bands before calling an iterative solver
           709 MiB given to the printing process from OS
             0 MiB allocation reported by mallinfo(arena+hblkhd)
        614475 MiB available memory on the node where the printing process lives
------------------
     ethr =  4.59E-13,  avg # of iterations =  1.0

     negative rho (up, down):  3.063E-04 0.000E+00

     add environment contribution to local potential

     total cpu time spent up to now is      570.0 secs

     total energy              =    -300.64142984 Ry
     estimated scf accuracy    <          2.5E-10 Ry
     electrostatic embedding   =      -0.03605364 Ry
     cavitation energy         =       0.02212806 Ry
     electrolyte free energy   =      -0.00156472 Ry
     correction to one-el term =       2.61592545 Ry

     iteration # 63     ecut=    80.00 Ry     beta= 0.20
     Davidson diagonalization with overlap

---- Real-time Memory Report at c_bands before calling an iterative solver
           711 MiB given to the printing process from OS
             0 MiB allocation reported by mallinfo(arena+hblkhd)
        614474 MiB available memory on the node where the printing process lives
------------------
     ethr =  4.11E-13,  avg # of iterations =  2.0

     negative rho (up, down):  3.075E-04 0.000E+00

     add environment contribution to local potential

     total cpu time spent up to now is      578.4 secs

     total energy              =    -300.64142983 Ry
     estimated scf accuracy    <          1.7E-10 Ry
     electrostatic embedding   =      -0.03605405 Ry
     cavitation energy         =       0.02212806 Ry
     electrolyte free energy   =      -0.00156474 Ry
     correction to one-el term =       2.61577982 Ry

     iteration # 64     ecut=    80.00 Ry     beta= 0.20
     Davidson diagonalization with overlap

---- Real-time Memory Report at c_bands before calling an iterative solver
           713 MiB given to the printing process from OS
             0 MiB allocation reported by mallinfo(arena+hblkhd)
        614469 MiB available memory on the node where the printing process lives
------------------
     ethr =  2.90E-13,  avg # of iterations =  3.2

     negative rho (up, down):  3.075E-04 0.000E+00

     add environment contribution to local potential

     total cpu time spent up to now is      587.4 secs

     total energy              =    -300.64142983 Ry
     estimated scf accuracy    <          1.3E-10 Ry
     electrostatic embedding   =      -0.03605424 Ry
     cavitation energy         =       0.02212806 Ry
     electrolyte free energy   =      -0.00156474 Ry
     correction to one-el term =       2.61580955 Ry

     iteration # 65     ecut=    80.00 Ry     beta= 0.20
     Davidson diagonalization with overlap

---- Real-time Memory Report at c_bands before calling an iterative solver
           714 MiB given to the printing process from OS
             0 MiB allocation reported by mallinfo(arena+hblkhd)
        614502 MiB available memory on the node where the printing process lives
------------------
     ethr =  2.10E-13,  avg # of iterations =  2.0

     negative rho (up, down):  3.069E-04 0.000E+00

     add environment contribution to local potential

     total cpu time spent up to now is      596.0 secs

     total energy              =    -300.64142984 Ry
     estimated scf accuracy    <          1.1E-10 Ry
     electrostatic embedding   =      -0.03605419 Ry
     cavitation energy         =       0.02212806 Ry
     electrolyte free energy   =      -0.00156474 Ry
     correction to one-el term =       2.61581639 Ry

     iteration # 66     ecut=    80.00 Ry     beta= 0.20
     Davidson diagonalization with overlap

---- Real-time Memory Report at c_bands before calling an iterative solver
           716 MiB given to the printing process from OS
             0 MiB allocation reported by mallinfo(arena+hblkhd)
        614461 MiB available memory on the node where the printing process lives
------------------
     ethr =  1.76E-13,  avg # of iterations =  2.5

     negative rho (up, down):  3.076E-04 0.000E+00

     add environment contribution to local potential

     total cpu time spent up to now is      604.6 secs

     total energy              =    -300.64142984 Ry
     estimated scf accuracy    <          8.4E-11 Ry
     electrostatic embedding   =      -0.03605421 Ry
     cavitation energy         =       0.02212806 Ry
     electrolyte free energy   =      -0.00156475 Ry
     correction to one-el term =       2.61581640 Ry

     iteration # 67     ecut=    80.00 Ry     beta= 0.20
[...]

     occupation numbers 
     1.0000   1.0000   1.0000   1.0000   1.0000   1.0000   1.0000   1.0000
     1.0000   1.0000   1.0000   1.0000   1.0000   1.0000   1.0000   1.0000
     1.0000   1.0000   1.0000   1.0000   1.0000   1.0000   1.0000   1.0000
     1.0000   1.0000   1.0000   1.0000   1.0141   1.0141   0.0336   0.0336
     0.0000   0.0000   0.0000   0.0000   0.0000   0.0000   0.0000   0.0000
     0.0000   0.0000   0.0000   0.0000   0.0000

          k =-0.5000 0.2981 0.0000 (202980 PWs)   bands (ev):

   -50.1614 -50.1614 -50.1614 -50.1614 -49.7883 -49.7883 -49.7883 -49.7883
   -49.4629 -49.4629 -49.4629 -49.4629 -49.2357 -49.2357 -49.2299 -49.2299
   -49.1861 -49.1861 -49.1802 -49.1802  -5.1766  -5.1766  -4.5642  -4.5642
    -4.2535  -4.2535  -3.6355  -3.6355  -2.9568  -2.9568  -2.2608  -2.2608
    -2.0774  -2.0774  -1.6154  -1.6154  -1.2874  -1.2874  -1.0034  -1.0034
    -0.4385  -0.4385  -0.1068  -0.1068   0.1084

     occupation numbers 
     1.0000   1.0000   1.0000   1.0000   1.0000   1.0000   1.0000   1.0000
     1.0000   1.0000   1.0000   1.0000   1.0000   1.0000   1.0000   1.0000
     1.0000   1.0000   1.0000   1.0000   1.0000   1.0000   1.0000   1.0000
     1.0000   1.0000   1.0000   1.0000   1.0503   1.0503   0.0000   0.0000
     0.0000   0.0000   0.0000   0.0000   0.0000   0.0000   0.0000   0.0000
     0.0000   0.0000   0.0000   0.0000   0.0000

          k =-0.5000 0.3975 0.0000 (202998 PWs)   bands (ev):

   -50.1614 -50.1614 -50.1614 -50.1614 -49.7883 -49.7883 -49.7883 -49.7883
   -49.4629 -49.4629 -49.4629 -49.4629 -49.2357 -49.2357 -49.2299 -49.2299
   -49.1861 -49.1861 -49.1802 -49.1802  -5.0141  -5.0141  -4.8063  -4.8063
    -4.1166  -4.1166  -3.8721  -3.8721  -2.8386  -2.8386  -2.4758  -2.4758
    -1.6633  -1.6633  -1.4759  -1.4759  -1.2896  -1.2896  -1.0531  -1.0531
    -0.3711  -0.3711  -0.2189  -0.2189   0.2663

     occupation numbers 
     1.0000   1.0000   1.0000   1.0000   1.0000   1.0000   1.0000   1.0000
     1.0000   1.0000   1.0000   1.0000   1.0000   1.0000   1.0000   1.0000
     1.0000   1.0000   1.0000   1.0000   1.0000   1.0000   1.0000   1.0000
     1.0000   1.0000   1.0000   1.0000   1.0361   1.0361   0.0021   0.0021
     0.0000   0.0000   0.0000   0.0000   0.0000   0.0000   0.0000   0.0000
     0.0000   0.0000   0.0000   0.0000   0.0000

     the Fermi energy is    -2.6982 ev

!    total energy              =    -300.64142983 Ry
     total all-electron energy =      -300.641592 Ry
     estimated scf accuracy    <          8.2E-15 Ry
     smearing contrib. (-TS)   =      -0.00040205 Ry
     internal energy E=F+TS    =    -300.64102778 Ry

     The total energy is F=E-TS. E is the sum of the following terms:
     one-electron contribution =   -2707.32868913 Ry
     hartree contribution      =    1320.85516718 Ry
     xc contribution           =     -71.48248464 Ry
     ewald contribution        =    1152.94977918 Ry
     one-center paw contrib.   =       1.76473152 Ry
      -> PAW hartree energy AE =       7.43248098 Ry
      -> PAW hartree energy PS =      -7.20975287 Ry
      -> PAW xc energy AE      =      -3.48585015 Ry
      -> PAW xc energy PS      =       3.35136227 Ry
      -> total E_H with PAW    =    1321.07789529 Ry
      -> total E_XC with PAW   =     -71.61697252 Ry
     electrostatic embedding   =      -0.03605406 Ry
     cavitation energy         =       0.02212806 Ry
     electrolyte free energy   =      -0.00156473 Ry
     correction to one-el term =       2.61595885 Ry

     WARNING: you are using the parabolic pbc correction;
              the potential shift above must be added to 
              band and Fermi energies.

     convergence has been achieved in 103 iterations
     The dielectric solvent contribution to forces
     atom    1 type  1   force =     0.00000000    0.00211380   -0.01731914
     atom    2 type  1   force =     0.00000000    0.00100458    0.00511313
     atom    3 type  1   force =     0.00000000    0.00724468   -0.00167216
     atom    4 type  1   force =     0.00000000   -0.02091722   -0.01072257
     atom    5 type  1   force =     0.00000000   -0.02525352    0.03106756
     atom    6 type  1   force =     0.00000000   -0.00100453   -0.00511507
     atom    7 type  1   force =    -0.00000000   -0.00211349    0.01731682
     atom    8 type  1   force =    -0.00000001    0.02525347   -0.03106975
     atom    9 type  1   force =     0.00000003    0.02091736    0.01072044
     atom   10 type  1   force =     0.00000000   -0.00724489    0.00166976
     atom   11 type  1   force =    -0.00000000    0.00211378   -0.01731911
     atom   12 type  1   force =    -0.00000000    0.00100457    0.00511313
     atom   13 type  1   force =    -0.00000000    0.00724470   -0.00167215
     atom   14 type  1   force =    -0.00000000   -0.02091724   -0.01072265
     atom   15 type  1   force =    -0.00000000   -0.02525359    0.03106767
     atom   16 type  1   force =    -0.00000000   -0.00100453   -0.00511507
     atom   17 type  1   force =    -0.00000000   -0.00211349    0.01731682
     atom   18 type  1   force =     0.00000001    0.02525347   -0.03106975
     atom   19 type  1   force =    -0.00000003    0.02091736    0.01072044
     atom   20 type  1   force =    -0.00000000   -0.00724489    0.00166976
 

     Forces acting on atoms (cartesian axes, Ry/au):

     atom    1 type  1   force =     0.00000000   -0.00000037   -0.00000014
     atom    2 type  1   force =     0.00000000   -0.00000049   -0.00000017
     atom    3 type  1   force =     0.00000000    0.00000000    0.00000015
     atom    4 type  1   force =     0.00000000   -0.00000000   -0.00000005
     atom    5 type  1   force =     0.00000000    0.00000032    0.00000003
     atom    6 type  1   force =     0.00000003    0.00000036    0.00000017
     atom    7 type  1   force =     0.00000002    0.00000016    0.00000012
     atom    8 type  1   force =    -0.00000000   -0.00000019    0.00000015
     atom    9 type  1   force =     0.00000002    0.00000008    0.00000007
     atom   10 type  1   force =    -0.00000002    0.00000007   -0.00000037
     atom   11 type  1   force =     0.00000000   -0.00000030   -0.00000012
     atom   12 type  1   force =     0.00000000   -0.00000045   -0.00000015
     atom   13 type  1   force =     0.00000000    0.00000005    0.00000012
     atom   14 type  1   force =     0.00000000    0.00000000    0.00000006
     atom   15 type  1   force =     0.00000000    0.00000026   -0.00000003
     atom   16 type  1   force =    -0.00000003    0.00000036    0.00000017
     atom   17 type  1   force =    -0.00000002    0.00000016    0.00000012
     atom   18 type  1   force =     0.00000000   -0.00000019    0.00000015
     atom   19 type  1   force =    -0.00000002    0.00000008    0.00000007
     atom   20 type  1   force =     0.00000002    0.00000007   -0.00000037
     The non-local contrib.  to forces
     atom    1 type  1   force =     0.00000000    0.00144503    0.02484645
     atom    2 type  1   force =     0.00000000    0.00454346    0.00340391
     atom    3 type  1   force =     0.00000000    0.00225764   -0.00359806
     atom    4 type  1   force =     0.00000000    0.01746559   -0.05389080
     atom    5 type  1   force =     0.00000000    0.01027106    0.08572985
     atom    6 type  1   force =     0.00000003   -0.00454368   -0.00340431
     atom    7 type  1   force =     0.00000004   -0.00144526   -0.02484630
     atom    8 type  1   force =    -0.00000002   -0.01027115   -0.08573005
     atom    9 type  1   force =     0.00000009   -0.01746553    0.05389090
     atom   10 type  1   force =    -0.00000005   -0.00225729    0.00359792
     atom   11 type  1   force =     0.00000000    0.00144505    0.02484643
     atom   12 type  1   force =     0.00000000    0.00454348    0.00340393
     atom   13 type  1   force =     0.00000000    0.00225769   -0.00359817
     atom   14 type  1   force =     0.00000000    0.01746564   -0.05389093
     atom   15 type  1   force =     0.00000000    0.01027093    0.08573001
     atom   16 type  1   force =    -0.00000003   -0.00454368   -0.00340431
     atom   17 type  1   force =    -0.00000004   -0.00144526   -0.02484630
     atom   18 type  1   force =     0.00000002   -0.01027115   -0.08573005
     atom   19 type  1   force =    -0.00000009   -0.01746553    0.05389090
     atom   20 type  1   force =     0.00000005   -0.00225729    0.00359792
     The ionic contribution  to forces
     atom    1 type  1   force =    -0.00000002    0.08459406    5.08609735
     atom    2 type  1   force =    -0.00000002   -0.04696285    1.03425300
     atom    3 type  1   force =    -0.00000003   -0.09905918   -2.88874254
     atom    4 type  1   force =    -0.00000002    0.33348855   -6.88595301
     atom    5 type  1   force =    -0.00000001    0.19275995    8.13459493
     atom    6 type  1   force =     0.00000057    0.04696153   -1.03424198
     atom    7 type  1   force =     0.00000058   -0.08460046   -5.08608434
     atom    8 type  1   force =     0.00000013   -0.19275826   -8.13460417
     atom    9 type  1   force =     0.00000062   -0.33348571    6.88595418
     atom   10 type  1   force =    -0.00000049    0.09906124    2.88873108
     atom   11 type  1   force =     0.00000001    0.08459567    5.08609563
     atom   12 type  1   force =     0.00000001   -0.04696252    1.03424890
     atom   13 type  1   force =     0.00000002   -0.09905879   -2.88874582
     atom   14 type  1   force =     0.00000001    0.33348894   -6.88595762
     atom   15 type  1   force =     0.00000001    0.19275945    8.13459967
     atom   16 type  1   force =    -0.00000056    0.04696152   -1.03424201
     atom   17 type  1   force =    -0.00000058   -0.08460045   -5.08608431
     atom   18 type  1   force =    -0.00000012   -0.19275825   -8.13460412
     atom   19 type  1   force =    -0.00000061   -0.33348571    6.88595415
     atom   20 type  1   force =     0.00000049    0.09906125    2.88873102
     The local contribution  to forces
     atom    1 type  1   force =     0.00000349   -0.08815326   -5.09362476
     atom    2 type  1   force =     0.00000348    0.04141429   -1.04277019
     atom    3 type  1   force =     0.00000290    0.08955685    2.89401288
     atom    4 type  1   force =     0.00000407   -0.33003695    6.95056632
     atom    5 type  1   force =     0.00000408   -0.17777720   -8.25139230
     atom    6 type  1   force =     0.00000412   -0.04141325    1.04276125
     atom    7 type  1   force =     0.00000381    0.08815934    5.09361420
     atom    8 type  1   force =     0.00000461    0.17777544    8.25140469
     atom    9 type  1   force =     0.00000341    0.33003396   -6.95056572
     atom   10 type  1   force =     0.00000492   -0.08955903   -2.89399966
     atom   11 type  1   force =     0.00000442   -0.08815480   -5.09362304
     atom   12 type  1   force =     0.00000440    0.04141401   -1.04276608
     atom   13 type  1   force =     0.00000557    0.08955644    2.89401622
     atom   14 type  1   force =     0.00000500   -0.33003737    6.95057124
     atom   15 type  1   force =     0.00000384   -0.17777655   -8.25139736
     atom   16 type  1   force =     0.00000527   -0.04141267    1.04276185
     atom   17 type  1   force =     0.00000502    0.08815934    5.09361359
     atom   18 type  1   force =     0.00000481    0.17777603    8.25140350
     atom   19 type  1   force =     0.00000484    0.33003396   -6.95056511
     atom   20 type  1   force =     0.00000389   -0.08955903   -2.89399844
     The core correction contribution to forces
     atom    1 type  1   force =     0.00000000    0.00000000    0.00000000
     atom    2 type  1   force =     0.00000000    0.00000000    0.00000000
     atom    3 type  1   force =     0.00000000    0.00000000    0.00000000
     atom    4 type  1   force =     0.00000000    0.00000000    0.00000000
     atom    5 type  1   force =     0.00000000    0.00000000    0.00000000
     atom    6 type  1   force =     0.00000000    0.00000000    0.00000000
     atom    7 type  1   force =     0.00000000    0.00000000    0.00000000
     atom    8 type  1   force =     0.00000000    0.00000000    0.00000000
     atom    9 type  1   force =     0.00000000    0.00000000    0.00000000
     atom   10 type  1   force =     0.00000000    0.00000000    0.00000000
     atom   11 type  1   force =     0.00000000    0.00000000    0.00000000
     atom   12 type  1   force =     0.00000000    0.00000000    0.00000000
     atom   13 type  1   force =     0.00000000    0.00000000    0.00000000
     atom   14 type  1   force =     0.00000000    0.00000000    0.00000000
     atom   15 type  1   force =     0.00000000    0.00000000    0.00000000
     atom   16 type  1   force =     0.00000000    0.00000000    0.00000000
     atom   17 type  1   force =     0.00000000    0.00000000    0.00000000
     atom   18 type  1   force =     0.00000000    0.00000000    0.00000000
     atom   19 type  1   force =     0.00000000    0.00000000    0.00000000
     atom   20 type  1   force =     0.00000000    0.00000000    0.00000000
     The Hubbard contrib.    to forces
     atom    1 type  1   force =     0.00000000    0.00000000    0.00000000
     atom    2 type  1   force =     0.00000000    0.00000000    0.00000000
     atom    3 type  1   force =     0.00000000    0.00000000    0.00000000
     atom    4 type  1   force =     0.00000000    0.00000000    0.00000000
     atom    5 type  1   force =     0.00000000    0.00000000    0.00000000
     atom    6 type  1   force =     0.00000000    0.00000000    0.00000000
     atom    7 type  1   force =     0.00000000    0.00000000    0.00000000
     atom    8 type  1   force =     0.00000000    0.00000000    0.00000000
     atom    9 type  1   force =     0.00000000    0.00000000    0.00000000
     atom   10 type  1   force =     0.00000000    0.00000000    0.00000000
     atom   11 type  1   force =     0.00000000    0.00000000    0.00000000
     atom   12 type  1   force =     0.00000000    0.00000000    0.00000000
     atom   13 type  1   force =     0.00000000    0.00000000    0.00000000
     atom   14 type  1   force =     0.00000000    0.00000000    0.00000000
     atom   15 type  1   force =     0.00000000    0.00000000    0.00000000
     atom   16 type  1   force =     0.00000000    0.00000000    0.00000000
     atom   17 type  1   force =     0.00000000    0.00000000    0.00000000
     atom   18 type  1   force =     0.00000000    0.00000000    0.00000000
     atom   19 type  1   force =     0.00000000    0.00000000    0.00000000
     atom   20 type  1   force =     0.00000000    0.00000000    0.00000000
     The SCF correction term to forces
     atom    1 type  1   force =    -0.00000000   -0.00000001   -0.00000004
     atom    2 type  1   force =    -0.00000000    0.00000001   -0.00000003
     atom    3 type  1   force =     0.00000000   -0.00000001    0.00000002
     atom    4 type  1   force =    -0.00000000    0.00000001    0.00000001
     atom    5 type  1   force =    -0.00000000    0.00000001   -0.00000002
     atom    6 type  1   force =     0.00000000   -0.00000001   -0.00000001
     atom    7 type  1   force =     0.00000000    0.00000001    0.00000003
     atom    8 type  1   force =    -0.00000000   -0.00000001   -0.00000000
     atom    9 type  1   force =     0.00000000   -0.00000001   -0.00000003
     atom   10 type  1   force =     0.00000000    0.00000001   -0.00000005
     atom   11 type  1   force =     0.00000000   -0.00000001   -0.00000005
     atom   12 type  1   force =    -0.00000000    0.00000000   -0.00000003
     atom   13 type  1   force =    -0.00000000   -0.00000001    0.00000003
     atom   14 type  1   force =     0.00000000    0.00000001    0.00000001
     atom   15 type  1   force =     0.00000000    0.00000000   -0.00000002
     atom   16 type  1   force =    -0.00000000   -0.00000001   -0.00000001
     atom   17 type  1   force =    -0.00000000    0.00000001    0.00000003
     atom   18 type  1   force =     0.00000000   -0.00000001   -0.00000000
     atom   19 type  1   force =    -0.00000000   -0.00000001   -0.00000003
     atom   20 type  1   force =    -0.00000000    0.00000001   -0.00000005

     Total force =     0.000001     Total SCF correction =     0.000000
     Message from routine punch:
     Nothing written, as per user request (disk_io='none')
 
     init_run     :      6.40s CPU      6.74s WALL (       1 calls)
     electrons    :    877.50s CPU    892.62s WALL (       1 calls)
     forces       :      2.93s CPU      2.97s WALL (       1 calls)

     Called by init_run:
     wfcinit      :      1.88s CPU      1.95s WALL (       1 calls)
     wfcinit:wfcr :      1.80s CPU      1.85s WALL (      30 calls)
     potinit      :      0.08s CPU      0.11s WALL (       1 calls)
     hinit0       :      0.77s CPU      0.91s WALL (       1 calls)

     Called by electrons:
     c_bands      :    498.04s CPU    506.51s WALL (     103 calls)
     sum_band     :     93.46s CPU     96.68s WALL (     103 calls)
     v_of_rho     :      5.39s CPU      5.56s WALL (     104 calls)
     v_h          :      0.47s CPU      0.48s WALL (     104 calls)
     v_xc         :      4.92s CPU      5.08s WALL (     104 calls)
     newd         :      3.18s CPU      4.32s WALL (     104 calls)
     PAW_pot      :      1.23s CPU      1.41s WALL (     104 calls)
     mix_rho      :     14.92s CPU     15.09s WALL (     103 calls)

     Called by c_bands:
     init_us_2    :      9.34s CPU      9.56s WALL (    6240 calls)
     cegterg      :    486.00s CPU    494.20s WALL (    3090 calls)

     Called by sum_band:
     sum_band:wei :      0.11s CPU      0.15s WALL (     103 calls)
     sum_band:loo :     88.21s CPU     89.97s WALL (     103 calls)
     sum_band:buf :      0.92s CPU      0.95s WALL (    3090 calls)
     sum_band:ini :      3.67s CPU      3.75s WALL (    3090 calls)
     sum_band:cal :      9.76s CPU      9.81s WALL (    3090 calls)
     sum_band:bec :      0.21s CPU      0.22s WALL (    3090 calls)
     addusdens    :      3.61s CPU      5.00s WALL (     103 calls)
                                        0.00s GPU  (     103 calls)
     addusd:skk   :      0.41s CPU      0.68s WALL (     103 calls)
                                        0.00s GPU  (     103 calls)

     Called by *egterg:
     cdiaghg      :     25.12s CPU     25.38s WALL (   13320 calls)
     cegterg:over :     18.85s CPU     19.02s WALL (   10230 calls)
     cegterg:upda :      9.35s CPU      9.45s WALL (   10230 calls)
     cegterg:last :     15.82s CPU     15.88s WALL (    5388 calls)
     h_psi        :    383.44s CPU    390.82s WALL (   13350 calls)
     s_psi        :     21.90s CPU     22.12s WALL (   13350 calls)
     g_psi        :      0.25s CPU      0.25s WALL (   10230 calls)

     Called by h_psi:
     h_psi:calbec :     30.35s CPU     30.75s WALL (   13350 calls)
     vloc_psi     :    321.07s CPU    327.82s WALL (   13350 calls)
                                        0.00s GPU  (   13350 calls)
     add_vuspsi   :     29.59s CPU     29.77s WALL (   13350 calls)

     General routines
     calbec       :     40.25s CPU     40.72s WALL (   16560 calls)
     fft          :      4.83s CPU      4.88s WALL (    1352 calls)
     ffts         :      9.92s CPU     10.04s WALL (   12753 calls)
     fftw         :    378.13s CPU    386.15s WALL (  768810 calls)
     interpolate  :      0.43s CPU      0.43s WALL (     104 calls)
 
     Parallel routines

     PAW routines
     PAW_pot      :      1.23s CPU      1.41s WALL (     104 calls)
     PAW_symme    :      0.01s CPU      0.01s WALL (     207 calls)
 
     Environ routines
 
     PWSCF        :  14m47.41s CPU  15m 3.55s WALL

 
   This run was terminated on:   6:22: 5  26Dec2024            

=------------------------------------------------------------------------------=
   JOB DONE.
=------------------------------------------------------------------------------=
