
     Program PWSCF v.7.4 starts on  5Jan2025 at  3:26:49 

     This program is part of the open-source Quantum ESPRESSO suite
     for quantum simulation of materials; please cite
         "P. Giannozzi et al., J. Phys.:Condens. Matter 21 395502 (2009);
         "P. Giannozzi et al., J. Phys.:Condens. Matter 29 465901 (2017);
         "P. Giannozzi et al., J. Chem. Phys. 152 154105 (2020);
          URL http://www.quantum-espresso.org", 
     in publications or presentations arising from this work. More details at
     http://www.quantum-espresso.org/quote

     Parallel version (MPI & OpenMP), running on     512 processor cores
     Number of MPI processes:               512
     Threads/MPI process:                     1

     MPI processes distributed on     4 nodes
     487393 MiB available memory on the printing compute node when the environment starts

     Reading input from espresso.pwi
Warning: card &CELL ignored
Warning: card    PRESS_CONV_THR   = 0.1 ignored
Warning: card    CELL_DOFREE      = 'ALL' ignored
Warning: card / ignored
Warning: card &FCP ignored
Warning: card / ignored
Warning: card &RISM ignored
Warning: card / ignored

     Current dimensions of program PWSCF are:
     Max number of different atomic species (ntypx) = 10
     Max number of k-points (npk) =  40000
     Max angular momentum in pseudopotentials (lmaxx) =  4

     IMPORTANT: XC functional enforced from input :
     Exchange-correlation= PBE
                           (   1   4   3   4   0   0   0)
     Any further DFT definition will be discarded
     Please, verify this is what you really want


     Reading input from environ.in:
     * using ionic solvent mode
     * setting boundary derivatives method to SSCS default
     * setting electrolyte-boundary derivatives method to SSCS default

Environ Warning (1001): card EOF ignored

     

     K-points division:     npool     =       2
     R & G space division:  proc/nbgrp/npool/nimage =     256
     Subspace diagonalization in iterative solution of the eigenvalue problem:
     a serial algorithm will be used


     Parallelization info
     --------------------
     sticks:   dense  smooth     PW     G-vecs:    dense   smooth      PW
     Min          33      13      3                18746     4723     645
     Max          34      14      4                18791     4776     724
     Sum        8497    3389    941              4805333  1215433  176195

     Using Slab Decomposition



     bravais-lattice index     =           12
     lattice parameter (alat)  =      12.9830  a.u.
     unit-cell volume          =   12574.0527 (a.u.)^3
     number of atoms/cell      =           20
     number of atomic types    =            1
     number of electrons       =        60.00
     number of Kohn-Sham states=           45
     kinetic-energy cutoff     =      80.0000  Ry
     charge density cutoff     =     800.0000  Ry
     scf convergence threshold =      1.0E-06
     mixing beta               =       0.2000
     number of iterations used =            8  local-TF  mixing
     energy convergence thresh.=      1.0E-05
     force convergence thresh. =      3.9E-04
     Exchange-correlation= PBE
                           (   1   4   3   4   0   0   0)
     nstep                     =          999


     ================================================================================

                                  Environ Setup Summary

     ================================================================================

     Please cite

          O. Andreussi, I. Dabo and N. Marzari, J. Chem. Phys. 136, 064102 (2012)
          F. Nattino, M. Truscott, N. Marzari, and O. Andreussi, J. Chem. Phys. 150, 041722 (2019)

     in publications or presentations arising from this work.

     ================================================================================

     Parameters
     ==========

     compensation onset threshold      =               0.1000E+00
     static permittivity               =                    89.90
     surface tension in input (dyn/cm) =                    37.30
     surface tension in internal units =               0.4792E-04

     Solvent Boundary
     ================

     solvent mode                      =                    ionic
     derivatives method                =                   lowmem
     electrolyte derivatives method    =                   lowmem
     numerical core for derivatives    =                      fft
     switching function adopted        =                     SCCS
     density limit for vacuum region   =               0.5000E-02
     density limit for bulk solvent    =               0.1000E-03
     soft-sphere radius mode           =                    bondi
     soft-sphere softness              =                     0.50
     alpha                             =                     1.32

     Electrostatic Setup
     ===================

     electrostatic problem to solve    =                    modpb
     numerical solver adopted          =                   newton
     type of auxiliary density adopted =                     none
     numerical core for poisson        =                      fft
     adopting a nested solver scheme
     inner solver                      =                       cg
     inner core                        =                      fft
     type of pbc corrections           =                parabolic
     numerical core for corrections    =                      1da

     ================================================================================


     >>>>> Grand-Canonical SCF is activated <<<<<
     Initial Total Charge  =     0.000000 e
     Target Fermi Energy   =    -1.404000 eV
     Thr. of Fermi Energy  =     0.001000 eV
     Wave-shift of Kerker  =     0.400000 bohr^-1
     Wave-shift of Hartree =     1.500000 bohr^-1
     Mixing Rate of Fermi  =     0.050000

     celldm(1)=  12.983009  celldm(2)=   0.829156  celldm(3)=   7.267908
     celldm(4)=  -0.301511  celldm(5)=   0.000000  celldm(6)=   0.000000

     crystal axes: (cart. coord. in units of alat)
               a(1) = (   1.000000   0.000000   0.000000 )  
               a(2) = (  -0.250000   0.790569   0.000000 )  
               a(3) = (   0.000000   0.000000   7.267908 )  

     reciprocal axes: (cart. coord. in units 2 pi/alat)
               b(1) = (  1.000000  0.316228 -0.000000 )  
               b(2) = (  0.000000  1.264912  0.000000 )  
               b(3) = (  0.000000 -0.000000  0.137591 )  


     PseudoPot. # 1 for Li read from file:
     /work/e89/e89/ba3g18/Repos/Pseudopotentials/Pslibrary/Li.pbe-sl-kjpaw_psl.1.0.0.UPF
     MD5 check sum: 3f4d2cafebb47c6c3aa8ed472e6f074d
     Pseudo is Projector augmented-wave, Zval =  3.0
     Generated using 'atomic' code by A. Dal Corso  v.7.4
     Shape of augmentation charge: PSQ
     Using radial grid of 1017 points,  4 beta functions with: 
                l(1) =   0
                l(2) =   0
                l(3) =   1
                l(4) =   1
     Q(r) pseudized with 0 coefficients 


     atomic species   valence    mass     pseudopotential
     Li                3.00     6.94000     Li( 1.00)

     No symmetry found


                                    s                        frac. trans.

      isym =  1     identity                                     

 cryst.   s( 1) = (     1          0          0      )
                  (     0          1          0      )
                  (     0          0          1      )

 cart.    s( 1) = (  1.0000000 -0.0000000  0.0000000 )
                  (  0.0000000  1.0000000  0.0000000 )
                  (  0.0000000  0.0000000  1.0000000 )


     point group C_1 (1)    
     there are  1 classes
     the character table:

       E    
A      1.00

     the symmetry operations in each class and the name of the first element:

     E        1
          identity                                               

   Cartesian axes

     site n.     atom                  positions (alat units)
         1        Li     tau(   1) = (   0.2502412   0.3263062   3.0459274  )
         2        Li     tau(   2) = (   0.0003064   0.6235420   3.2612444  )
         3        Li     tau(   3) = (   0.0001245   0.1692446   3.3709853  )
         4        Li     tau(   4) = (   0.2501252   0.4635775   3.5710809  )
         5        Li     tau(   5) = (   0.2498645   0.0108509   3.6966413  )
         6        Li     tau(   6) = (  -0.0001153   0.3051332   3.8968640  )
         7        Li     tau(   7) = (   0.2496958   0.6414310   4.0066286  )
         8        Li     tau(   8) = (   0.2497629   0.1479460   4.2221314  )
         9        Li     tau(   9) = (  -0.0003816   0.5010153   4.3312482  )
        10        Li     tau(  10) = (   0.5003873  -0.0267771   2.9368104  )
        11        Li     tau(  11) = (   0.7502309   0.3263074   3.0459203  )
        12        Li     tau(  12) = (   0.5003092   0.6235213   3.2612353  )
        13        Li     tau(  13) = (   0.5001088   0.1692326   3.3709901  )
        14        Li     tau(  14) = (   0.7501423   0.4635873   3.5710989  )
        15        Li     tau(  15) = (   0.7498644   0.0108556   3.6966292  )
        16        Li     tau(  16) = (   0.4998826   0.3051484   3.8968721  )
        17        Li     tau(  17) = (   0.7496886   0.6414323   4.0066155  )
        18        Li     tau(  18) = (   0.7497702   0.1479504   4.2221143  )
        19        Li     tau(  19) = (   0.4996119   0.5010114   4.3312333  )
        20        Li     tau(  20) = (   1.0003804  -0.0267599   2.9368037  )

   Crystallographic axes

     site n.     atom                  positions (cryst. coord.)
         1        Li     tau(   1) = (  0.3534283  0.4127485  0.4190927  )
         2        Li     tau(   2) = (  0.1974878  0.7887256  0.4487184  )
         3        Li     tau(   3) = (  0.0536444  0.2140795  0.4638178  )
         4        Li     tau(   4) = (  0.3967214  0.5863847  0.4913492  )
         5        Li     tau(   5) = (  0.2532959  0.0137254  0.5086252  )
         6        Li     tau(   6) = (  0.0963763  0.3859665  0.5361741  )
         7        Li     tau(   7) = (  0.4525343  0.8113536  0.5512767  )
         8        Li     tau(   8) = (  0.2965476  0.1871386  0.5809280  )
         9        Li     tau(   9) = (  0.1580535  0.6337402  0.5959415  )
        10        Li     tau(  10) = (  0.4919197 -0.0338706  0.4040792  )
        11        Li     tau(  11) = (  0.8534184  0.4127500  0.4190918  )
        12        Li     tau(  12) = (  0.6974840  0.7886994  0.4487172  )
        13        Li     tau(  13) = (  0.5536248  0.2140643  0.4638185  )
        14        Li     tau(  14) = (  0.8967416  0.5863971  0.4913517  )
        15        Li     tau(  15) = (  0.7532973  0.0137314  0.5086236  )
        16        Li     tau(  16) = (  0.5963790  0.3859858  0.5361752  )
        17        Li     tau(  17) = (  0.9525274  0.8113552  0.5512749  )
        18        Li     tau(  18) = (  0.7965563  0.1871441  0.5809257  )
        19        Li     tau(  19) = (  0.6580457  0.6337352  0.5959395  )
        20        Li     tau(  20) = (  0.9919182 -0.0338489  0.4040783  )

     number of k points=    62  Marzari-Vanderbilt smearing, width (Ry)=  0.0100
                       cart. coord. in units 2pi/alat
        k(    1) = (   0.0000000   0.0000000   0.0000000), wk =   0.0166667
        k(    2) = (   0.0000000   0.1054093   0.0000000), wk =   0.0333333
        k(    3) = (   0.0000000   0.2108186   0.0000000), wk =   0.0333333
        k(    4) = (   0.0000000   0.3162279   0.0000000), wk =   0.0333333
        k(    5) = (   0.0000000   0.4216372   0.0000000), wk =   0.0333333
        k(    6) = (   0.0000000   0.5270466   0.0000000), wk =   0.0333333
        k(    7) = (   0.0000000  -0.6324559   0.0000000), wk =   0.0166667
        k(    8) = (   0.1000000   0.0316228   0.0000000), wk =   0.0333333
        k(    9) = (   0.1000000   0.1370321   0.0000000), wk =   0.0333333
        k(   10) = (   0.1000000   0.2424414   0.0000000), wk =   0.0333333
        k(   11) = (   0.1000000   0.3478507   0.0000000), wk =   0.0333333
        k(   12) = (   0.1000000   0.4532600   0.0000000), wk =   0.0333333
        k(   13) = (   0.1000000   0.5586693   0.0000000), wk =   0.0333333
        k(   14) = (   0.1000000  -0.6008331   0.0000000), wk =   0.0333333
        k(   15) = (   0.1000000  -0.4954238   0.0000000), wk =   0.0333333
        k(   16) = (   0.1000000  -0.3900144   0.0000000), wk =   0.0333333
        k(   17) = (   0.1000000  -0.2846051   0.0000000), wk =   0.0333333
        k(   18) = (   0.1000000  -0.1791958   0.0000000), wk =   0.0333333
        k(   19) = (   0.1000000  -0.0737865   0.0000000), wk =   0.0333333
        k(   20) = (   0.2000000   0.0632456   0.0000000), wk =   0.0333333
        k(   21) = (   0.2000000   0.1686549   0.0000000), wk =   0.0333333
        k(   22) = (   0.2000000   0.2740642   0.0000000), wk =   0.0333333
        k(   23) = (   0.2000000   0.3794735   0.0000000), wk =   0.0333333
        k(   24) = (   0.2000000   0.4848828   0.0000000), wk =   0.0333333
        k(   25) = (   0.2000000   0.5902921   0.0000000), wk =   0.0333333
        k(   26) = (   0.2000000  -0.5692103   0.0000000), wk =   0.0333333
        k(   27) = (   0.2000000  -0.4638010   0.0000000), wk =   0.0333333
        k(   28) = (   0.2000000  -0.3583917   0.0000000), wk =   0.0333333
        k(   29) = (   0.2000000  -0.2529823   0.0000000), wk =   0.0333333
        k(   30) = (   0.2000000  -0.1475730   0.0000000), wk =   0.0333333
        k(   31) = (   0.2000000  -0.0421637   0.0000000), wk =   0.0333333
        k(   32) = (   0.3000000   0.0948684   0.0000000), wk =   0.0333333
        k(   33) = (   0.3000000   0.2002777   0.0000000), wk =   0.0333333
        k(   34) = (   0.3000000   0.3056870   0.0000000), wk =   0.0333333
        k(   35) = (   0.3000000   0.4110963   0.0000000), wk =   0.0333333
        k(   36) = (   0.3000000   0.5165056   0.0000000), wk =   0.0333333
        k(   37) = (   0.3000000   0.6219149   0.0000000), wk =   0.0333333
        k(   38) = (   0.3000000  -0.5375875   0.0000000), wk =   0.0333333
        k(   39) = (   0.3000000  -0.4321782   0.0000000), wk =   0.0333333
        k(   40) = (   0.3000000  -0.3267689   0.0000000), wk =   0.0333333
        k(   41) = (   0.3000000  -0.2213596   0.0000000), wk =   0.0333333
        k(   42) = (   0.3000000  -0.1159502   0.0000000), wk =   0.0333333
        k(   43) = (   0.3000000  -0.0105409   0.0000000), wk =   0.0333333
        k(   44) = (   0.4000000   0.1264912   0.0000000), wk =   0.0333333
        k(   45) = (   0.4000000   0.2319005   0.0000000), wk =   0.0333333
        k(   46) = (   0.4000000   0.3373098   0.0000000), wk =   0.0333333
        k(   47) = (   0.4000000   0.4427191   0.0000000), wk =   0.0333333
        k(   48) = (   0.4000000   0.5481284   0.0000000), wk =   0.0333333
        k(   49) = (   0.4000000   0.6535377   0.0000000), wk =   0.0333333
        k(   50) = (   0.4000000  -0.5059647   0.0000000), wk =   0.0333333
        k(   51) = (   0.4000000  -0.4005554   0.0000000), wk =   0.0333333
        k(   52) = (   0.4000000  -0.2951461   0.0000000), wk =   0.0333333
        k(   53) = (   0.4000000  -0.1897368   0.0000000), wk =   0.0333333
        k(   54) = (   0.4000000  -0.0843274   0.0000000), wk =   0.0333333
        k(   55) = (   0.4000000   0.0210819   0.0000000), wk =   0.0333333
        k(   56) = (  -0.5000000  -0.1581140   0.0000000), wk =   0.0166667
        k(   57) = (  -0.5000000  -0.0527047   0.0000000), wk =   0.0333333
        k(   58) = (  -0.5000000   0.0527047   0.0000000), wk =   0.0333333
        k(   59) = (  -0.5000000   0.1581140   0.0000000), wk =   0.0333333
        k(   60) = (  -0.5000000   0.2635233   0.0000000), wk =   0.0333333
        k(   61) = (  -0.5000000   0.3689326   0.0000000), wk =   0.0333333
        k(   62) = (  -0.5000000  -0.7905698   0.0000000), wk =   0.0166667

                       cryst. coord.
        k(    1) = (   0.0000000   0.0000000   0.0000000), wk =   0.0166667
        k(    2) = (   0.0000000   0.0833333   0.0000000), wk =   0.0333333
        k(    3) = (   0.0000000   0.1666667   0.0000000), wk =   0.0333333
        k(    4) = (   0.0000000   0.2500000   0.0000000), wk =   0.0333333
        k(    5) = (   0.0000000   0.3333333   0.0000000), wk =   0.0333333
        k(    6) = (   0.0000000   0.4166667   0.0000000), wk =   0.0333333
        k(    7) = (   0.0000000  -0.5000000   0.0000000), wk =   0.0166667
        k(    8) = (   0.1000000  -0.0000000   0.0000000), wk =   0.0333333
        k(    9) = (   0.1000000   0.0833333   0.0000000), wk =   0.0333333
        k(   10) = (   0.1000000   0.1666667   0.0000000), wk =   0.0333333
        k(   11) = (   0.1000000   0.2500000   0.0000000), wk =   0.0333333
        k(   12) = (   0.1000000   0.3333333   0.0000000), wk =   0.0333333
        k(   13) = (   0.1000000   0.4166667   0.0000000), wk =   0.0333333
        k(   14) = (   0.1000000  -0.5000000   0.0000000), wk =   0.0333333
        k(   15) = (   0.1000000  -0.4166667   0.0000000), wk =   0.0333333
        k(   16) = (   0.1000000  -0.3333333   0.0000000), wk =   0.0333333
        k(   17) = (   0.1000000  -0.2500000   0.0000000), wk =   0.0333333
        k(   18) = (   0.1000000  -0.1666667   0.0000000), wk =   0.0333333
        k(   19) = (   0.1000000  -0.0833333   0.0000000), wk =   0.0333333
        k(   20) = (   0.2000000  -0.0000000   0.0000000), wk =   0.0333333
        k(   21) = (   0.2000000   0.0833333   0.0000000), wk =   0.0333333
        k(   22) = (   0.2000000   0.1666667   0.0000000), wk =   0.0333333
        k(   23) = (   0.2000000   0.2500000   0.0000000), wk =   0.0333333
        k(   24) = (   0.2000000   0.3333333   0.0000000), wk =   0.0333333
        k(   25) = (   0.2000000   0.4166667   0.0000000), wk =   0.0333333
        k(   26) = (   0.2000000  -0.5000000   0.0000000), wk =   0.0333333
        k(   27) = (   0.2000000  -0.4166667   0.0000000), wk =   0.0333333
        k(   28) = (   0.2000000  -0.3333333   0.0000000), wk =   0.0333333
        k(   29) = (   0.2000000  -0.2500000   0.0000000), wk =   0.0333333
        k(   30) = (   0.2000000  -0.1666667   0.0000000), wk =   0.0333333
        k(   31) = (   0.2000000  -0.0833333   0.0000000), wk =   0.0333333
        k(   32) = (   0.3000000  -0.0000000   0.0000000), wk =   0.0333333
        k(   33) = (   0.3000000   0.0833333   0.0000000), wk =   0.0333333
        k(   34) = (   0.3000000   0.1666667   0.0000000), wk =   0.0333333
        k(   35) = (   0.3000000   0.2500000   0.0000000), wk =   0.0333333
        k(   36) = (   0.3000000   0.3333333   0.0000000), wk =   0.0333333
        k(   37) = (   0.3000000   0.4166667   0.0000000), wk =   0.0333333
        k(   38) = (   0.3000000  -0.5000000   0.0000000), wk =   0.0333333
        k(   39) = (   0.3000000  -0.4166667   0.0000000), wk =   0.0333333
        k(   40) = (   0.3000000  -0.3333333   0.0000000), wk =   0.0333333
        k(   41) = (   0.3000000  -0.2500000   0.0000000), wk =   0.0333333
        k(   42) = (   0.3000000  -0.1666667   0.0000000), wk =   0.0333333
        k(   43) = (   0.3000000  -0.0833333   0.0000000), wk =   0.0333333
        k(   44) = (   0.4000000  -0.0000000   0.0000000), wk =   0.0333333
        k(   45) = (   0.4000000   0.0833333   0.0000000), wk =   0.0333333
        k(   46) = (   0.4000000   0.1666667   0.0000000), wk =   0.0333333
        k(   47) = (   0.4000000   0.2500000   0.0000000), wk =   0.0333333
        k(   48) = (   0.4000000   0.3333333   0.0000000), wk =   0.0333333
        k(   49) = (   0.4000000   0.4166667   0.0000000), wk =   0.0333333
        k(   50) = (   0.4000000  -0.5000000   0.0000000), wk =   0.0333333
        k(   51) = (   0.4000000  -0.4166667   0.0000000), wk =   0.0333333
        k(   52) = (   0.4000000  -0.3333333   0.0000000), wk =   0.0333333
        k(   53) = (   0.4000000  -0.2500000   0.0000000), wk =   0.0333333
        k(   54) = (   0.4000000  -0.1666667   0.0000000), wk =   0.0333333
        k(   55) = (   0.4000000  -0.0833333   0.0000000), wk =   0.0333333
        k(   56) = (  -0.5000000   0.0000000   0.0000000), wk =   0.0166667
        k(   57) = (  -0.5000000   0.0833333   0.0000000), wk =   0.0333333
        k(   58) = (  -0.5000000   0.1666667   0.0000000), wk =   0.0333333
        k(   59) = (  -0.5000000   0.2500000   0.0000000), wk =   0.0333333
        k(   60) = (  -0.5000000   0.3333333   0.0000000), wk =   0.0333333
        k(   61) = (  -0.5000000   0.4166667   0.0000000), wk =   0.0333333
        k(   62) = (  -0.5000000  -0.5000000   0.0000000), wk =   0.0166667

     Dense  grid:  4805333 G-vectors     FFT dimensions: ( 120, 100, 864)

     Smooth grid:  1215433 G-vectors     FFT dimensions: (  75,  64, 540)

     Dynamical RAM for                 wfc:       0.41 MB

     Dynamical RAM for     wfc (w. buffer):      13.03 MB

     Dynamical RAM for           str. fact:       0.29 MB

     Dynamical RAM for           local pot:       0.00 MB

     Dynamical RAM for          nlocal pot:       1.45 MB

     Dynamical RAM for                qrad:       0.65 MB

     Dynamical RAM for          rho,v,vnew:       1.96 MB

     Dynamical RAM for               rhoin:       0.65 MB

     Dynamical RAM for            rho*nmix:       4.59 MB

     Dynamical RAM for           G-vectors:       1.11 MB

     Dynamical RAM for          h,s,v(r/c):       1.48 MB

     Dynamical RAM for          <psi|beta>:       0.11 MB

     Dynamical RAM for                 psi:       1.63 MB

     Dynamical RAM for                hpsi:       1.63 MB

     Dynamical RAM for                spsi:       1.63 MB

     Dynamical RAM for      wfcinit/wfcrot:       0.86 MB

     Dynamical RAM for           addusdens:       9.17 MB

     Dynamical RAM for          addusforce:      14.64 MB

     Estimated static dynamical RAM per process >      21.54 MB

     Estimated max dynamical RAM per process >      73.32 MB

     Estimated total dynamical RAM >      19.24 GB

     Initial potential from superposition of free atoms

     starting charge      59.9078, renormalised to      60.0000

     negative rho (up, down):  2.172E-03 0.000E+00
     Starting wfcs are random
     Checking if some PAW data can be deallocated... 

     total cpu time spent up to now is       19.4 secs

     Self-consistent Calculation

     iteration #  1     ecut=    80.00 Ry     beta= 0.20
     Davidson diagonalization with overlap

---- Real-time Memory Report at c_bands before calling an iterative solver
           267 MiB given to the printing process from OS
             0 MiB allocation reported by mallinfo(arena+hblkhd)
        477175 MiB available memory on the node where the printing process lives
------------------
     c_bands:  1 eigenvalues not converged
     ethr =  1.00E-12,  avg # of iterations = 98.2

     negative rho (up, down):  1.612E-03 0.000E+00

     add environment contribution to local potential

     total cpu time spent up to now is      142.6 secs

     total energy              =    -300.84148652 Ry
     estimated scf accuracy    <       0.08427879 Ry

     total charge of GC-SCF    =      -0.01539434 e
     the Fermi energy          =      -4.42182474 eV
                        (error :       3.01782474 eV)
     electrostatic embedding   =       0.00000000 Ry
     cavitation energy         =       0.01492078 Ry
     electrolyte free energy   =       0.00541203 Ry
     correction to one-el term =      -0.00000000 Ry

     iteration #  2     ecut=    80.00 Ry     beta= 0.20
     Davidson diagonalization with overlap

---- Real-time Memory Report at c_bands before calling an iterative solver
           267 MiB given to the printing process from OS
             0 MiB allocation reported by mallinfo(arena+hblkhd)
        478434 MiB available memory on the node where the printing process lives
------------------
     ethr =  1.00E-05,  avg # of iterations = 15.4

     negative rho (up, down):  1.255E-03 0.000E+00

     add environment contribution to local potential

     total cpu time spent up to now is      163.8 secs

     total energy              =    -300.81797263 Ry
     estimated scf accuracy    <       0.02109294 Ry

     total charge of GC-SCF    =      -0.04109562 e
     the Fermi energy          =      -3.30530970 eV
                        (error :       1.90130970 eV)
     electrostatic embedding   =      -0.01975221 Ry
     cavitation energy         =       0.01492078 Ry
     electrolyte free energy   =      -0.00293052 Ry
     correction to one-el term =       0.17512882 Ry

     iteration #  3     ecut=    80.00 Ry     beta= 0.20
     Davidson diagonalization with overlap

---- Real-time Memory Report at c_bands before calling an iterative solver
           267 MiB given to the printing process from OS
             0 MiB allocation reported by mallinfo(arena+hblkhd)
        478418 MiB available memory on the node where the printing process lives
------------------
     ethr =  1.00E-05,  avg # of iterations = 10.7

     negative rho (up, down):  9.777E-04 0.000E+00

     add environment contribution to local potential

     total cpu time spent up to now is      179.5 secs

     total energy              =    -300.70367627 Ry
     estimated scf accuracy    <       0.01481814 Ry

     total charge of GC-SCF    =      -0.15511804 e
     the Fermi energy          =      -3.00165832 eV
                        (error :       1.59765832 eV)
     electrostatic embedding   =      -0.01870251 Ry
     cavitation energy         =       0.01492078 Ry
     electrolyte free energy   =      -0.00213118 Ry
     correction to one-el term =       1.11484875 Ry

     iteration #  4     ecut=    80.00 Ry     beta= 0.20
     Davidson diagonalization with overlap

---- Real-time Memory Report at c_bands before calling an iterative solver
           267 MiB given to the printing process from OS
             0 MiB allocation reported by mallinfo(arena+hblkhd)
        478446 MiB available memory on the node where the printing process lives
------------------
     ethr =  1.00E-05,  avg # of iterations = 14.1

     negative rho (up, down):  8.240E-04 0.000E+00

     add environment contribution to local potential

     total cpu time spent up to now is      199.5 secs

     total energy              =    -300.73722602 Ry
     estimated scf accuracy    <       0.00305277 Ry

     total charge of GC-SCF    =      -0.25600797 e
     the Fermi energy          =      -2.59658727 eV
                        (error :       1.19258727 eV)
     electrostatic embedding   =      -0.02549791 Ry
     cavitation energy         =       0.01492078 Ry
     electrolyte free energy   =      -0.00073467 Ry
     correction to one-el term =       6.03974911 Ry

     iteration #  5     ecut=    80.00 Ry     beta= 0.20
     Davidson diagonalization with overlap

---- Real-time Memory Report at c_bands before calling an iterative solver
           267 MiB given to the printing process from OS
             0 MiB allocation reported by mallinfo(arena+hblkhd)
        478447 MiB available memory on the node where the printing process lives
------------------
     ethr =  5.07E-06,  avg # of iterations = 13.5

     negative rho (up, down):  7.584E-04 0.000E+00

     add environment contribution to local potential

     total cpu time spent up to now is      218.8 secs

     total energy              =    -300.70480975 Ry
     estimated scf accuracy    <       0.00259744 Ry

     total charge of GC-SCF    =      -0.50925495 e
     the Fermi energy          =      -2.42030989 eV
                        (error :       1.01630989 eV)
     electrostatic embedding   =      -0.04116233 Ry
     cavitation energy         =       0.01492078 Ry
     electrolyte free energy   =      -0.00058635 Ry
     correction to one-el term =      10.10129571 Ry

     iteration #  6     ecut=    80.00 Ry     beta= 0.20
     Davidson diagonalization with overlap

---- Real-time Memory Report at c_bands before calling an iterative solver
           267 MiB given to the printing process from OS
             0 MiB allocation reported by mallinfo(arena+hblkhd)
        478460 MiB available memory on the node where the printing process lives
------------------
     ethr =  4.29E-06,  avg # of iterations = 11.6

     negative rho (up, down):  6.679E-04 0.000E+00

     add environment contribution to local potential

     total cpu time spent up to now is      236.4 secs

     total energy              =    -300.77094011 Ry
     estimated scf accuracy    <       0.00307237 Ry

     total charge of GC-SCF    =      -0.59128228 e
     the Fermi energy          =      -2.25301661 eV
                        (error :       0.84901661 eV)
     electrostatic embedding   =      -0.11023393 Ry
     cavitation energy         =       0.01492078 Ry
     electrolyte free energy   =      -0.00103894 Ry
     correction to one-el term =      19.32292452 Ry

     iteration #  7     ecut=    80.00 Ry     beta= 0.20
     Davidson diagonalization with overlap

---- Real-time Memory Report at c_bands before calling an iterative solver
           267 MiB given to the printing process from OS
             0 MiB allocation reported by mallinfo(arena+hblkhd)
        478451 MiB available memory on the node where the printing process lives
------------------
     ethr =  4.29E-06,  avg # of iterations =  4.9

     negative rho (up, down):  5.961E-04 0.000E+00

     add environment contribution to local potential

     total cpu time spent up to now is      247.3 secs

     total energy              =    -300.71350509 Ry
     estimated scf accuracy    <       0.00182313 Ry

     total charge of GC-SCF    =      -1.16974266 e
     the Fermi energy          =      -2.27874195 eV
                        (error :       0.87474195 eV)
     electrostatic embedding   =      -0.14087996 Ry
     cavitation energy         =       0.01492078 Ry
     electrolyte free energy   =      -0.00113739 Ry
     correction to one-el term =      22.02088936 Ry

     iteration #  8     ecut=    80.00 Ry     beta= 0.20
     Davidson diagonalization with overlap

---- Real-time Memory Report at c_bands before calling an iterative solver
           267 MiB given to the printing process from OS
             0 MiB allocation reported by mallinfo(arena+hblkhd)
        478444 MiB available memory on the node where the printing process lives
------------------
     ethr =  2.98E-06,  avg # of iterations = 12.3

     negative rho (up, down):  5.348E-04 0.000E+00

     add environment contribution to local potential

     total cpu time spent up to now is      265.4 secs

     total energy              =    -300.81945898 Ry
     estimated scf accuracy    <       0.00379128 Ry

     total charge of GC-SCF    =      -1.26542738 e
     the Fermi energy          =      -2.06402699 eV
                        (error :       0.66002699 eV)
     electrostatic embedding   =      -0.45422487 Ry
     cavitation energy         =       0.01492078 Ry
     electrolyte free energy   =      -0.00380592 Ry
     correction to one-el term =      40.83940522 Ry

     iteration #  9     ecut=    80.00 Ry     beta= 0.20
     Davidson diagonalization with overlap

---- Real-time Memory Report at c_bands before calling an iterative solver
           267 MiB given to the printing process from OS
             0 MiB allocation reported by mallinfo(arena+hblkhd)
        478441 MiB available memory on the node where the printing process lives
------------------
     ethr =  2.98E-06,  avg # of iterations =  4.3

     negative rho (up, down):  4.605E-04 0.000E+00

     add environment contribution to local potential

     total cpu time spent up to now is      275.7 secs

     total energy              =    -300.81308026 Ry
     estimated scf accuracy    <       0.00338868 Ry

     total charge of GC-SCF    =      -1.45190417 e
     the Fermi energy          =      -2.06198251 eV
                        (error :       0.65798251 eV)
     electrostatic embedding   =      -0.52330988 Ry
     cavitation energy         =       0.01492078 Ry
     electrolyte free energy   =      -0.00439763 Ry
     correction to one-el term =      43.84961005 Ry

     iteration # 10     ecut=    80.00 Ry     beta= 0.20
     Davidson diagonalization with overlap

---- Real-time Memory Report at c_bands before calling an iterative solver
           267 MiB given to the printing process from OS
             0 MiB allocation reported by mallinfo(arena+hblkhd)
        478407 MiB available memory on the node where the printing process lives
------------------
     ethr =  2.98E-06,  avg # of iterations =  8.8

     negative rho (up, down):  4.083E-04 0.000E+00

     add environment contribution to local potential

     total cpu time spent up to now is      290.0 secs

     total energy              =    -300.81740113 Ry
     estimated scf accuracy    <       0.00377375 Ry

     total charge of GC-SCF    =      -1.68424398 e
     the Fermi energy          =      -2.01571836 eV
                        (error :       0.61171836 eV)
     electrostatic embedding   =      -0.66640009 Ry
     cavitation energy         =       0.01492078 Ry
     electrolyte free energy   =      -0.00591304 Ry
     correction to one-el term =      49.41847672 Ry

     iteration # 11     ecut=    80.00 Ry     beta= 0.20
     Davidson diagonalization with overlap

---- Real-time Memory Report at c_bands before calling an iterative solver
           267 MiB given to the printing process from OS
             0 MiB allocation reported by mallinfo(arena+hblkhd)
        478419 MiB available memory on the node where the printing process lives
------------------
     ethr =  2.98E-06,  avg # of iterations =  7.9

     negative rho (up, down):  3.490E-04 0.000E+00

     add environment contribution to local potential

     total cpu time spent up to now is      304.5 secs

     total energy              =    -301.05844387 Ry
     estimated scf accuracy    <       0.00202751 Ry

     total charge of GC-SCF    =      -3.04965209 e
     the Fermi energy          =      -2.03272585 eV
                        (error :       0.62872585 eV)
     electrostatic embedding   =      -0.87078063 Ry
     cavitation energy         =       0.01492078 Ry
     electrolyte free energy   =      -0.00815202 Ry
     correction to one-el term =      56.31828452 Ry

     iteration # 12     ecut=    80.00 Ry     beta= 0.20
     Davidson diagonalization with overlap

---- Real-time Memory Report at c_bands before calling an iterative solver
           267 MiB given to the printing process from OS
             0 MiB allocation reported by mallinfo(arena+hblkhd)
        478420 MiB available memory on the node where the printing process lives
------------------
     ethr =  2.98E-06,  avg # of iterations = 17.3

     negative rho (up, down):  3.163E-04 0.000E+00

     add environment contribution to local potential

     total cpu time spent up to now is      326.8 secs

     total energy              =    -300.91574061 Ry
     estimated scf accuracy    <       0.00110501 Ry

     total charge of GC-SCF    =      -3.06415374 e
     the Fermi energy          =      -1.60342247 eV
                        (error :       0.19942247 eV)
     electrostatic embedding   =      -2.61375543 Ry
     cavitation energy         =       0.01492078 Ry
     electrolyte free energy   =      -0.04266939 Ry
     correction to one-el term =      97.95759004 Ry

     iteration # 13     ecut=    80.00 Ry     beta= 0.20
     Davidson diagonalization with overlap

---- Real-time Memory Report at c_bands before calling an iterative solver
           267 MiB given to the printing process from OS
             0 MiB allocation reported by mallinfo(arena+hblkhd)
        478421 MiB available memory on the node where the printing process lives
------------------
     ethr =  1.75E-06,  avg # of iterations =  5.7

     negative rho (up, down):  2.704E-04 0.000E+00

     add environment contribution to local potential

     total cpu time spent up to now is      339.0 secs

     total energy              =    -300.94062584 Ry
     estimated scf accuracy    <       0.00079028 Ry

     total charge of GC-SCF    =      -3.59435432 e
     the Fermi energy          =      -1.61371897 eV
                        (error :       0.20971897 eV)
     electrostatic embedding   =      -2.62730265 Ry
     cavitation energy         =       0.01492078 Ry
     electrolyte free energy   =      -0.04318636 Ry
     correction to one-el term =      98.03901510 Ry

     iteration # 14     ecut=    80.00 Ry     beta= 0.20
     Davidson diagonalization with overlap

---- Real-time Memory Report at c_bands before calling an iterative solver
           267 MiB given to the printing process from OS
             0 MiB allocation reported by mallinfo(arena+hblkhd)
        478421 MiB available memory on the node where the printing process lives
------------------
     ethr =  1.24E-06,  avg # of iterations = 11.8

     negative rho (up, down):  2.490E-04 0.000E+00

     add environment contribution to local potential

     total cpu time spent up to now is      358.4 secs

     total energy              =    -300.92781848 Ry
     estimated scf accuracy    <       0.00014123 Ry

     total charge of GC-SCF    =      -3.51949536 e
     the Fermi energy          =      -1.48634284 eV
                        (error :       0.08234284 eV)
     electrostatic embedding   =      -3.48606666 Ry
     cavitation energy         =       0.01492078 Ry
     electrolyte free energy   =      -0.06931563 Ry
     correction to one-el term =     112.09917922 Ry

     iteration # 15     ecut=    80.00 Ry     beta= 0.20
     Davidson diagonalization with overlap

---- Real-time Memory Report at c_bands before calling an iterative solver
           267 MiB given to the printing process from OS
             0 MiB allocation reported by mallinfo(arena+hblkhd)
        478419 MiB available memory on the node where the printing process lives
------------------
     ethr =  2.22E-07,  avg # of iterations = 12.4

     negative rho (up, down):  2.289E-04 0.000E+00

     add environment contribution to local potential

     total cpu time spent up to now is      377.8 secs

     total energy              =    -300.93521477 Ry
     estimated scf accuracy    <       0.00004582 Ry

     total charge of GC-SCF    =      -3.85261476 e
     the Fermi energy          =      -1.57909602 eV
                        (error :       0.17509602 eV)
     electrostatic embedding   =      -3.32797367 Ry
     cavitation energy         =       0.01492078 Ry
     electrolyte free energy   =      -0.06466702 Ry
     correction to one-el term =     108.98155619 Ry

     iteration # 16     ecut=    80.00 Ry     beta= 0.20
     Davidson diagonalization with overlap

---- Real-time Memory Report at c_bands before calling an iterative solver
           267 MiB given to the printing process from OS
             0 MiB allocation reported by mallinfo(arena+hblkhd)
        478424 MiB available memory on the node where the printing process lives
------------------
     ethr =  7.18E-08,  avg # of iterations = 22.2

     negative rho (up, down):  2.165E-04 0.000E+00

     add environment contribution to local potential

     total cpu time spent up to now is      406.3 secs

     total energy              =    -300.92891114 Ry
     estimated scf accuracy    <       0.00008648 Ry

     total charge of GC-SCF    =      -3.72911734 e
     the Fermi energy          =      -1.38325918 eV
                        (error :       0.02074082 eV)
     electrostatic embedding   =      -3.91234889 Ry
     cavitation energy         =       0.01492078 Ry
     electrolyte free energy   =      -0.08653292 Ry
     correction to one-el term =     118.13271980 Ry

     iteration # 17     ecut=    80.00 Ry     beta= 0.20
     Davidson diagonalization with overlap

---- Real-time Memory Report at c_bands before calling an iterative solver
           267 MiB given to the printing process from OS
             0 MiB allocation reported by mallinfo(arena+hblkhd)
        478428 MiB available memory on the node where the printing process lives
------------------
     ethr =  7.18E-08,  avg # of iterations = 13.3

     negative rho (up, down):  2.053E-04 0.000E+00

     add environment contribution to local potential

     total cpu time spent up to now is      426.3 secs

     total energy              =    -300.93594983 Ry
     estimated scf accuracy    <       0.00007447 Ry

     total charge of GC-SCF    =      -3.97186711 e
     the Fermi energy          =      -1.45392311 eV
                        (error :       0.04992311 eV)
     electrostatic embedding   =      -3.64788631 Ry
     cavitation energy         =       0.01492078 Ry
     electrolyte free energy   =      -0.07751640 Ry
     correction to one-el term =     113.56196982 Ry

     iteration # 18     ecut=    80.00 Ry     beta= 0.20
     Davidson diagonalization with overlap

---- Real-time Memory Report at c_bands before calling an iterative solver
           267 MiB given to the printing process from OS
             0 MiB allocation reported by mallinfo(arena+hblkhd)
        478429 MiB available memory on the node where the printing process lives
------------------
     ethr =  7.18E-08,  avg # of iterations = 12.1

     negative rho (up, down):  1.988E-04 0.000E+00

     add environment contribution to local potential

     total cpu time spent up to now is      445.5 secs

     total energy              =    -300.94203654 Ry
     estimated scf accuracy    <       0.00001942 Ry

     total charge of GC-SCF    =      -3.68434252 e
     the Fermi energy          =      -1.36534895 eV
                        (error :       0.03865105 eV)
     electrostatic embedding   =      -4.09679075 Ry
     cavitation energy         =       0.01492078 Ry
     electrolyte free energy   =      -0.09648492 Ry
     correction to one-el term =     120.30734641 Ry

     iteration # 19     ecut=    80.00 Ry     beta= 0.20
     Davidson diagonalization with overlap

---- Real-time Memory Report at c_bands before calling an iterative solver
           267 MiB given to the printing process from OS
             0 MiB allocation reported by mallinfo(arena+hblkhd)
        478423 MiB available memory on the node where the printing process lives
------------------
     ethr =  3.05E-08,  avg # of iterations = 20.3

     negative rho (up, down):  1.872E-04 0.000E+00

     add environment contribution to local potential

     total cpu time spent up to now is      473.0 secs

     total energy              =    -300.92674196 Ry
     estimated scf accuracy    <       0.00001676 Ry

     total charge of GC-SCF    =      -3.82308562 e
     the Fermi energy          =      -1.50320188 eV
                        (error :       0.09920188 eV)
     electrostatic embedding   =      -3.55150151 Ry
     cavitation energy         =       0.01492078 Ry
     electrolyte free energy   =      -0.07443927 Ry
     correction to one-el term =     111.82327457 Ry

     iteration # 20     ecut=    80.00 Ry     beta= 0.20
     Davidson diagonalization with overlap

---- Real-time Memory Report at c_bands before calling an iterative solver
           267 MiB given to the printing process from OS
             0 MiB allocation reported by mallinfo(arena+hblkhd)
        478379 MiB available memory on the node where the printing process lives
------------------
     ethr =  2.63E-08,  avg # of iterations = 16.0

     negative rho (up, down):  1.827E-04 0.000E+00

     add environment contribution to local potential

     total cpu time spent up to now is      494.3 secs

     total energy              =    -300.92759013 Ry
     estimated scf accuracy    <       0.00000500 Ry

     total charge of GC-SCF    =      -3.92494124 e
     the Fermi energy          =      -1.46351467 eV
                        (error :       0.05951467 eV)
     electrostatic embedding   =      -3.76931287 Ry
     cavitation energy         =       0.01492078 Ry
     electrolyte free energy   =      -0.08385513 Ry
     correction to one-el term =     114.67616553 Ry

     iteration # 21     ecut=    80.00 Ry     beta= 0.20
     Davidson diagonalization with overlap

---- Real-time Memory Report at c_bands before calling an iterative solver
           267 MiB given to the printing process from OS
             0 MiB allocation reported by mallinfo(arena+hblkhd)
        478397 MiB available memory on the node where the printing process lives
------------------
     ethr =  7.82E-09,  avg # of iterations = 18.5

     negative rho (up, down):  1.782E-04 0.000E+00

     add environment contribution to local potential

     total cpu time spent up to now is      519.1 secs

     total energy              =    -300.92713034 Ry
     estimated scf accuracy    <       0.00000073 Ry

     total charge of GC-SCF    =      -3.92080185 e
     the Fermi energy          =      -1.41025074 eV
                        (error :       0.00625074 eV)
     electrostatic embedding   =      -3.95840371 Ry
     cavitation energy         =       0.01492078 Ry
     electrolyte free energy   =      -0.09200728 Ry
     correction to one-el term =     117.59749995 Ry

     iteration # 22     ecut=    80.00 Ry     beta= 0.20
     Davidson diagonalization with overlap

---- Real-time Memory Report at c_bands before calling an iterative solver
           267 MiB given to the printing process from OS
             0 MiB allocation reported by mallinfo(arena+hblkhd)
        478406 MiB available memory on the node where the printing process lives
------------------
     ethr =  1.15E-09,  avg # of iterations = 17.1

     negative rho (up, down):  1.752E-04 0.000E+00

     add environment contribution to local potential

     total cpu time spent up to now is      542.0 secs

     total energy              =    -300.92712677 Ry
     estimated scf accuracy    <       0.00000038 Ry

     total charge of GC-SCF    =      -3.92607928 e
     the Fermi energy          =      -1.41518978 eV
                        (error :       0.01118978 eV)
     electrostatic embedding   =      -3.94408551 Ry
     cavitation energy         =       0.01492078 Ry
     electrolyte free energy   =      -0.09162256 Ry
     correction to one-el term =     117.30572942 Ry

     iteration # 23     ecut=    80.00 Ry     beta= 0.20
     Davidson diagonalization with overlap

---- Real-time Memory Report at c_bands before calling an iterative solver
           267 MiB given to the printing process from OS
             0 MiB allocation reported by mallinfo(arena+hblkhd)
        478402 MiB available memory on the node where the printing process lives
------------------
     ethr =  5.96E-10,  avg # of iterations = 11.5

     negative rho (up, down):  1.726E-04 0.000E+00

     add environment contribution to local potential

     total cpu time spent up to now is      561.4 secs

     total energy              =    -300.92714921 Ry
     estimated scf accuracy    <       0.00000029 Ry

     total charge of GC-SCF    =      -3.94400007 e
     the Fermi energy          =      -1.41249072 eV
                        (error :       0.00849072 eV)
     electrostatic embedding   =      -3.95187017 Ry
     cavitation energy         =       0.01492078 Ry
     electrolyte free energy   =      -0.09207167 Ry
     correction to one-el term =     117.40637217 Ry

     iteration # 24     ecut=    80.00 Ry     beta= 0.20
     Davidson diagonalization with overlap

---- Real-time Memory Report at c_bands before calling an iterative solver
           267 MiB given to the printing process from OS
             0 MiB allocation reported by mallinfo(arena+hblkhd)
        478379 MiB available memory on the node where the printing process lives
------------------
     ethr =  4.57E-10,  avg # of iterations = 14.9

     negative rho (up, down):  1.653E-04 0.000E+00

     total cpu time spent up to now is      578.4 secs

     End of self-consistent calculation

          k = 0.0000 0.0000 0.0000 (152015 PWs)   bands (ev):

   -48.3593 -48.3590 -48.3577 -48.3574 -48.1774 -48.1770 -48.1759 -48.1755
   -47.9562 -47.9449 -47.9449 -47.9433 -47.9400 -47.9390 -47.9383 -47.9368
   -47.9337 -47.9332 -47.9322 -47.9312  -4.8380  -4.4287  -3.8565  -3.2147
    -2.4674  -2.1942  -2.1903  -1.8048  -1.7812  -1.4817  -1.3819  -1.1840
    -1.1332  -0.9832  -0.8914  -0.8863  -0.6695  -0.5431  -0.4516  -0.3096
    -0.2486  -0.0893  -0.0445   0.0654   0.1599

     occupation numbers 
     1.0000   1.0000   1.0000   1.0000   1.0000   1.0000   1.0000   1.0000
     1.0000   1.0000   1.0000   1.0000   1.0000   1.0000   1.0000   1.0000
     1.0000   1.0000   1.0000   1.0000   1.0000   1.0000   1.0000   1.0000
     1.0000   1.0000   1.0000   1.0019   1.0039   0.8126   0.2941   0.0023
     0.0003   0.0000   0.0000   0.0000   0.0000   0.0000   0.0000   0.0000
     0.0000   0.0000   0.0000   0.0000   0.0000

          k = 0.0000 0.1054 0.0000 (152006 PWs)   bands (ev):

   -48.3592 -48.3590 -48.3577 -48.3574 -48.1774 -48.1770 -48.1759 -48.1755
   -47.9560 -47.9449 -47.9448 -47.9433 -47.9403 -47.9390 -47.9383 -47.9369
   -47.9337 -47.9332 -47.9322 -47.9310  -4.8113  -4.4011  -3.8271  -3.1838
    -2.4376  -2.3148  -2.0237  -1.9087  -1.6498  -1.6422  -1.4518  -1.3839
    -1.2864  -1.0642  -0.8928  -0.8200  -0.6491  -0.6075  -0.4014  -0.3805
    -0.2068  -0.0080   0.0295   0.1490   0.2108

     occupation numbers 
     1.0000   1.0000   1.0000   1.0000   1.0000   1.0000   1.0000   1.0000
     1.0000   1.0000   1.0000   1.0000   1.0000   1.0000   1.0000   1.0000
     1.0000   1.0000   1.0000   1.0000   1.0000   1.0000   1.0000   1.0000
     1.0000   1.0000   1.0000   1.0000   1.0595   1.0646   0.6558   0.3032
     0.0463   0.0000   0.0000   0.0000   0.0000   0.0000   0.0000   0.0000
     0.0000   0.0000   0.0000   0.0000   0.0000

          k = 0.0000 0.2108 0.0000 (151950 PWs)   bands (ev):

   -48.3592 -48.3590 -48.3577 -48.3574 -48.1774 -48.1770 -48.1759 -48.1755
   -47.9553 -47.9449 -47.9447 -47.9433 -47.9411 -47.9390 -47.9383 -47.9372
   -47.9337 -47.9332 -47.9321 -47.9307  -4.7312  -4.3182  -3.7389  -3.0913
    -2.3891  -2.3489  -2.1764  -1.9799  -1.8134  -1.7534  -1.5157  -1.3828
    -1.3492  -1.2698  -1.1262  -0.8577  -0.8529  -0.6203  -0.3882  -0.3771
    -0.0886   0.0781   0.0989   0.2779   0.3411

     occupation numbers 
     1.0000   1.0000   1.0000   1.0000   1.0000   1.0000   1.0000   1.0000
     1.0000   1.0000   1.0000   1.0000   1.0000   1.0000   1.0000   1.0000
     1.0000   1.0000   1.0000   1.0000   1.0000   1.0000   1.0000   1.0000
     1.0000   1.0000   1.0000   1.0000   1.0015   1.0084   0.9557   0.2982
     0.1729   0.0306   0.0003   0.0000   0.0000   0.0000   0.0000   0.0000
     0.0000   0.0000   0.0000   0.0000   0.0000

          k = 0.0000 0.3162 0.0000 (151992 PWs)   bands (ev):

   -48.3592 -48.3589 -48.3577 -48.3574 -48.1774 -48.1770 -48.1759 -48.1755
   -47.9543 -47.9449 -47.9449 -47.9433 -47.9419 -47.9390 -47.9383 -47.9377
   -47.9337 -47.9332 -47.9321 -47.9304  -4.5977  -4.1804  -3.5924  -2.9378
    -2.6737  -2.4139  -2.2590  -2.1732  -2.0036  -1.5914  -1.5893  -1.5639
    -1.4630  -1.2583  -1.1437  -1.0950  -0.8477  -0.8298  -0.3732  -0.3634
    -0.0532   0.0627   0.2261   0.2801   0.3664

     occupation numbers 
     1.0000   1.0000   1.0000   1.0000   1.0000   1.0000   1.0000   1.0000
     1.0000   1.0000   1.0000   1.0000   1.0000   1.0000   1.0000   1.0000
     1.0000   1.0000   1.0000   1.0000   1.0000   1.0000   1.0000   1.0000
     1.0000   1.0000   1.0000   1.0000   1.0000   1.0829   1.0825   1.0658
     0.7166   0.0225   0.0005   0.0001   0.0000   0.0000   0.0000   0.0000
     0.0000   0.0000   0.0000   0.0000   0.0000

          k = 0.0000 0.4216 0.0000 (151948 PWs)   bands (ev):

   -48.3592 -48.3589 -48.3577 -48.3574 -48.1775 -48.1771 -48.1759 -48.1755
   -47.9529 -47.9459 -47.9449 -47.9433 -47.9419 -47.9390 -47.9383 -47.9383
   -47.9337 -47.9332 -47.9321 -47.9300  -4.4105  -3.9877  -3.3885  -3.1257
    -2.7263  -2.6816  -2.3891  -2.0462  -1.9800  -1.9731  -1.8132  -1.5159
    -1.3507  -1.3398  -1.2711  -1.0603  -0.8568  -0.8511  -0.4346  -0.3878
    -0.0890   0.0780   0.2679   0.3469   0.5232

     occupation numbers 
     1.0000   1.0000   1.0000   1.0000   1.0000   1.0000   1.0000   1.0000
     1.0000   1.0000   1.0000   1.0000   1.0000   1.0000   1.0000   1.0000
     1.0000   1.0000   1.0000   1.0000   1.0000   1.0000   1.0000   1.0000
     1.0000   1.0000   1.0000   1.0000   1.0000   1.0000   1.0015   0.9565
     0.1775   0.1457   0.0315   0.0000   0.0000   0.0000   0.0000   0.0000
     0.0000   0.0000   0.0000   0.0000   0.0000

          k = 0.0000 0.5270 0.0000 (152033 PWs)   bands (ev):

   -48.3592 -48.3589 -48.3577 -48.3574 -48.1775 -48.1771 -48.1759 -48.1755
   -47.9514 -47.9475 -47.9449 -47.9433 -47.9414 -47.9391 -47.9390 -47.9383
   -47.9337 -47.9332 -47.9320 -47.9298  -4.1697  -3.7408  -3.5266  -3.1279
    -3.0870  -2.4808  -2.4129  -2.3148  -2.0236  -1.9090  -1.7735  -1.6901
    -1.6426  -1.3862  -1.1137  -1.0658  -0.8900  -0.6071  -0.5782  -0.4000
    -0.0109   0.0301   0.2752   0.3328   0.5327

     occupation numbers 
     1.0000   1.0000   1.0000   1.0000   1.0000   1.0000   1.0000   1.0000
     1.0000   1.0000   1.0000   1.0000   1.0000   1.0000   1.0000   1.0000
     1.0000   1.0000   1.0000   1.0000   1.0000   1.0000   1.0000   1.0000
     1.0000   1.0000   1.0000   1.0000   1.0000   1.0000   1.0049   1.0330
     1.0644   0.3132   0.0002   0.0000   0.0000   0.0000   0.0000   0.0000
     0.0000   0.0000   0.0000   0.0000   0.0000

          k = 0.0000-0.6325 0.0000 (151994 PWs)   bands (ev):

   -48.3592 -48.3589 -48.3577 -48.3574 -48.1775 -48.1771 -48.1759 -48.1755
   -47.9502 -47.9487 -47.9449 -47.9433 -47.9411 -47.9395 -47.9390 -47.9383
   -47.9337 -47.9332 -47.9320 -47.9298  -3.8840  -3.8661  -3.4433  -3.4364
    -2.8142  -2.8130  -2.1941  -2.1903  -2.1360  -2.0973  -1.8052  -1.7815
    -1.5004  -1.3844  -1.3149  -0.9841  -0.8840  -0.5434  -0.5268  -0.3078
    -0.1046  -0.0876   0.3405   0.4026   0.4934

     occupation numbers 
     1.0000   1.0000   1.0000   1.0000   1.0000   1.0000   1.0000   1.0000
     1.0000   1.0000   1.0000   1.0000   1.0000   1.0000   1.0000   1.0000
     1.0000   1.0000   1.0000   1.0000   1.0000   1.0000   1.0000   1.0000
     1.0000   1.0000   1.0000   1.0000   1.0000   1.0000   1.0019   1.0039
     0.8975   0.3053   0.0884   0.0000   0.0000   0.0000   0.0000   0.0000
     0.0000   0.0000   0.0000   0.0000   0.0000

          k = 0.1000 0.0316 0.0000 (152067 PWs)   bands (ev):

   -48.3592 -48.3589 -48.3577 -48.3575 -48.1774 -48.1770 -48.1760 -48.1756
   -47.9560 -47.9455 -47.9448 -47.9431 -47.9400 -47.9390 -47.9384 -47.9368
   -47.9337 -47.9331 -47.9322 -47.9312  -4.8116  -4.4014  -3.8275  -3.1841
    -2.6915  -2.4369  -2.2626  -1.6862  -1.6510  -1.4533  -1.3116  -1.2586
    -1.0705  -0.9981  -0.8669  -0.8481  -0.6380  -0.5510  -0.4209  -0.3523
    -0.2160  -0.0581  -0.0094   0.1010   0.1961

     occupation numbers 
     1.0000   1.0000   1.0000   1.0000   1.0000   1.0000   1.0000   1.0000
     1.0000   1.0000   1.0000   1.0000   1.0000   1.0000   1.0000   1.0000
     1.0000   1.0000   1.0000   1.0000   1.0000   1.0000   1.0000   1.0000
     1.0000   1.0000   1.0000   1.0353   1.0587   0.6643   0.0825   0.0227
     0.0000   0.0000   0.0000   0.0000   0.0000   0.0000   0.0000   0.0000
     0.0000   0.0000   0.0000   0.0000   0.0000

          k = 0.1000 0.1370 0.0000 (152026 PWs)   bands (ev):

   -48.3592 -48.3589 -48.3577 -48.3575 -48.1774 -48.1770 -48.1760 -48.1756
   -47.9556 -47.9457 -47.9447 -47.9429 -47.9405 -47.9390 -47.9384 -47.9370
   -47.9336 -47.9330 -47.9322 -47.9310  -4.7689  -4.3572  -3.7804  -3.1347
    -2.8033  -2.3891  -2.3755  -1.7839  -1.7806  -1.4949  -1.4197  -1.3814
    -1.2244  -0.9218  -0.8507  -0.8329  -0.6062  -0.4826  -0.3320  -0.3256
    -0.1401   0.0486   0.0663   0.2174   0.2744

     occupation numbers 
     1.0000   1.0000   1.0000   1.0000   1.0000   1.0000   1.0000   1.0000
     1.0000   1.0000   1.0000   1.0000   1.0000   1.0000   1.0000   1.0000
     1.0000   1.0000   1.0000   1.0000   1.0000   1.0000   1.0000   1.0000
     1.0000   1.0000   1.0000   1.0036   1.0040   0.8740   0.4793   0.2921
     0.0085   0.0000   0.0000   0.0000   0.0000   0.0000   0.0000   0.0000
     0.0000   0.0000   0.0000   0.0000   0.0000

          k = 0.1000 0.2424 0.0000 (151998 PWs)   bands (ev):

   -48.3592 -48.3589 -48.3577 -48.3575 -48.1774 -48.1770 -48.1760 -48.1756
   -47.9549 -47.9459 -47.9446 -47.9427 -47.9414 -47.9391 -47.9385 -47.9373
   -47.9335 -47.9330 -47.9321 -47.9307  -4.6728  -4.2579  -3.6748  -3.0237
    -2.8645  -2.4373  -2.3064  -2.2829  -1.8724  -1.8358  -1.3417  -1.3404
    -1.2135  -1.1500  -0.9537  -0.8178  -0.6191  -0.5902  -0.3664  -0.2520
    -0.0332   0.1037   0.1760   0.3005   0.3256

     occupation numbers 
     1.0000   1.0000   1.0000   1.0000   1.0000   1.0000   1.0000   1.0000
     1.0000   1.0000   1.0000   1.0000   1.0000   1.0000   1.0000   1.0000
     1.0000   1.0000   1.0000   1.0000   1.0000   1.0000   1.0000   1.0000
     1.0000   1.0000   1.0000   1.0000   1.0002   1.0007   0.1509   0.1472
     0.0060   0.0007   0.0000   0.0000   0.0000   0.0000   0.0000   0.0000
     0.0000   0.0000   0.0000   0.0000   0.0000

          k = 0.1000 0.3479 0.0000 (151987 PWs)   bands (ev):

   -48.3592 -48.3589 -48.3577 -48.3575 -48.1774 -48.1770 -48.1760 -48.1756
   -47.9538 -47.9459 -47.9450 -47.9427 -47.9419 -47.9391 -47.9385 -47.9378
   -47.9335 -47.9330 -47.9321 -47.9303  -4.5232  -4.1036  -3.5109  -2.8747
    -2.8529  -2.7895  -2.4477  -2.3543  -2.1079  -1.8452  -1.6953  -1.3071
    -1.2077  -1.1164  -0.9940  -0.9237  -0.8070  -0.6164  -0.3161  -0.2432
    -0.0580   0.1107   0.2527   0.3092   0.3762

     occupation numbers 
     1.0000   1.0000   1.0000   1.0000   1.0000   1.0000   1.0000   1.0000
     1.0000   1.0000   1.0000   1.0000   1.0000   1.0000   1.0000   1.0000
     1.0000   1.0000   1.0000   1.0000   1.0000   1.0000   1.0000   1.0000
     1.0000   1.0000   1.0000   1.0000   1.0000   1.0005   1.0300   0.0747
     0.0050   0.0002   0.0000   0.0000   0.0000   0.0000   0.0000   0.0000
     0.0000   0.0000   0.0000   0.0000   0.0000

          k = 0.1000 0.4533 0.0000 (151932 PWs)   bands (ev):

   -48.3591 -48.3589 -48.3577 -48.3575 -48.1774 -48.1770 -48.1760 -48.1756
   -47.9524 -47.9463 -47.9458 -47.9428 -47.9417 -47.9391 -47.9385 -47.9384
   -47.9335 -47.9330 -47.9321 -47.9301  -4.3200  -3.8946  -3.2905  -3.2269
    -2.8339  -2.7862  -2.6192  -2.4065  -2.1354  -1.8852  -1.8083  -1.4283
    -1.4231  -1.1960  -1.0256  -0.9260  -0.8209  -0.5281  -0.4767  -0.2885
    -0.0199   0.0865   0.2841   0.3010   0.6112

     occupation numbers 
     1.0000   1.0000   1.0000   1.0000   1.0000   1.0000   1.0000   1.0000
     1.0000   1.0000   1.0000   1.0000   1.0000   1.0000   1.0000   1.0000
     1.0000   1.0000   1.0000   1.0000   1.0000   1.0000   1.0000   1.0000
     1.0000   1.0000   1.0000   1.0000   1.0000   1.0001   1.0017   0.5263
     0.4977   0.0034   0.0000   0.0000   0.0000   0.0000   0.0000   0.0000
     0.0000   0.0000   0.0000   0.0000   0.0000

          k = 0.1000 0.5587 0.0000 (151966 PWs)   bands (ev):

   -48.3591 -48.3589 -48.3577 -48.3575 -48.1774 -48.1770 -48.1760 -48.1756
   -47.9508 -47.9479 -47.9456 -47.9430 -47.9412 -47.9392 -47.9390 -47.9384
   -47.9336 -47.9331 -47.9320 -47.9299  -4.0631  -3.6337  -3.6104  -3.1735
    -3.0129  -2.7422  -2.5397  -2.3218  -2.3140  -1.8329  -1.7276  -1.6087
    -1.5926  -1.2784  -1.1505  -0.9369  -0.8674  -0.5378  -0.4752  -0.3714
    -0.0151   0.0072   0.2569   0.3448   0.4755

     occupation numbers 
     1.0000   1.0000   1.0000   1.0000   1.0000   1.0000   1.0000   1.0000
     1.0000   1.0000   1.0000   1.0000   1.0000   1.0000   1.0000   1.0000
     1.0000   1.0000   1.0000   1.0000   1.0000   1.0000   1.0000   1.0000
     1.0000   1.0000   1.0000   1.0000   1.0000   1.0008   1.0156   1.0817
     1.0831   0.0380   0.0007   0.0000   0.0000   0.0000   0.0000   0.0000
     0.0000   0.0000   0.0000   0.0000   0.0000

          k = 0.1000-0.6008 0.0000 (151997 PWs)   bands (ev):

   -48.3591 -48.3589 -48.3577 -48.3575 -48.1774 -48.1770 -48.1760 -48.1756
   -47.9502 -47.9485 -47.9453 -47.9432 -47.9411 -47.9393 -47.9389 -47.9383
   -47.9337 -47.9331 -47.9320 -47.9299  -3.9455  -3.7520  -3.5109  -3.3146
    -2.8871  -2.6833  -2.6004  -2.1939  -2.1710  -1.9793  -1.7351  -1.6111
    -1.5094  -1.3609  -1.2478  -1.1477  -0.8418  -0.6989  -0.5087  -0.3572
    -0.1363  -0.0636   0.2667   0.4098   0.5421

     occupation numbers 
     1.0000   1.0000   1.0000   1.0000   1.0000   1.0000   1.0000   1.0000
     1.0000   1.0000   1.0000   1.0000   1.0000   1.0000   1.0000   1.0000
     1.0000   1.0000   1.0000   1.0000   1.0000   1.0000   1.0000   1.0000
     1.0000   1.0000   1.0000   1.0000   1.0000   1.0000   1.0131   1.0809
     0.9330   0.2115   0.0169   0.0006   0.0000   0.0000   0.0000   0.0000
     0.0000   0.0000   0.0000   0.0000   0.0000

          k = 0.1000-0.4954 0.0000 (151985 PWs)   bands (ev):

   -48.3591 -48.3589 -48.3577 -48.3575 -48.1774 -48.1770 -48.1760 -48.1756
   -47.9517 -47.9469 -47.9450 -47.9435 -47.9415 -47.9389 -47.9388 -47.9382
   -47.9338 -47.9332 -47.9320 -47.9300  -4.2236  -3.7958  -3.3882  -3.1854
    -2.9467  -2.5132  -2.4099  -2.2957  -1.9793  -1.8356  -1.7887  -1.5788
    -1.5269  -1.4632  -1.3473  -1.0405  -1.0100  -0.8050  -0.5403  -0.4955
    -0.1386   0.0219   0.2895   0.3123   0.5937

     occupation numbers 
     1.0000   1.0000   1.0000   1.0000   1.0000   1.0000   1.0000   1.0000
     1.0000   1.0000   1.0000   1.0000   1.0000   1.0000   1.0000   1.0000
     1.0000   1.0000   1.0000   1.0000   1.0000   1.0000   1.0000   1.0000
     1.0000   1.0000   1.0000   1.0000   1.0000   1.0007   1.0031   1.0785
     0.9914   0.7178   0.1671   0.0000   0.0000   0.0000   0.0000   0.0000
     0.0000   0.0000   0.0000   0.0000   0.0000

          k = 0.1000-0.3900 0.0000 (151942 PWs)   bands (ev):

   -48.3592 -48.3589 -48.3577 -48.3575 -48.1774 -48.1770 -48.1760 -48.1756
   -47.9532 -47.9455 -47.9446 -47.9439 -47.9419 -47.9388 -47.9382 -47.9381
   -47.9339 -47.9333 -47.9321 -47.9302  -4.4483  -4.0265  -3.4294  -2.9718
    -2.7660  -2.5302  -2.1735  -2.0320  -1.8923  -1.8690  -1.7762  -1.7405
    -1.5335  -1.3381  -1.2272  -1.1830  -1.0215  -0.8825  -0.6084  -0.3421
    -0.0840  -0.0677   0.2783   0.3227   0.4741

     occupation numbers 
     1.0000   1.0000   1.0000   1.0000   1.0000   1.0000   1.0000   1.0000
     1.0000   1.0000   1.0000   1.0000   1.0000   1.0000   1.0000   1.0000
     1.0000   1.0000   1.0000   1.0000   1.0000   1.0000   1.0000   1.0000
     1.0000   1.0000   1.0000   1.0000   1.0001   1.0002   1.0045   1.0115
     1.0096   0.1410   0.0092   0.0022   0.0000   0.0000   0.0000   0.0000
     0.0000   0.0000   0.0000   0.0000   0.0000

          k = 0.1000-0.2846 0.0000 (151938 PWs)   bands (ev):

   -48.3592 -48.3589 -48.3577 -48.3575 -48.1774 -48.1770 -48.1760 -48.1756
   -47.9545 -47.9447 -47.9445 -47.9440 -47.9417 -47.9388 -47.9382 -47.9375
   -47.9339 -47.9333 -47.9321 -47.9305  -4.6194  -4.2027  -3.6162  -2.9623
    -2.5052  -2.2293  -2.0683  -2.0591  -1.9020  -1.8930  -1.6391  -1.5419
    -1.4448  -1.4343  -1.2553  -1.1246  -0.9376  -0.7173  -0.6236  -0.3572
    -0.0447  -0.0129   0.2436   0.2958   0.3181

     occupation numbers 
     1.0000   1.0000   1.0000   1.0000   1.0000   1.0000   1.0000   1.0000
     1.0000   1.0000   1.0000   1.0000   1.0000   1.0000   1.0000   1.0000
     1.0000   1.0000   1.0000   1.0000   1.0000   1.0000   1.0000   1.0000
     1.0000   1.0000   1.0000   1.0000   1.0001   1.0001   1.0666   1.0296
     0.6171   0.5592   0.0207   0.0002   0.0000   0.0000   0.0000   0.0000
     0.0000   0.0000   0.0000   0.0000   0.0000

          k = 0.1000-0.1792 0.0000 (151999 PWs)   bands (ev):

   -48.3592 -48.3589 -48.3577 -48.3575 -48.1774 -48.1770 -48.1760 -48.1756
   -47.9554 -47.9448 -47.9447 -47.9437 -47.9409 -47.9388 -47.9382 -47.9371
   -47.9338 -47.9333 -47.9322 -47.9309  -4.7368  -4.3241  -3.7452  -3.0977
    -2.3536  -2.3208  -1.9959  -1.8905  -1.8624  -1.5889  -1.5840  -1.5217
    -1.3781  -1.3036  -1.1297  -0.9817  -0.8245  -0.5900  -0.5534  -0.3255
    -0.1134  -0.0891   0.0914   0.2726   0.3228

     occupation numbers 
     1.0000   1.0000   1.0000   1.0000   1.0000   1.0000   1.0000   1.0000
     1.0000   1.0000   1.0000   1.0000   1.0000   1.0000   1.0000   1.0000
     1.0000   1.0000   1.0000   1.0000   1.0000   1.0000   1.0000   1.0000
     1.0000   1.0000   1.0000   1.0001   1.0003   1.0824   1.0809   0.9758
     0.2779   0.0691   0.0003   0.0000   0.0000   0.0000   0.0000   0.0000
     0.0000   0.0000   0.0000   0.0000   0.0000

          k = 0.1000-0.0738 0.0000 (152043 PWs)   bands (ev):

   -48.3592 -48.3589 -48.3577 -48.3575 -48.1774 -48.1770 -48.1760 -48.1756
   -47.9559 -47.9452 -47.9448 -47.9434 -47.9402 -47.9389 -47.9383 -47.9368
   -47.9337 -47.9332 -47.9322 -47.9311  -4.8009  -4.3904  -3.8157  -3.1718
    -2.5300  -2.4249  -2.0998  -1.7804  -1.5649  -1.4790  -1.4236  -1.3798
    -1.2605  -1.1472  -0.8529  -0.7891  -0.7885  -0.6295  -0.4041  -0.3901
    -0.2022  -0.1535   0.0053   0.1381   0.2158

     occupation numbers 
     1.0000   1.0000   1.0000   1.0000   1.0000   1.0000   1.0000   1.0000
     1.0000   1.0000   1.0000   1.0000   1.0000   1.0000   1.0000   1.0000
     1.0000   1.0000   1.0000   1.0000   1.0000   1.0000   1.0000   1.0000
     1.0000   1.0000   1.0000   1.0040   1.0669   0.7992   0.5006   0.2855
     0.0239   0.0006   0.0000   0.0000   0.0000   0.0000   0.0000   0.0000
     0.0000   0.0000   0.0000   0.0000   0.0000

          k = 0.2000 0.0632 0.0000 (151969 PWs)   bands (ev):

   -48.3591 -48.3588 -48.3578 -48.3576 -48.1773 -48.1769 -48.1761 -48.1757
   -47.9554 -47.9468 -47.9445 -47.9428 -47.9401 -47.9392 -47.9382 -47.9369
   -47.9334 -47.9329 -47.9322 -47.9312  -4.7324  -4.3197  -3.7406  -3.1416
    -3.0924  -2.7055  -2.3453  -2.0798  -1.4194  -1.3775  -1.3190  -1.0894
    -1.0470  -1.0341  -0.7287  -0.7209  -0.6143  -0.5438  -0.3935  -0.3304
    -0.1167   0.0262   0.0958   0.1350   0.2045

     occupation numbers 
     1.0000   1.0000   1.0000   1.0000   1.0000   1.0000   1.0000   1.0000
     1.0000   1.0000   1.0000   1.0000   1.0000   1.0000   1.0000   1.0000
     1.0000   1.0000   1.0000   1.0000   1.0000   1.0000   1.0000   1.0000
     1.0000   1.0000   1.0000   1.0000   0.4776   0.2757   0.0964   0.0001
     0.0000   0.0000   0.0000   0.0000   0.0000   0.0000   0.0000   0.0000
     0.0000   0.0000   0.0000   0.0000   0.0000

          k = 0.2000 0.1687 0.0000 (151968 PWs)   bands (ev):

   -48.3591 -48.3588 -48.3578 -48.3576 -48.1773 -48.1769 -48.1761 -48.1757
   -47.9549 -47.9471 -47.9444 -47.9425 -47.9407 -47.9393 -47.9383 -47.9371
   -47.9333 -47.9327 -47.9322 -47.9310  -4.6737  -4.2590  -3.6760  -3.2401
    -3.0245  -2.8064  -2.2796  -2.1822  -1.8707  -1.5024  -1.4599  -1.3041
    -0.9323  -0.8620  -0.7762  -0.7277  -0.5035  -0.3917  -0.2777  -0.2343
    -0.0126   0.0811   0.1750   0.2863   0.3460

     occupation numbers 
     1.0000   1.0000   1.0000   1.0000   1.0000   1.0000   1.0000   1.0000
     1.0000   1.0000   1.0000   1.0000   1.0000   1.0000   1.0000   1.0000
     1.0000   1.0000   1.0000   1.0000   1.0000   1.0000   1.0000   1.0000
     1.0000   1.0000   1.0000   1.0000   1.0002   0.9055   0.7002   0.0699
     0.0000   0.0000   0.0000   0.0000   0.0000   0.0000   0.0000   0.0000
     0.0000   0.0000   0.0000   0.0000   0.0000

          k = 0.2000 0.2741 0.0000 (152020 PWs)   bands (ev):

   -48.3591 -48.3588 -48.3578 -48.3576 -48.1773 -48.1769 -48.1761 -48.1757
   -47.9541 -47.9473 -47.9445 -47.9424 -47.9414 -47.9393 -47.9383 -47.9374
   -47.9332 -47.9327 -47.9322 -47.9307  -4.5616  -4.1432  -3.5529  -3.2869
    -2.8951  -2.8543  -2.3845  -2.2309  -2.1584  -1.9392  -1.5446  -1.3154
    -1.1775  -0.8663  -0.6874  -0.6504  -0.5980  -0.3103  -0.2773  -0.1626
     0.0441   0.0759   0.3216   0.3934   0.3965

     occupation numbers 
     1.0000   1.0000   1.0000   1.0000   1.0000   1.0000   1.0000   1.0000
     1.0000   1.0000   1.0000   1.0000   1.0000   1.0000   1.0000   1.0000
     1.0000   1.0000   1.0000   1.0000   1.0000   1.0000   1.0000   1.0000
     1.0000   1.0000   1.0000   1.0000   1.0000   1.0000   1.0353   0.0894
     0.0018   0.0000   0.0000   0.0000   0.0000   0.0000   0.0000   0.0000
     0.0000   0.0000   0.0000   0.0000   0.0000

          k = 0.2000 0.3795 0.0000 (151962 PWs)   bands (ev):

   -48.3591 -48.3588 -48.3578 -48.3576 -48.1773 -48.1769 -48.1761 -48.1757
   -47.9529 -47.9473 -47.9452 -47.9424 -47.9417 -47.9393 -47.9383 -47.9380
   -47.9332 -47.9327 -47.9322 -47.9305  -4.3960  -3.9725  -3.3720  -3.2817
    -2.8560  -2.8490  -2.7047  -2.4122  -2.2255  -1.9670  -1.7478  -1.5400
    -1.1265  -0.9228  -0.8729  -0.6984  -0.6596  -0.3213  -0.2405  -0.1725
     0.0019   0.0477   0.3591   0.3766   0.5440

     occupation numbers 
     1.0000   1.0000   1.0000   1.0000   1.0000   1.0000   1.0000   1.0000
     1.0000   1.0000   1.0000   1.0000   1.0000   1.0000   1.0000   1.0000
     1.0000   1.0000   1.0000   1.0000   1.0000   1.0000   1.0000   1.0000
     1.0000   1.0000   1.0000   1.0000   1.0000   1.0000   1.0097   1.0254
     0.0003   0.0000   0.0000   0.0000   0.0000   0.0000   0.0000   0.0000
     0.0000   0.0000   0.0000   0.0000   0.0000

          k = 0.2000 0.4849 0.0000 (151925 PWs)   bands (ev):

   -48.3590 -48.3588 -48.3578 -48.3576 -48.1773 -48.1769 -48.1761 -48.1757
   -47.9515 -47.9471 -47.9465 -47.9426 -47.9414 -47.9393 -47.9386 -47.9383
   -47.9333 -47.9328 -47.9321 -47.9303  -4.1767  -3.7473  -3.2774  -3.2245
    -3.1337  -2.8333  -2.7905  -2.4563  -2.1784  -2.1661  -1.7273  -1.4890
    -1.4562  -0.9570  -0.9451  -0.8270  -0.7273  -0.4487  -0.4164  -0.3152
     0.0910   0.1021   0.2576   0.3754   0.5618

     occupation numbers 
     1.0000   1.0000   1.0000   1.0000   1.0000   1.0000   1.0000   1.0000
     1.0000   1.0000   1.0000   1.0000   1.0000   1.0000   1.0000   1.0000
     1.0000   1.0000   1.0000   1.0000   1.0000   1.0000   1.0000   1.0000
     1.0000   1.0000   1.0000   1.0000   1.0000   1.0000   1.0157   0.8474
     0.6798   0.0000   0.0000   0.0000   0.0000   0.0000   0.0000   0.0000
     0.0000   0.0000   0.0000   0.0000   0.0000

          k = 0.2000 0.5903 0.0000 (151971 PWs)   bands (ev):

   -48.3590 -48.3588 -48.3578 -48.3576 -48.1773 -48.1769 -48.1761 -48.1757
   -47.9500 -47.9481 -47.9467 -47.9429 -47.9409 -47.9391 -47.9391 -47.9382
   -47.9334 -47.9329 -47.9321 -47.9302  -3.9040  -3.6466  -3.4677  -3.2062
    -3.1157  -2.8409  -2.6791  -2.5691  -2.1435  -2.0532  -1.8594  -1.4450
    -1.4001  -1.1596  -1.1385  -1.0755  -0.7348  -0.6764  -0.4339  -0.3939
    -0.0353   0.0272   0.1300   0.4797   0.5501

     occupation numbers 
     1.0000   1.0000   1.0000   1.0000   1.0000   1.0000   1.0000   1.0000
     1.0000   1.0000   1.0000   1.0000   1.0000   1.0000   1.0000   1.0000
     1.0000   1.0000   1.0000   1.0000   1.0000   1.0000   1.0000   1.0000
     1.0000   1.0000   1.0000   1.0000   1.0000   1.0000   1.0003   0.6184
     0.3784   0.0009   0.0004   0.0000   0.0000   0.0000   0.0000   0.0000
     0.0000   0.0000   0.0000   0.0000   0.0000

          k = 0.2000-0.5692 0.0000 (151945 PWs)   bands (ev):

   -48.3590 -48.3588 -48.3578 -48.3576 -48.1773 -48.1769 -48.1761 -48.1757
   -47.9503 -47.9478 -47.9463 -47.9433 -47.9410 -47.9391 -47.9390 -47.9381
   -47.9336 -47.9330 -47.9321 -47.9302  -3.9628  -3.5779  -3.5270  -3.1357
    -2.9555  -2.9038  -2.5152  -2.4969  -2.2080  -1.8878  -1.7856  -1.5363
    -1.4964  -1.3112  -1.1592  -1.0881  -1.0597  -0.7395  -0.4498  -0.4038
    -0.3368   0.0536   0.1081   0.4454   0.5697

     occupation numbers 
     1.0000   1.0000   1.0000   1.0000   1.0000   1.0000   1.0000   1.0000
     1.0000   1.0000   1.0000   1.0000   1.0000   1.0000   1.0000   1.0000
     1.0000   1.0000   1.0000   1.0000   1.0000   1.0000   1.0000   1.0000
     1.0000   1.0000   1.0000   1.0000   1.0000   1.0001   1.0035   1.0167
     0.8805   0.0817   0.0009   0.0000   0.0000   0.0000   0.0000   0.0000
     0.0000   0.0000   0.0000   0.0000   0.0000

          k = 0.2000-0.4638 0.0000 (151886 PWs)   bands (ev):

   -48.3590 -48.3588 -48.3578 -48.3576 -48.1773 -48.1769 -48.1761 -48.1757
   -47.9518 -47.9462 -47.9457 -47.9439 -47.9415 -47.9388 -47.9385 -47.9380
   -47.9338 -47.9331 -47.9321 -47.9303  -4.2248  -3.7966  -3.2001  -3.1831
    -2.7529  -2.7449  -2.5097  -2.3000  -2.0978  -1.9054  -1.7764  -1.6726
    -1.4434  -1.3774  -1.3217  -1.1026  -0.9391  -0.7940  -0.7103  -0.4152
    -0.2754   0.0800   0.0948   0.3844   0.4731

     occupation numbers 
     1.0000   1.0000   1.0000   1.0000   1.0000   1.0000   1.0000   1.0000
     1.0000   1.0000   1.0000   1.0000   1.0000   1.0000   1.0000   1.0000
     1.0000   1.0000   1.0000   1.0000   1.0000   1.0000   1.0000   1.0000
     1.0000   1.0000   1.0000   1.0000   1.0000   1.0000   1.0045   1.0439
     0.6096   0.2752   0.1020   0.0001   0.0000   0.0000   0.0000   0.0000
     0.0000   0.0000   0.0000   0.0000   0.0000

          k = 0.2000-0.3584 0.0000 (151888 PWs)   bands (ev):

   -48.3591 -48.3588 -48.3578 -48.3576 -48.1773 -48.1769 -48.1761 -48.1757
   -47.9532 -47.9451 -47.9450 -47.9445 -47.9417 -47.9387 -47.9380 -47.9378
   -47.9338 -47.9332 -47.9322 -47.9305  -4.4334  -4.0110  -3.4127  -2.7682
    -2.7450  -2.4860  -2.3239  -2.2436  -2.0350  -2.0057  -1.7866  -1.6604
    -1.4149  -1.3505  -1.1776  -1.1194  -0.9764  -0.8711  -0.6858  -0.3035
    -0.2278   0.0173   0.1242   0.3452   0.4556

     occupation numbers 
     1.0000   1.0000   1.0000   1.0000   1.0000   1.0000   1.0000   1.0000
     1.0000   1.0000   1.0000   1.0000   1.0000   1.0000   1.0000   1.0000
     1.0000   1.0000   1.0000   1.0000   1.0000   1.0000   1.0000   1.0000
     1.0000   1.0000   1.0000   1.0000   1.0000   1.0000   1.0033   1.0522
     0.4537   0.1771   0.0018   0.0002   0.0000   0.0000   0.0000   0.0000
     0.0000   0.0000   0.0000   0.0000   0.0000

          k = 0.2000-0.2530 0.0000 (151943 PWs)   bands (ev):

   -48.3591 -48.3588 -48.3578 -48.3576 -48.1773 -48.1769 -48.1761 -48.1757
   -47.9543 -47.9452 -47.9444 -47.9444 -47.9413 -47.9387 -47.9380 -47.9373
   -47.9338 -47.9332 -47.9322 -47.9308  -4.5883  -4.1707  -3.5822  -2.9259
    -2.5416  -2.2850  -2.1858  -2.1795  -2.0908  -1.8453  -1.7215  -1.4673
    -1.3472  -1.2645  -1.1605  -1.1338  -0.9644  -0.6966  -0.5472  -0.2942
    -0.2824   0.0649   0.1188   0.2876   0.4139

     occupation numbers 
     1.0000   1.0000   1.0000   1.0000   1.0000   1.0000   1.0000   1.0000
     1.0000   1.0000   1.0000   1.0000   1.0000   1.0000   1.0000   1.0000
     1.0000   1.0000   1.0000   1.0000   1.0000   1.0000   1.0000   1.0000
     1.0000   1.0000   1.0000   1.0000   1.0000   1.0005   1.0178   0.7396
     0.1667   0.0266   0.0010   0.0003   0.0000   0.0000   0.0000   0.0000
     0.0000   0.0000   0.0000   0.0000   0.0000

          k = 0.2000-0.1476 0.0000 (151949 PWs)   bands (ev):

   -48.3591 -48.3588 -48.3578 -48.3576 -48.1773 -48.1769 -48.1761 -48.1757
   -47.9551 -47.9458 -47.9445 -47.9437 -47.9406 -47.9389 -47.9380 -47.9370
   -47.9337 -47.9331 -47.9322 -47.9311  -4.6897  -4.2755  -3.6936  -3.0430
    -2.7911  -2.3469  -2.2975  -1.8329  -1.7644  -1.7189  -1.3718  -1.3688
    -1.3141  -1.3136  -1.1125  -0.7954  -0.7649  -0.6788  -0.5123  -0.2819
    -0.2360  -0.0392   0.0940   0.1536   0.3152

     occupation numbers 
     1.0000   1.0000   1.0000   1.0000   1.0000   1.0000   1.0000   1.0000
     1.0000   1.0000   1.0000   1.0000   1.0000   1.0000   1.0000   1.0000
     1.0000   1.0000   1.0000   1.0000   1.0000   1.0000   1.0000   1.0000
     1.0000   1.0000   1.0000   1.0008   1.0063   1.0188   0.2526   0.2408
     0.0869   0.0860   0.0001   0.0000   0.0000   0.0000   0.0000   0.0000
     0.0000   0.0000   0.0000   0.0000   0.0000

          k = 0.2000-0.0422 0.0000 (151969 PWs)   bands (ev):

   -48.3591 -48.3588 -48.3578 -48.3576 -48.1773 -48.1769 -48.1761 -48.1757
   -47.9554 -47.9464 -47.9445 -47.9432 -47.9401 -47.9390 -47.9381 -47.9369
   -47.9336 -47.9330 -47.9322 -47.9313  -4.7377  -4.3252  -3.7465  -3.0986
    -2.9917  -2.5521  -2.3513  -1.9246  -1.4597  -1.3721  -1.3225  -1.2269
    -1.1483  -0.9914  -0.9868  -0.7579  -0.7363  -0.5481  -0.3600  -0.3474
    -0.3238  -0.1226   0.0884   0.1132   0.1856

     occupation numbers 
     1.0000   1.0000   1.0000   1.0000   1.0000   1.0000   1.0000   1.0000
     1.0000   1.0000   1.0000   1.0000   1.0000   1.0000   1.0000   1.0000
     1.0000   1.0000   1.0000   1.0000   1.0000   1.0000   1.0000   1.0000
     1.0000   1.0000   1.0000   1.0000   0.6991   0.2539   0.1036   0.0091
     0.0006   0.0000   0.0000   0.0000   0.0000   0.0000   0.0000   0.0000
     0.0000   0.0000   0.0000   0.0000   0.0000

          k = 0.3000 0.0949 0.0000 (151964 PWs)   bands (ev):

   -48.3589 -48.3587 -48.3580 -48.3577 -48.1771 -48.1767 -48.1762 -48.1758
   -47.9545 -47.9484 -47.9441 -47.9427 -47.9402 -47.9396 -47.9379 -47.9370
   -47.9331 -47.9325 -47.9323 -47.9314  -4.6002  -4.1836  -3.5963  -3.5397
    -3.1039  -2.9400  -2.4746  -2.1929  -1.7731  -1.3765  -1.2133  -1.1829
    -1.0394  -1.0088  -0.7167  -0.5628  -0.3992  -0.3882  -0.2389  -0.1755
    -0.0339   0.0490   0.1728   0.2707   0.3638

     occupation numbers 
     1.0000   1.0000   1.0000   1.0000   1.0000   1.0000   1.0000   1.0000
     1.0000   1.0000   1.0000   1.0000   1.0000   1.0000   1.0000   1.0000
     1.0000   1.0000   1.0000   1.0000   1.0000   1.0000   1.0000   1.0000
     1.0000   1.0000   1.0000   1.0000   1.0049   0.2717   0.0060   0.0022
     0.0000   0.0000   0.0000   0.0000   0.0000   0.0000   0.0000   0.0000
     0.0000   0.0000   0.0000   0.0000   0.0000

          k = 0.3000 0.2003 0.0000 (152028 PWs)   bands (ev):

   -48.3589 -48.3587 -48.3580 -48.3578 -48.1771 -48.1767 -48.1762 -48.1758
   -47.9539 -47.9488 -47.9441 -47.9424 -47.9408 -47.9397 -47.9380 -47.9372
   -47.9330 -47.9324 -47.9323 -47.9312  -4.5256  -4.1064  -3.6237  -3.5143
    -3.1903  -2.8537  -2.5649  -2.1092  -1.9102  -1.8655  -1.4796  -1.1479
    -1.1251  -0.8410  -0.7434  -0.3476  -0.3241  -0.2920  -0.2698  -0.1094
     0.1461   0.1688   0.2827   0.3712   0.5314

     occupation numbers 
     1.0000   1.0000   1.0000   1.0000   1.0000   1.0000   1.0000   1.0000
     1.0000   1.0000   1.0000   1.0000   1.0000   1.0000   1.0000   1.0000
     1.0000   1.0000   1.0000   1.0000   1.0000   1.0000   1.0000   1.0000
     1.0000   1.0000   1.0000   1.0000   1.0000   1.0002   0.8024   0.0006
     0.0002   0.0000   0.0000   0.0000   0.0000   0.0000   0.0000   0.0000
     0.0000   0.0000   0.0000   0.0000   0.0000

          k = 0.3000 0.3057 0.0000 (152004 PWs)   bands (ev):

   -48.3589 -48.3586 -48.3580 -48.3578 -48.1771 -48.1767 -48.1762 -48.1758
   -47.9530 -47.9489 -47.9443 -47.9423 -47.9413 -47.9397 -47.9380 -47.9375
   -47.9329 -47.9324 -47.9323 -47.9310  -4.3975  -3.9742  -3.6552  -3.3740
    -3.2227  -2.7060  -2.5989  -2.4128  -1.9994  -1.9291  -1.9004  -1.3072
    -1.1574  -1.0200  -0.5511  -0.3987  -0.3579  -0.2962  -0.1151   0.0040
     0.0500   0.2255   0.2967   0.4957   0.5466

     occupation numbers 
     1.0000   1.0000   1.0000   1.0000   1.0000   1.0000   1.0000   1.0000
     1.0000   1.0000   1.0000   1.0000   1.0000   1.0000   1.0000   1.0000
     1.0000   1.0000   1.0000   1.0000   1.0000   1.0000   1.0000   1.0000
     1.0000   1.0000   1.0000   1.0000   1.0000   1.0000   1.0001   0.0749
[...]
     1.0000   1.0000   1.0000   1.0000   1.0000   1.0000   1.0000   1.0000
     1.0000   1.0000   1.0000   1.0000   1.0000   1.0000   1.0000   1.0000
     1.0000   1.0000   1.0000   1.0000   1.0000   1.0000   1.0000   1.0000
     1.0825   1.0825   0.0013   0.0013   0.0000   0.0000   0.0000   0.0000
     0.0000   0.0000   0.0000   0.0000   0.0000

     the Fermi energy is    -1.4040 ev

!    total energy              =    -300.92716631 Ry
     total all-electron energy =      -300.927329 Ry
     estimated scf accuracy    <          6.7E-13 Ry

!    total charge of GC-SCF    =      -3.95034764 e
     smearing contrib. (-TS)   =      -0.00121693 Ry
     internal energy E=F+TS    =    -300.92594938 Ry

     The total energy is F=E-TS. E is the sum of the following terms:
     one-electron contribution =   -3698.09885897 Ry
     hartree contribution      =    1819.85166298 Ry
     xc contribution           =     -72.80775046 Ry
     ewald contribution        =    1534.13351916 Ry
     one-center paw contrib.   =       1.76487429 Ry
      -> PAW hartree energy AE =       7.42024804 Ry
      -> PAW hartree energy PS =      -7.19721160 Ry
      -> PAW xc energy AE      =      -3.48287522 Ry
      -> PAW xc energy PS      =       3.34819800 Ry
      -> total E_H with PAW    =    1820.07469943 Ry
      -> total E_XC with PAW   =     -72.94242769 Ry
     pot.stat. contrib. (-muN) =       0.40764466 Ry
     electrostatic embedding   =      -3.98970732 Ry
     cavitation energy         =       0.01492344 Ry
     electrolyte free energy   =      -0.09419208 Ry
     correction to one-el term =     117.89193492 Ry

     WARNING: you are using the parabolic pbc correction;
              the potential shift above must be added to 
              band and Fermi energies.

     convergence has been achieved in  14 iterations
     The dielectric solvent contribution to forces
     atom    1 type  1   force =     0.00000490   -0.01302515    0.18118611
     atom    2 type  1   force =    -0.00000029    0.00451472    0.11081039
     atom    3 type  1   force =     0.00000019   -0.00160556    0.07676378
     atom    4 type  1   force =     0.00000041    0.00008613    0.01885580
     atom    5 type  1   force =    -0.00000018   -0.00008551   -0.01857090
     atom    6 type  1   force =    -0.00000022    0.00160440   -0.07648594
     atom    7 type  1   force =    -0.00000038   -0.00451292   -0.11052811
     atom    8 type  1   force =    -0.00000543    0.01302605   -0.18090328
     atom    9 type  1   force =     0.00000292   -0.00771939   -0.14464442
     atom   10 type  1   force =    -0.00000165    0.00771985    0.14491917
     atom   11 type  1   force =     0.00000397   -0.01302551    0.18118647
     atom   12 type  1   force =     0.00000013    0.00451438    0.11080808
     atom   13 type  1   force =     0.00000053   -0.00160531    0.07676181
     atom   14 type  1   force =     0.00000029    0.00008604    0.01885452
     atom   15 type  1   force =    -0.00000052   -0.00008550   -0.01856998
     atom   16 type  1   force =    -0.00000051    0.00160425   -0.07648596
     atom   17 type  1   force =     0.00000052   -0.00451268   -0.11052766
     atom   18 type  1   force =    -0.00000343    0.01302637   -0.18090358
     atom   19 type  1   force =     0.00000293   -0.00771934   -0.14464793
     atom   20 type  1   force =    -0.00000419    0.00771876    0.14491614


     Forces acting on atoms (cartesian axes, Ry/au):

     atom    1 type  1   force =     0.00000130    0.00018738   -0.00004564
     atom    2 type  1   force =     0.00000049   -0.00012363    0.00005206
     atom    3 type  1   force =     0.00000086    0.00022699   -0.00013458
     atom    4 type  1   force =    -0.00000076   -0.00005578    0.00007458
     atom    5 type  1   force =    -0.00000094    0.00005201   -0.00006969
     atom    6 type  1   force =    -0.00000049   -0.00022708    0.00012967
     atom    7 type  1   force =     0.00000116    0.00011735   -0.00005457
     atom    8 type  1   force =    -0.00000101   -0.00018357    0.00004634
     atom    9 type  1   force =     0.00000304   -0.00009860    0.00007178
     atom   10 type  1   force =    -0.00000317    0.00010334   -0.00007001
     atom   11 type  1   force =     0.00000130    0.00018745   -0.00004631
     atom   12 type  1   force =    -0.00000149   -0.00012326    0.00005074
     atom   13 type  1   force =    -0.00000019    0.00022740   -0.00013716
     atom   14 type  1   force =    -0.00000043   -0.00005571    0.00007523
     atom   15 type  1   force =     0.00000237    0.00005240   -0.00006629
     atom   16 type  1   force =    -0.00000010   -0.00022587    0.00013051
     atom   17 type  1   force =     0.00000003    0.00011849   -0.00005548
     atom   18 type  1   force =    -0.00000197   -0.00018335    0.00004723
     atom   19 type  1   force =     0.00000320   -0.00009826    0.00007204
     atom   20 type  1   force =    -0.00000321    0.00010230   -0.00007044
     The non-local contrib.  to forces
     atom    1 type  1   force =     0.00002808    0.00709196   -0.02766647
     atom    2 type  1   force =     0.00005017   -0.00037119    0.00495190
     atom    3 type  1   force =     0.00002916    0.00160093    0.00167771
     atom    4 type  1   force =     0.00000436   -0.00110181   -0.00168344
     atom    5 type  1   force =    -0.00000701    0.00110168    0.00168995
     atom    6 type  1   force =    -0.00002821   -0.00159264   -0.00168953
     atom    7 type  1   force =    -0.00004752    0.00036173   -0.00495413
     atom    8 type  1   force =    -0.00002705   -0.00708796    0.02766497
     atom    9 type  1   force =    -0.00000008    0.00698591    0.03213954
     atom   10 type  1   force =    -0.00000109   -0.00698855   -0.03213197
     atom   11 type  1   force =     0.00002849    0.00709119   -0.02766698
     atom   12 type  1   force =     0.00004698   -0.00037177    0.00495150
     atom   13 type  1   force =     0.00002662    0.00159996    0.00167524
     atom   14 type  1   force =     0.00000466   -0.00110051   -0.00168107
     atom   15 type  1   force =    -0.00000237    0.00110200    0.00169235
     atom   16 type  1   force =    -0.00002759   -0.00159006   -0.00168834
     atom   17 type  1   force =    -0.00004961    0.00036157   -0.00495542
     atom   18 type  1   force =    -0.00002922   -0.00708873    0.02766425
     atom   19 type  1   force =     0.00000041    0.00698489    0.03213872
     atom   20 type  1   force =     0.00000084   -0.00698773   -0.03213492
     The ionic contribution  to forces
     atom    1 type  1   force =     0.00001769    0.08540761   -9.69404651
     atom    2 type  1   force =    -0.00011738   -0.04840581   -6.19539541
     atom    3 type  1   force =    -0.00000632    0.02390625   -4.35015807
     atom    4 type  1   force =    -0.00018077   -0.01012540   -1.01850694
     atom    5 type  1   force =     0.00013316    0.01005345    1.01834656
     atom    6 type  1   force =     0.00001802   -0.02380342    4.35037441
     atom    7 type  1   force =     0.00016742    0.04823153    6.19513031
     atom    8 type  1   force =    -0.00000390   -0.08531614    9.69442896
     atom    9 type  1   force =     0.00009105    0.05726609   11.04706810
     atom   10 type  1   force =    -0.00010887   -0.05723945  -11.04722705
     atom   11 type  1   force =     0.00001911    0.08540734   -9.69408252
     atom   12 type  1   force =    -0.00016765   -0.04840805   -6.19532201
     atom   13 type  1   force =    -0.00005163    0.02389953   -4.35008430
     atom   14 type  1   force =    -0.00015891   -0.01010865   -1.01841460
     atom   15 type  1   force =     0.00020894    0.01005377    1.01833341
     atom   16 type  1   force =     0.00004047   -0.02377068    4.35038156
     atom   17 type  1   force =     0.00011961    0.04824274    6.19511271
     atom   18 type  1   force =    -0.00003703   -0.08531994    9.69432747
     atom   19 type  1   force =     0.00010053    0.05726888   11.04701041
     atom   20 type  1   force =    -0.00008351   -0.05723965  -11.04727647
     The local contribution  to forces
     atom    1 type  1   force =    -0.00004937   -0.07928780    9.54047865
     atom    2 type  1   force =     0.00006799    0.04413883    6.07968459
     atom    3 type  1   force =    -0.00002214   -0.02367481    4.27158142
     atom    4 type  1   force =     0.00017525    0.01108527    1.00140900
     atom    5 type  1   force =    -0.00012690   -0.01101759   -1.00153528
     atom    6 type  1   force =     0.00000990    0.02356476   -4.27206876
     atom    7 type  1   force =    -0.00011835   -0.04396324   -6.07970214
     atom    8 type  1   force =     0.00003534    0.07919531   -9.54114239
     atom    9 type  1   force =    -0.00009083   -0.05663369  -10.93449116
     atom   10 type  1   force =     0.00010843    0.05661405   10.93436896
     atom   11 type  1   force =    -0.00005025   -0.07928633    9.54051417
     atom   12 type  1   force =     0.00011903    0.04414236    6.07961257
     atom   13 type  1   force =     0.00002429   -0.02366698    4.27150952
     atom   14 type  1   force =     0.00015353    0.01106740    1.00131622
     atom   15 type  1   force =    -0.00020368   -0.01101787   -1.00152203
     atom   16 type  1   force =    -0.00001249    0.02353079   -4.27207624
     atom   17 type  1   force =    -0.00007047   -0.04397339   -6.07968462
     atom   18 type  1   force =     0.00006768    0.07919978   -9.54103896
     atom   19 type  1   force =    -0.00010062   -0.05663518  -10.93442886
     atom   20 type  1   force =     0.00008366    0.05661346   10.93442398
     The core correction contribution to forces
     atom    1 type  1   force =     0.00000000    0.00000000    0.00000000
     atom    2 type  1   force =     0.00000000    0.00000000    0.00000000
     atom    3 type  1   force =     0.00000000    0.00000000    0.00000000
     atom    4 type  1   force =     0.00000000    0.00000000    0.00000000
     atom    5 type  1   force =     0.00000000    0.00000000    0.00000000
     atom    6 type  1   force =     0.00000000    0.00000000    0.00000000
     atom    7 type  1   force =     0.00000000    0.00000000    0.00000000
     atom    8 type  1   force =     0.00000000    0.00000000    0.00000000
     atom    9 type  1   force =     0.00000000    0.00000000    0.00000000
     atom   10 type  1   force =     0.00000000    0.00000000    0.00000000
     atom   11 type  1   force =     0.00000000    0.00000000    0.00000000
     atom   12 type  1   force =     0.00000000    0.00000000    0.00000000
     atom   13 type  1   force =     0.00000000    0.00000000    0.00000000
     atom   14 type  1   force =     0.00000000    0.00000000    0.00000000
     atom   15 type  1   force =     0.00000000    0.00000000    0.00000000
     atom   16 type  1   force =     0.00000000    0.00000000    0.00000000
     atom   17 type  1   force =     0.00000000    0.00000000    0.00000000
     atom   18 type  1   force =     0.00000000    0.00000000    0.00000000
     atom   19 type  1   force =     0.00000000    0.00000000    0.00000000
     atom   20 type  1   force =     0.00000000    0.00000000    0.00000000
     The Hubbard contrib.    to forces
     atom    1 type  1   force =     0.00000000    0.00000000    0.00000000
     atom    2 type  1   force =     0.00000000    0.00000000    0.00000000
     atom    3 type  1   force =     0.00000000    0.00000000    0.00000000
     atom    4 type  1   force =     0.00000000    0.00000000    0.00000000
     atom    5 type  1   force =     0.00000000    0.00000000    0.00000000
     atom    6 type  1   force =     0.00000000    0.00000000    0.00000000
     atom    7 type  1   force =     0.00000000    0.00000000    0.00000000
     atom    8 type  1   force =     0.00000000    0.00000000    0.00000000
     atom    9 type  1   force =     0.00000000    0.00000000    0.00000000
     atom   10 type  1   force =     0.00000000    0.00000000    0.00000000
     atom   11 type  1   force =     0.00000000    0.00000000    0.00000000
     atom   12 type  1   force =     0.00000000    0.00000000    0.00000000
     atom   13 type  1   force =     0.00000000    0.00000000    0.00000000
     atom   14 type  1   force =     0.00000000    0.00000000    0.00000000
     atom   15 type  1   force =     0.00000000    0.00000000    0.00000000
     atom   16 type  1   force =     0.00000000    0.00000000    0.00000000
     atom   17 type  1   force =     0.00000000    0.00000000    0.00000000
     atom   18 type  1   force =     0.00000000    0.00000000    0.00000000
     atom   19 type  1   force =     0.00000000    0.00000000    0.00000000
     atom   20 type  1   force =     0.00000000    0.00000000    0.00000000
     The SCF correction term to forces
     atom    1 type  1   force =     0.00000000    0.00000075    0.00000247
     atom    2 type  1   force =     0.00000000   -0.00000019    0.00000049
     atom    3 type  1   force =    -0.00000002    0.00000019    0.00000046
     atom    4 type  1   force =     0.00000000    0.00000002    0.00000005
     atom    5 type  1   force =     0.00000000   -0.00000003   -0.00000013
     atom    6 type  1   force =     0.00000002   -0.00000019   -0.00000061
     atom    7 type  1   force =    -0.00000002    0.00000025   -0.00000060
     atom    8 type  1   force =     0.00000003   -0.00000084   -0.00000203
     atom    9 type  1   force =    -0.00000002    0.00000247   -0.00000039
     atom   10 type  1   force =     0.00000001   -0.00000256    0.00000077
     atom   11 type  1   force =    -0.00000002    0.00000076    0.00000244
     atom   12 type  1   force =     0.00000001   -0.00000019    0.00000049
     atom   13 type  1   force =    -0.00000001    0.00000019    0.00000046
     atom   14 type  1   force =    -0.00000001    0.00000001    0.00000005
     atom   15 type  1   force =    -0.00000000   -0.00000001   -0.00000014
     atom   16 type  1   force =     0.00000002   -0.00000018   -0.00000062
     atom   17 type  1   force =    -0.00000002    0.00000024   -0.00000060
     atom   18 type  1   force =     0.00000003   -0.00000084   -0.00000207
     atom   19 type  1   force =    -0.00000005    0.00000248   -0.00000041
     atom   20 type  1   force =    -0.00000001   -0.00000255    0.00000073

     Total force =     0.000765     Total SCF correction =     0.000007
     Energy error            =      3.6E-06 Ry
     Gradient error          =      2.3E-04 Ry/Bohr

     bfgs converged in   9 scf cycles and   8 bfgs steps
     (criteria: energy <  1.0E-05 Ry, force <  3.9E-04 Ry/Bohr)

     End of BFGS Geometry Optimization

     Final energy             =    -300.9271663074 Ry

     File ./Li/Lithium.bfgs deleted, as requested
Begin final coordinates

ATOMIC_POSITIONS (angstrom)
Li               1.7192662876        2.2356750305       20.9237899368
Li               0.0019858589        4.2893521467       22.4080975272
Li               0.0008901492        1.1604160338       23.1581689898
Li               1.7185094555        3.1795978344       24.5437859365
Li               1.7166515825        0.0796733851       25.3889796003
Li              -0.0008876961        2.0986582830       26.7748136358
Li               1.7155415586        4.4012844882       27.5246412045
Li               1.7158928731        1.0228072042       29.0091444746
Li              -0.0025608763        3.4326278903       29.7549467674
Li               3.4377427131       -0.1742227915       20.1776302241
Li               5.1543848371        2.2356914553       20.9237816293
Li               3.4372047882        4.2893278775       22.4081339559
Li               3.4360762972        1.1603856053       23.1582192173
Li               5.1536782953        3.1795945902       24.5438123479
Li               5.1517741271        0.0796679680       25.3889502535
Li               3.4342286452        2.0986583072       26.7748040858
Li               5.1507334114        4.4012412846       27.5246461790
Li               5.1510948268        1.0228018162       29.0090909398
Li               3.4325866796        3.4326042285       29.7549107381
Li               6.8728647892       -0.1741648630       20.1776072406
End final coordinates



     Writing all to output data dir ./Li/Lithium.save/ :
     XML data file
     init_run     :     10.49s CPU     19.19s WALL (       1 calls)
     electrons    :   1804.65s CPU   2398.17s WALL (       9 calls)
     update_pot   :      0.47s CPU      0.56s WALL (       8 calls)
     forces       :     26.35s CPU     28.29s WALL (       9 calls)

     Called by init_run:
     wfcinit      :      1.59s CPU      2.24s WALL (       1 calls)
     wfcinit:wfcr :      1.52s CPU      2.17s WALL (      31 calls)
     potinit      :      0.70s CPU      0.77s WALL (       1 calls)
     hinit0       :      4.61s CPU     12.34s WALL (       1 calls)

     Called by electrons:
     c_bands      :   1284.03s CPU   1755.73s WALL (     132 calls)
     sum_band     :     96.67s CPU    137.37s WALL (     132 calls)
     v_of_rho     :      5.24s CPU      6.33s WALL (     133 calls)
     v_h          :      0.52s CPU      0.60s WALL (     133 calls)
     v_xc         :      4.72s CPU      5.72s WALL (     133 calls)
     newd         :      4.81s CPU      9.79s WALL (     133 calls)
     PAW_pot      :      1.02s CPU      1.51s WALL (     141 calls)
     mix_rho      :     15.51s CPU     20.04s WALL (     132 calls)

     Called by c_bands:
     init_us_2    :      5.62s CPU      6.49s WALL (    8742 calls)
     cegterg      :   1190.15s CPU   1520.45s WALL (    4418 calls)

     Called by sum_band:
     sum_band:wei :      0.28s CPU      0.34s WALL (     132 calls)
     sum_band:loo :     93.61s CPU    133.81s WALL (     132 calls)
     sum_band:buf :      0.77s CPU      0.90s WALL (    4092 calls)
     sum_band:ini :      2.01s CPU      2.21s WALL (    4092 calls)
     sum_band:cal :     10.65s CPU     13.31s WALL (    4340 calls)
     sum_band:bec :      0.21s CPU      0.26s WALL (    4340 calls)
     addusdens    :      1.97s CPU      2.11s WALL (     132 calls)
                                        0.00s GPU  (     132 calls)
     addusd:skk   :      0.29s CPU      0.31s WALL (     132 calls)
                                        0.00s GPU  (     132 calls)

     Called by *egterg:
     cdiaghg      :    273.48s CPU    287.35s WALL (   46320 calls)
     cegterg:over :     59.33s CPU     66.47s WALL (   42544 calls)
     cegterg:upda :     51.35s CPU     53.65s WALL (   42544 calls)
     cegterg:last :     12.80s CPU     13.10s WALL (    5482 calls)
     h_psi        :    731.44s CPU   1033.77s WALL (   46993 calls)
     s_psi        :     37.69s CPU     40.30s WALL (   46993 calls)
     g_psi        :      0.85s CPU      0.91s WALL (   42544 calls)

     Called by h_psi:
     h_psi:calbec :     60.66s CPU     77.22s WALL (   46993 calls)
     vloc_psi     :    628.30s CPU    907.87s WALL (   46993 calls)
                                        0.00s GPU  (   46993 calls)
     add_vuspsi   :     39.35s CPU     45.23s WALL (   46993 calls)

     General routines
     calbec       :     73.53s CPU     93.01s WALL (   52449 calls)
     fft          :      8.46s CPU     17.33s WALL (    1745 calls)
     ffts         :     12.64s CPU     16.28s WALL (   14410 calls)
     fftw         :    681.71s CPU    988.50s WALL ( 1618276 calls)
     interpolate  :      1.07s CPU      1.21s WALL (     133 calls)

     Parallel routines

     PAW routines
     PAW_pot      :      1.02s CPU      1.51s WALL (     141 calls)

     Environ routines

     PWSCF        :  31m18.07s CPU  41m29.01s WALL


   This run was terminated on:   4: 8:18   5Jan2025            

=------------------------------------------------------------------------------=
   JOB DONE.
=------------------------------------------------------------------------------=
