
     Program PWSCF v.7.4 starts on 23Jan2025 at  0:35:55 

     This program is part of the open-source Quantum ESPRESSO suite
     for quantum simulation of materials; please cite
         "P. Giannozzi et al., J. Phys.:Condens. Matter 21 395502 (2009);
         "P. Giannozzi et al., J. Phys.:Condens. Matter 29 465901 (2017);
         "P. Giannozzi et al., J. Chem. Phys. 152 154105 (2020);
          URL http://www.quantum-espresso.org", 
     in publications or presentations arising from this work. More details at
     http://www.quantum-espresso.org/quote

     Parallel version (MPI & OpenMP), running on     384 processor cores
     Number of MPI processes:               384
     Threads/MPI process:                     1

     MPI processes distributed on     2 nodes
     666504 MiB available memory on the printing compute node when the environment starts
 
     Reading input from espresso.pwi
Warning: card &CELL ignored
Warning: card    PRESS_CONV_THR   = 0.1 ignored
Warning: card    CELL_DOFREE      = 'ALL' ignored
Warning: card / ignored
Warning: card &FCP ignored
Warning: card / ignored
Warning: card &RISM ignored
Warning: card / ignored

     Current dimensions of program PWSCF are:
     Max number of different atomic species (ntypx) = 10
     Max number of k-points (npk) =  40000
     Max angular momentum in pseudopotentials (lmaxx) =  4

     IMPORTANT: XC functional enforced from input :
     Exchange-correlation= PBE
                           (   1   4   3   4   0   0   0)
     Any further DFT definition will be discarded
     Please, verify this is what you really want

     Found identity + (  0.0000  0.5000 -0.0000) symmetry
     This is a supercell, fractional translations are disabled
     Message from routine setup:
     using ibrav=0 with symmetry is DISCOURAGED, use correct ibrav instead
 
     K-points division:     npool     =       2
     R & G space division:  proc/nbgrp/npool/nimage =     192
     Subspace diagonalization in iterative solution of the eigenvalue problem:
     a serial algorithm will be used

 
     Parallelization info
     --------------------
     sticks:   dense  smooth     PW     G-vecs:    dense   smooth      PW
     Min          96      38     10                45698    11546    1550
     Max          97      39     11                45759    11587    1579
     Sum       18577    7447   1945              8780317  2221523  300987
 
     Using Slab Decomposition
 


     bravais-lattice index     =            0
     lattice parameter (alat)  =      18.3607  a.u.
     unit-cell volume          =   22978.1537 (a.u.)^3
     number of atoms/cell      =           48
     number of atomic types    =            1
     number of electrons       =       144.00
     number of Kohn-Sham states=          108
     kinetic-energy cutoff     =      80.0000  Ry
     charge density cutoff     =     800.0000  Ry
     scf convergence threshold =      1.0E-06
     mixing beta               =       0.2000
     number of iterations used =            8  local-TF  mixing
     energy convergence thresh.=      1.0E-05
     force convergence thresh. =      3.9E-04
     Exchange-correlation= PBE
                           (   1   4   3   4   0   0   0)
     nstep                     =           50


     celldm(1)=  18.360747  celldm(2)=   0.000000  celldm(3)=   0.000000
     celldm(4)=   0.000000  celldm(5)=   0.000000  celldm(6)=   0.000000

     crystal axes: (cart. coord. in units of alat)
               a(1) = (   1.000000   0.000000   0.000000 )  
               a(2) = (   0.500000   0.866025   0.000000 )  
               a(3) = (   0.000000   0.000000   4.286607 )  

     reciprocal axes: (cart. coord. in units 2 pi/alat)
               b(1) = (  1.000000 -0.577351  0.000000 )  
               b(2) = (  0.000000  1.154701  0.000000 )  
               b(3) = (  0.000000  0.000000  0.233285 )  


     PseudoPot. # 1 for Li read from file:
     /iridisfs/home/ba3g18/Repos/Pseudopotentials/pslibrary.1.0.0/pbe/PSEUDOPOTENTIALS/Li.pbe-sl-kjpaw_psl.1.0.0.UPF
     MD5 check sum: 3f4d2cafebb47c6c3aa8ed472e6f074d
     Pseudo is Projector augmented-wave, Zval =  3.0
     Generated using 'atomic' code by A. Dal Corso  v.7.4
     Shape of augmentation charge: PSQ
     Using radial grid of 1017 points,  4 beta functions with: 
                l(1) =   0
                l(2) =   0
                l(3) =   1
                l(4) =   1
     Q(r) pseudized with 0 coefficients 


     atomic species   valence    mass     pseudopotential
     Li                3.00     6.94000     Li( 1.00)

      2 Sym. Ops. (no inversion) found



   Cartesian axes

     site n.     atom                  positions (alat units)
         1        Li     tau(   1) = (  -0.0000000   0.0000010   2.0856780  )
         2        Li     tau(   2) = (   0.2499992   0.1443576   1.6978534  )
         3        Li     tau(   3) = (   0.5000000   0.2886818   1.8826846  )
         4        Li     tau(   4) = (   0.0000000   0.0000142   1.7696415  )
         5        Li     tau(   5) = (   0.2499998   0.1443411   1.9929863  )
         6        Li     tau(   6) = (   0.5000000   0.2887055   1.5733516  )
         7        Li     tau(   7) = (   0.0000000  -0.0000303   2.7132557  )
         8        Li     tau(   8) = (   0.2500000   0.1443342   2.2936205  )
         9        Li     tau(   9) = (   0.5000000   0.2886611   2.5169658  )
        10        Li     tau(  10) = (  -0.0000000  -0.0000065   2.4039226  )
        11        Li     tau(  11) = (   0.2500006   0.1443177   2.5887535  )
        12        Li     tau(  12) = (   0.5000000   0.2886743   2.2009294  )
        13        Li     tau(  13) = (   0.2500002   0.4330134   2.0856773  )
        14        Li     tau(  14) = (   0.5000000   0.5773714   1.6978532  )
        15        Li     tau(  15) = (   0.7500003   0.7216941   1.8826847  )
        16        Li     tau(  16) = (   0.2500007   0.4330264   1.7696409  )
        17        Li     tau(  17) = (   0.5000000   0.5773538   1.9929862  )
        18        Li     tau(  18) = (   0.7500031   0.7217164   1.5733514  )
        19        Li     tau(  19) = (   0.2499974   0.4329838   2.7132557  )
        20        Li     tau(  20) = (   0.5000000   0.5773467   2.2936204  )
        21        Li     tau(  21) = (   0.7499995   0.7216739   2.5169660  )
        22        Li     tau(  22) = (   0.2499999   0.4330061   2.4039223  )
        23        Li     tau(  23) = (   0.5000000   0.5773290   2.5887534  )
        24        Li     tau(  24) = (   0.7500001   0.7216868   2.2009296  )
        25        Li     tau(  25) = (   0.5000000   0.0000012   2.0856773  )
        26        Li     tau(  26) = (   0.7500008   0.1443576   1.6978534  )
        27        Li     tau(  27) = (   1.0000000   0.2886822   1.8826847  )
        28        Li     tau(  28) = (   0.5000000   0.0000150   1.7696409  )
        29        Li     tau(  29) = (   0.7500002   0.1443411   1.9929863  )
        30        Li     tau(  30) = (   1.0000000   0.2887091   1.5733513  )
        31        Li     tau(  31) = (   0.5000000  -0.0000334   2.7132557  )
        32        Li     tau(  32) = (   0.7500000   0.1443342   2.2936205  )
        33        Li     tau(  33) = (   1.0000000   0.2886605   2.5169660  )
        34        Li     tau(  34) = (   0.5000000  -0.0000066   2.4039223  )
        35        Li     tau(  35) = (   0.7499993   0.1443177   2.5887535  )
        36        Li     tau(  36) = (   1.0000000   0.2886745   2.2009296  )
        37        Li     tau(  37) = (   0.7499998   0.4330134   2.0856773  )
        38        Li     tau(  38) = (   1.0000000   0.5773705   1.6978578  )
        39        Li     tau(  39) = (   1.2499997   0.7216942   1.8826847  )
        40        Li     tau(  40) = (   0.7499993   0.4330264   1.7696409  )
        41        Li     tau(  41) = (   1.0000000   0.5773536   1.9929881  )
        42        Li     tau(  42) = (   1.2499969   0.7217164   1.5733514  )
        43        Li     tau(  43) = (   0.7500026   0.4329838   2.7132557  )
        44        Li     tau(  44) = (   1.0000000   0.5773467   2.2936198  )
        45        Li     tau(  45) = (   1.2500005   0.7216739   2.5169660  )
        46        Li     tau(  46) = (   0.7500001   0.4330061   2.4039223  )
        47        Li     tau(  47) = (   1.0000000   0.5773298   2.5887501  )
        48        Li     tau(  48) = (   1.2499999   0.7216868   2.2009296  )

     number of k points=    16  Marzari-Vanderbilt smearing, width (Ry)=  0.0100
                       cart. coord. in units 2pi/alat
        k(    1) = (   0.0000000   0.0000000   0.0000000), wk =   0.0408163
        k(    2) = (   0.0000000   0.1649573   0.0000000), wk =   0.0816327
        k(    3) = (   0.0000000   0.3299146   0.0000000), wk =   0.0816327
        k(    4) = (   0.0000000   0.4948719   0.0000000), wk =   0.0816327
        k(    5) = (   0.1428571   0.2474359   0.0000000), wk =   0.1632653
        k(    6) = (   0.1428571   0.4123932   0.0000000), wk =   0.1632653
        k(    7) = (   0.1428571  -0.5773505   0.0000000), wk =   0.0816327
        k(    8) = (   0.2857143  -0.6598292   0.0000000), wk =   0.1632653
        k(    9) = (  -0.1428571   0.0824786   0.0000000), wk =   0.1632653
        k(   10) = (  -0.2857143   0.1649573   0.0000000), wk =   0.1632653
        k(   11) = (  -0.4285714   0.2474359   0.0000000), wk =   0.1632653
        k(   12) = (   0.2857143   0.0000000   0.0000000), wk =   0.0816327
        k(   13) = (  -0.2857143   0.3299146   0.0000000), wk =   0.1632653
        k(   14) = (   0.4285714   0.0824786   0.0000000), wk =   0.1632653
        k(   15) = (   0.5714286  -0.1649573   0.0000000), wk =   0.1632653
        k(   16) = (  -0.4285714  -0.5773505   0.0000000), wk =   0.0816327

     Dense  grid:  8780317 G-vectors     FFT dimensions: ( 180, 180, 720)

     Smooth grid:  2221523 G-vectors     FFT dimensions: ( 108, 108, 450)

     Estimated max dynamical RAM per process >     133.98 MB

     Estimated total dynamical RAM >      44.10 GB

     Initial potential from superposition of free atoms

     starting charge     143.7788, renormalised to     144.0000

     negative rho (up, down):  3.930E-03 0.000E+00
     Starting wfcs are  240 randomized atomic wfcs
     Checking if some PAW data can be deallocated... 

     total cpu time spent up to now is       11.2 secs

     Self-consistent Calculation

     iteration #  1     ecut=    80.00 Ry     beta= 0.20
     Davidson diagonalization with overlap
     ethr =  1.00E-02,  avg # of iterations =  3.4

     negative rho (up, down):  4.569E-04 0.000E+00

     total cpu time spent up to now is       19.4 secs

     total energy              =    -722.01280060 Ry
     estimated scf accuracy    <       5.47390071 Ry

     iteration #  2     ecut=    80.00 Ry     beta= 0.20
     Davidson diagonalization with overlap
     ethr =  3.80E-03,  avg # of iterations =  1.4

     negative rho (up, down):  1.833E-07 0.000E+00

     total cpu time spent up to now is       24.9 secs

     total energy              =    -721.36347735 Ry
     estimated scf accuracy    <       4.09509804 Ry

     iteration #  3     ecut=    80.00 Ry     beta= 0.20
     Davidson diagonalization with overlap
     ethr =  2.84E-03,  avg # of iterations =  1.2

     negative rho (up, down):  4.969E-08 0.000E+00

     total cpu time spent up to now is       30.2 secs

     total energy              =    -721.65942175 Ry
     estimated scf accuracy    <       0.59874794 Ry

     iteration #  4     ecut=    80.00 Ry     beta= 0.20
     Davidson diagonalization with overlap
     ethr =  4.16E-04,  avg # of iterations =  4.0

     total cpu time spent up to now is       37.0 secs

     total energy              =    -721.75003397 Ry
     estimated scf accuracy    <       1.82923815 Ry

     iteration #  5     ecut=    80.00 Ry     beta= 0.20
     Davidson diagonalization with overlap
     ethr =  4.16E-04,  avg # of iterations =  1.0

     total cpu time spent up to now is       42.2 secs

     total energy              =    -721.71766841 Ry
     estimated scf accuracy    <       0.72304813 Ry

     iteration #  6     ecut=    80.00 Ry     beta= 0.20
     Davidson diagonalization with overlap
     ethr =  4.16E-04,  avg # of iterations =  1.0

     total cpu time spent up to now is       47.3 secs

     total energy              =    -721.73527465 Ry
     estimated scf accuracy    <       0.13698845 Ry

     iteration #  7     ecut=    80.00 Ry     beta= 0.20
     Davidson diagonalization with overlap
     ethr =  9.51E-05,  avg # of iterations =  4.9

     total cpu time spent up to now is       54.1 secs

     total energy              =    -721.83103632 Ry
     estimated scf accuracy    <       0.43124353 Ry

     iteration #  8     ecut=    80.00 Ry     beta= 0.20
     Davidson diagonalization with overlap
     ethr =  9.51E-05,  avg # of iterations =  2.2

     negative rho (up, down):  7.009E-03 0.000E+00

     total cpu time spent up to now is       59.9 secs

     total energy              =    -721.77783650 Ry
     estimated scf accuracy    <       1.38031475 Ry

     iteration #  9     ecut=    80.00 Ry     beta= 0.20
     Davidson diagonalization with overlap
     ethr =  9.51E-05,  avg # of iterations =  1.1

     negative rho (up, down):  4.772E-02 0.000E+00

     total cpu time spent up to now is       65.1 secs

     total energy              =    -721.77216846 Ry
     estimated scf accuracy    <       0.77901719 Ry

     iteration # 10     ecut=    80.00 Ry     beta= 0.20
     Davidson diagonalization with overlap
     ethr =  9.51E-05,  avg # of iterations =  1.0

     negative rho (up, down):  9.577E-02 0.000E+00

     total cpu time spent up to now is       70.2 secs

     total energy              =    -721.74578989 Ry
     estimated scf accuracy    <       0.59609150 Ry

     iteration # 11     ecut=    80.00 Ry     beta= 0.20
     Davidson diagonalization with overlap
     ethr =  9.51E-05,  avg # of iterations =  2.2

     negative rho (up, down):  1.283E-01 0.000E+00

     total cpu time spent up to now is       75.9 secs

     total energy              =    -721.71774155 Ry
     estimated scf accuracy    <       0.33197166 Ry

     iteration # 12     ecut=    80.00 Ry     beta= 0.20
     Davidson diagonalization with overlap
     ethr =  9.51E-05,  avg # of iterations =  8.8

     negative rho (up, down):  9.612E-02 0.000E+00

     total cpu time spent up to now is       83.8 secs

     total energy              =    -721.73880246 Ry
     estimated scf accuracy    <       0.12582844 Ry

     iteration # 13     ecut=    80.00 Ry     beta= 0.20
     Davidson diagonalization with overlap
     ethr =  8.74E-05,  avg # of iterations =  4.6

     negative rho (up, down):  1.188E-01 0.000E+00

     total cpu time spent up to now is       90.3 secs

     total energy              =    -721.70261987 Ry
     estimated scf accuracy    <       0.29307235 Ry

     iteration # 14     ecut=    80.00 Ry     beta= 0.20
     Davidson diagonalization with overlap
     c_bands:  1 eigenvalues not converged
     ethr =  8.74E-05,  avg # of iterations = 11.5

     negative rho (up, down):  8.969E-02 0.000E+00

     total cpu time spent up to now is       98.5 secs

     total energy              =    -721.72379240 Ry
     estimated scf accuracy    <       0.01948165 Ry

     iteration # 15     ecut=    80.00 Ry     beta= 0.20
     Davidson diagonalization with overlap
     c_bands:  1 eigenvalues not converged
     c_bands:  1 eigenvalues not converged
     ethr =  1.35E-05,  avg # of iterations = 13.2

     negative rho (up, down):  5.524E-02 0.000E+00

     total cpu time spent up to now is      107.9 secs

     total energy              =    -721.70294996 Ry
     estimated scf accuracy    <       0.23197079 Ry

     iteration # 16     ecut=    80.00 Ry     beta= 0.20
     Davidson diagonalization with overlap
     c_bands:  2 eigenvalues not converged
     ethr =  1.35E-05,  avg # of iterations = 15.6

     negative rho (up, down):  4.803E-02 0.000E+00

     total cpu time spent up to now is      118.7 secs

     total energy              =    -721.71125602 Ry
     estimated scf accuracy    <       0.01491316 Ry

     iteration # 17     ecut=    80.00 Ry     beta= 0.20
     Davidson diagonalization with overlap
     ethr =  1.04E-05,  avg # of iterations =  2.6

     negative rho (up, down):  1.268E-02 0.000E+00

     total cpu time spent up to now is      124.7 secs

     total energy              =    -721.71161407 Ry
     estimated scf accuracy    <       0.00316392 Ry

     iteration # 18     ecut=    80.00 Ry     beta= 0.20
     Davidson diagonalization with overlap
     ethr =  2.20E-06,  avg # of iterations = 10.1

     negative rho (up, down):  9.546E-03 0.000E+00

     total cpu time spent up to now is      133.8 secs

     total energy              =    -721.71164721 Ry
     estimated scf accuracy    <       0.00065562 Ry

     iteration # 19     ecut=    80.00 Ry     beta= 0.20
     Davidson diagonalization with overlap
     ethr =  4.55E-07,  avg # of iterations = 11.0

     negative rho (up, down):  7.433E-03 0.000E+00

     total cpu time spent up to now is      142.7 secs

     total energy              =    -721.71179260 Ry
     estimated scf accuracy    <       0.00004030 Ry

     iteration # 20     ecut=    80.00 Ry     beta= 0.20
     Davidson diagonalization with overlap
     ethr =  2.80E-08,  avg # of iterations =  5.4

     negative rho (up, down):  2.421E-03 0.000E+00

     total cpu time spent up to now is      150.0 secs

     total energy              =    -721.71183509 Ry
     estimated scf accuracy    <       0.00002408 Ry

     iteration # 21     ecut=    80.00 Ry     beta= 0.20
     Davidson diagonalization with overlap
     ethr =  1.67E-08,  avg # of iterations = 10.3

     negative rho (up, down):  1.640E-03 0.000E+00

     total cpu time spent up to now is      158.6 secs

     total energy              =    -721.71184484 Ry
     estimated scf accuracy    <       0.00007065 Ry

     iteration # 22     ecut=    80.00 Ry     beta= 0.20
     Davidson diagonalization with overlap
     c_bands:  1 eigenvalues not converged
     ethr =  1.67E-08,  avg # of iterations = 12.8

     negative rho (up, down):  1.528E-03 0.000E+00

     total cpu time spent up to now is      167.2 secs

     total energy              =    -721.71184715 Ry
     estimated scf accuracy    <       0.00000337 Ry

     iteration # 23     ecut=    80.00 Ry     beta= 0.20
     Davidson diagonalization with overlap
     ethr =  2.34E-09,  avg # of iterations =  3.8

     negative rho (up, down):  1.208E-03 0.000E+00

     total cpu time spent up to now is      174.0 secs

     total energy              =    -721.71183907 Ry
     estimated scf accuracy    <       0.00000235 Ry

     iteration # 24     ecut=    80.00 Ry     beta= 0.20
     Davidson diagonalization with overlap
     ethr =  1.63E-09,  avg # of iterations =  4.0

     negative rho (up, down):  4.217E-04 0.000E+00

     total cpu time spent up to now is      180.5 secs

     End of self-consistent calculation

          k = 0.0000 0.0000 0.0000 (277431 PWs)   bands (ev):

   -49.3612 -49.3612 -49.3612 -49.3612 -49.3612 -49.3612 -49.3612 -49.3612
   -48.5609 -48.5609 -48.5606 -48.5606 -48.5606 -48.5606 -48.5606 -48.5606
   -48.3443 -48.3442 -48.3442 -48.3442 -48.3442 -48.3442 -48.3441 -48.3441
   -48.3040 -48.3001 -48.3000 -48.3000 -48.2967 -48.2951 -48.2951 -48.2950
   -48.2851 -48.2851 -48.2851 -48.2848 -48.2816 -48.2816 -48.2816 -48.2768
   -48.1919 -48.1919 -48.1918 -48.1918 -48.1918 -48.1918 -48.1915 -48.1914
    -5.1689  -4.7547  -4.0187  -3.5789  -3.5789  -3.5789  -3.5776  -3.5776
    -3.5776  -3.1674  -3.1674  -3.1674  -3.1575  -3.1575  -3.1574  -3.0951
    -2.4350  -2.4350  -2.4350  -2.4058  -2.4058  -2.4058  -2.1354  -1.6226
    -1.6226  -1.6226  -1.3948  -1.3948  -1.3948  -1.3015  -1.3015  -1.3015
    -0.9954  -0.8040  -0.8040  -0.8040  -0.5991  -0.5990  -0.5990  -0.0718
     0.0196   0.0197   0.0197   0.1402   0.1402   0.1402   0.5853   0.5853
     0.5854   0.7119   0.7121   0.8092   0.8431   0.8433   0.9455   1.1777
     1.2544   1.2580   1.2581   1.2639

          k = 0.0000 0.1650 0.0000 (277535 PWs)   bands (ev):

   -49.3612 -49.3612 -49.3612 -49.3612 -49.3612 -49.3612 -49.3612 -49.3612
   -48.5609 -48.5609 -48.5606 -48.5606 -48.5606 -48.5606 -48.5606 -48.5606
   -48.3443 -48.3442 -48.3442 -48.3442 -48.3442 -48.3442 -48.3441 -48.3441
   -48.3039 -48.3003 -48.3001 -48.3001 -48.2967 -48.2951 -48.2951 -48.2950
   -48.2852 -48.2851 -48.2851 -48.2848 -48.2817 -48.2816 -48.2813 -48.2770
   -48.1919 -48.1919 -48.1918 -48.1918 -48.1918 -48.1918 -48.1915 -48.1914
    -5.1365  -4.7223  -3.9996  -3.9859  -3.7730  -3.7730  -3.5860  -3.3715
    -3.3715  -3.3049  -3.3049  -3.0890  -3.0613  -2.9114  -2.9114  -2.8587
    -2.6556  -2.6051  -2.6051  -2.1725  -2.1725  -2.1024  -2.0023  -1.8546
    -1.7003  -1.7003  -1.4510  -1.4510  -1.2862  -1.2862  -1.2589  -1.2319
    -0.9698  -0.9698  -0.9677  -0.7616  -0.6094  -0.6092  -0.6092  -0.0961
    -0.0960  -0.0563   0.0553   0.0553   0.1248   0.1255   0.1820   0.2250
     0.5593   0.5915   0.6761   0.6761   0.7086   0.8407   0.9871   1.1018
     1.1019   1.2470   1.2556   1.2785

          k = 0.0000 0.3299 0.0000 (277627 PWs)   bands (ev):

   -49.3612 -49.3612 -49.3612 -49.3612 -49.3612 -49.3612 -49.3612 -49.3612
   -48.5609 -48.5608 -48.5607 -48.5607 -48.5606 -48.5606 -48.5606 -48.5606
   -48.3443 -48.3442 -48.3442 -48.3442 -48.3442 -48.3441 -48.3441 -48.3441
   -48.3033 -48.3009 -48.3001 -48.3001 -48.2964 -48.2954 -48.2950 -48.2950
   -48.2853 -48.2850 -48.2850 -48.2850 -48.2817 -48.2817 -48.2804 -48.2775
   -48.1919 -48.1919 -48.1918 -48.1918 -48.1918 -48.1918 -48.1915 -48.1915
    -5.0392  -4.6249  -4.3572  -3.9425  -3.9040  -3.9040  -3.8875  -3.4900
    -3.4900  -3.2021  -2.9998  -2.9998  -2.9600  -2.7627  -2.7627  -2.5641
    -2.5641  -2.5424  -2.2705  -2.1129  -2.0043  -1.9099  -1.9099  -1.8021
    -1.8021  -1.7533  -1.7533  -1.5008  -1.3486  -1.3486  -1.2776  -1.1313
    -1.1278  -1.1277  -0.8931  -0.6817  -0.6817  -0.6347  -0.5734  -0.4066
    -0.4056  -0.4056  -0.2396  -0.2114   0.0846   0.0846   0.1026   0.1585
     0.2502   0.3071   0.6685   0.7274   0.7544   0.7544   0.8144   0.8144
     1.0052   1.1297   1.1737   1.3651

          k = 0.0000 0.4949 0.0000 (277696 PWs)   bands (ev):

   -49.3612 -49.3612 -49.3612 -49.3612 -49.3612 -49.3612 -49.3612 -49.3612
   -48.5608 -48.5608 -48.5607 -48.5607 -48.5606 -48.5606 -48.5606 -48.5606
   -48.3443 -48.3442 -48.3442 -48.3442 -48.3441 -48.3441 -48.3441 -48.3441
   -48.3026 -48.3017 -48.3001 -48.3001 -48.2961 -48.2958 -48.2950 -48.2950
   -48.2853 -48.2851 -48.2850 -48.2850 -48.2817 -48.2817 -48.2793 -48.2783
   -48.1919 -48.1919 -48.1918 -48.1918 -48.1917 -48.1917 -48.1916 -48.1916
    -4.8770  -4.6497  -4.4625  -4.2350  -3.9697  -3.9697  -3.7237  -3.5548
    -3.5548  -3.4948  -2.8163  -2.8163  -2.7921  -2.6298  -2.6298  -2.5602
    -2.2396  -2.2396  -2.1868  -2.1868  -1.9329  -1.8888  -1.8888  -1.8449
    -1.7764  -1.7764  -1.6347  -1.5147  -1.4627  -1.4627  -1.2751  -1.1070
    -1.1070  -0.9840  -0.9839  -0.9186  -0.9093  -0.8723  -0.7824  -0.6212
    -0.4234  -0.3282  -0.3282  -0.3253  -0.1281  -0.0486  -0.0334  -0.0334
     0.3580   0.3829   0.5152   0.6606   0.6606   0.7122   0.8050   0.8065
     0.8065   0.9923   1.3200   1.4358

          k = 0.1429 0.2474 0.0000 (277542 PWs)   bands (ev):

   -49.3612 -49.3612 -49.3612 -49.3612 -49.3612 -49.3612 -49.3612 -49.3612
   -48.5609 -48.5608 -48.5607 -48.5607 -48.5606 -48.5606 -48.5606 -48.5606
   -48.3443 -48.3442 -48.3442 -48.3442 -48.3442 -48.3442 -48.3441 -48.3441
   -48.3035 -48.3005 -48.3005 -48.2999 -48.2965 -48.2952 -48.2952 -48.2949
   -48.2852 -48.2852 -48.2849 -48.2849 -48.2821 -48.2810 -48.2810 -48.2773
   -48.1919 -48.1919 -48.1918 -48.1918 -48.1918 -48.1918 -48.1915 -48.1915
    -5.0716  -4.6573  -4.1625  -4.1625  -3.9203  -3.7479  -3.7479  -3.4854
    -3.4841  -3.0741  -3.0623  -3.0094  -3.0094  -2.9937  -2.8008  -2.8008
    -2.3814  -2.3814  -2.3423  -2.3070  -2.0746  -2.0745  -2.0368  -1.8421
    -1.6642  -1.6642  -1.5138  -1.3952  -1.3699  -1.3699  -1.2868  -1.2251
    -1.2251  -0.9156  -0.8908  -0.8908  -0.6764  -0.5182  -0.5181  -0.4316
    -0.2736  -0.2612  -0.0679  -0.0488  -0.0300  -0.0300   0.1866   0.1910
     0.1910   0.2815   0.6964   0.6965   0.7832   0.8010   0.8448   1.0362
     1.1210   1.1211   1.1279   1.1778

          k = 0.1429 0.4124 0.0000 (277662 PWs)   bands (ev):

   -49.3612 -49.3612 -49.3612 -49.3612 -49.3612 -49.3612 -49.3612 -49.3612
   -48.5608 -48.5608 -48.5607 -48.5607 -48.5607 -48.5606 -48.5606 -48.5606
   -48.3443 -48.3442 -48.3442 -48.3442 -48.3441 -48.3441 -48.3441 -48.3441
   -48.3029 -48.3012 -48.3006 -48.2998 -48.2962 -48.2955 -48.2952 -48.2948
   -48.2853 -48.2852 -48.2851 -48.2847 -48.2825 -48.2808 -48.2799 -48.2780
   -48.1919 -48.1919 -48.1918 -48.1918 -48.1917 -48.1917 -48.1916 -48.1915
    -4.9419  -4.5274  -4.4873  -4.2605  -4.0726  -3.8456  -3.7892  -3.5834
    -3.3318  -3.1829  -3.1200  -3.1046  -2.8591  -2.7269  -2.4614  -2.4152
    -2.3992  -2.2908  -2.2213  -2.1730  -2.0283  -1.9964  -1.9076  -1.8325
    -1.8037  -1.6891  -1.5036  -1.4997  -1.4020  -1.2550  -1.2083  -1.1808
    -1.1079  -1.0948  -1.0758  -0.9403  -0.8160  -0.7330  -0.6467  -0.5609
    -0.5167  -0.4598  -0.3586  -0.2149  -0.2093  -0.1769   0.1097   0.1558
     0.2123   0.3078   0.4990   0.6404   0.7398   0.7602   0.8061   0.8218
     0.8524   1.1030   1.2513   1.2645

          k = 0.1429-0.5774 0.0000 (277716 PWs)   bands (ev):

   -49.3612 -49.3612 -49.3612 -49.3612 -49.3612 -49.3612 -49.3612 -49.3612
   -48.5608 -48.5608 -48.5607 -48.5607 -48.5607 -48.5606 -48.5606 -48.5606
   -48.3443 -48.3442 -48.3442 -48.3442 -48.3441 -48.3441 -48.3441 -48.3441
   -48.3021 -48.3021 -48.3007 -48.2998 -48.2959 -48.2959 -48.2953 -48.2948
   -48.2852 -48.2852 -48.2852 -48.2845 -48.2827 -48.2807 -48.2789 -48.2789
   -48.1919 -48.1919 -48.1918 -48.1918 -48.1917 -48.1917 -48.1916 -48.1916
    -4.7472  -4.7472  -4.3325  -4.3325  -4.2932  -3.8782  -3.6165  -3.5928
    -3.5928  -3.2028  -3.1367  -2.7366  -2.7318  -2.6588  -2.6588  -2.4877
    -2.3035  -2.2784  -2.2081  -2.0817  -2.0680  -1.7231  -1.7231  -1.6574
    -1.6485  -1.6358  -1.5942  -1.5942  -1.5297  -1.4477  -1.3268  -1.1796
    -1.1796  -1.0044  -0.9671  -0.9671  -0.9111  -0.8186  -0.7767  -0.7767
    -0.5070  -0.5069  -0.5021  -0.3290  -0.2106  -0.2106  -0.1188   0.2412
     0.3283   0.3283   0.5190   0.5190   0.6583   0.7027   0.7160   0.8987
     0.9215   0.9215   1.4027   1.4027

          k = 0.2857-0.6598 0.0000 (277774 PWs)   bands (ev):

   -49.3612 -49.3612 -49.3612 -49.3612 -49.3612 -49.3612 -49.3612 -49.3612
   -48.5608 -48.5608 -48.5607 -48.5607 -48.5607 -48.5607 -48.5606 -48.5606
   -48.3443 -48.3442 -48.3442 -48.3442 -48.3441 -48.3441 -48.3441 -48.3441
   -48.3022 -48.3014 -48.3014 -48.2997 -48.2959 -48.2956 -48.2956 -48.2947
   -48.2853 -48.2853 -48.2852 -48.2841 -48.2833 -48.2797 -48.2797 -48.2788
   -48.1919 -48.1919 -48.1918 -48.1917 -48.1917 -48.1917 -48.1916 -48.1916
    -4.7797  -4.5525  -4.5525  -4.3650  -4.1377  -4.1377  -3.6255  -3.3968
    -3.3968  -3.2053  -3.2035  -2.8206  -2.7773  -2.7406  -2.6918  -2.4605
    -2.4605  -2.3596  -2.0342  -2.0128  -1.8689  -1.8689  -1.7504  -1.5961
    -1.5457  -1.5456  -1.5044  -1.5044  -1.4381  -1.4381  -1.2505  -1.2469
    -1.1831  -1.0660  -1.0660  -1.0483  -0.8382  -0.8382  -0.8339  -0.8075
    -0.7375  -0.6069  -0.4178  -0.4177  -0.3848  -0.0713  -0.0064  -0.0064
     0.1974   0.4566   0.4566   0.5098   0.6402   0.7476   0.8402   0.8403
     1.0578   1.0579   1.1029   1.3390

          k =-0.1429 0.0825 0.0000 (277535 PWs)   bands (ev):

   -49.3612 -49.3612 -49.3612 -49.3612 -49.3612 -49.3612 -49.3612 -49.3612
   -48.5609 -48.5609 -48.5607 -48.5606 -48.5606 -48.5606 -48.5606 -48.5606
   -48.3443 -48.3442 -48.3442 -48.3442 -48.3442 -48.3442 -48.3441 -48.3441
   -48.3039 -48.3003 -48.3001 -48.3001 -48.2967 -48.2951 -48.2950 -48.2950
   -48.2852 -48.2851 -48.2851 -48.2848 -48.2817 -48.2817 -48.2813 -48.2770
   -48.1919 -48.1919 -48.1918 -48.1918 -48.1918 -48.1918 -48.1915 -48.1914
    -5.1365  -4.7223  -3.9996  -3.9859  -3.7730  -3.7730  -3.5860  -3.3715
    -3.3715  -3.3049  -3.3049  -3.0890  -3.0613  -2.9114  -2.9114  -2.8588
    -2.6556  -2.6051  -2.6051  -2.1725  -2.1724  -2.1024  -2.0024  -1.8546
    -1.7003  -1.7003  -1.4510  -1.4510  -1.2862  -1.2862  -1.2589  -1.2319
    -0.9698  -0.9698  -0.9677  -0.7616  -0.6093  -0.6093  -0.6092  -0.0960
    -0.0960  -0.0563   0.0553   0.0553   0.1248   0.1255   0.1819   0.2250
     0.5594   0.5916   0.6760   0.6761   0.7086   0.8407   0.9871   1.1018
     1.1018   1.2471   1.2556   1.2785

          k =-0.2857 0.1650 0.0000 (277627 PWs)   bands (ev):

   -49.3612 -49.3612 -49.3612 -49.3612 -49.3612 -49.3612 -49.3612 -49.3612
   -48.5609 -48.5608 -48.5607 -48.5607 -48.5606 -48.5606 -48.5606 -48.5606
   -48.3443 -48.3442 -48.3442 -48.3442 -48.3442 -48.3441 -48.3441 -48.3441
   -48.3033 -48.3009 -48.3001 -48.3001 -48.2964 -48.2954 -48.2950 -48.2950
   -48.2853 -48.2850 -48.2850 -48.2850 -48.2817 -48.2817 -48.2804 -48.2775
   -48.1919 -48.1919 -48.1918 -48.1918 -48.1918 -48.1917 -48.1915 -48.1915
    -5.0392  -4.6249  -4.3572  -3.9425  -3.9040  -3.9040  -3.8875  -3.4900
    -3.4900  -3.2021  -2.9998  -2.9998  -2.9600  -2.7627  -2.7626  -2.5641
    -2.5641  -2.5424  -2.2705  -2.1129  -2.0043  -1.9099  -1.9098  -1.8021
    -1.8021  -1.7533  -1.7533  -1.5008  -1.3485  -1.3485  -1.2776  -1.1313
    -1.1277  -1.1277  -0.8931  -0.6817  -0.6817  -0.6347  -0.5734  -0.4065
    -0.4056  -0.4056  -0.2396  -0.2115   0.0846   0.0846   0.1027   0.1585
     0.2502   0.3071   0.6686   0.7274   0.7543   0.7544   0.8144   0.8144
     1.0052   1.1296   1.1737   1.3645

          k =-0.4286 0.2474 0.0000 (277696 PWs)   bands (ev):

   -49.3612 -49.3612 -49.3612 -49.3612 -49.3612 -49.3612 -49.3612 -49.3612
   -48.5608 -48.5608 -48.5607 -48.5607 -48.5606 -48.5606 -48.5606 -48.5606
   -48.3443 -48.3442 -48.3442 -48.3442 -48.3442 -48.3441 -48.3441 -48.3441
   -48.3026 -48.3017 -48.3001 -48.3001 -48.2961 -48.2958 -48.2950 -48.2950
   -48.2853 -48.2851 -48.2850 -48.2850 -48.2817 -48.2817 -48.2793 -48.2783
   -48.1919 -48.1919 -48.1918 -48.1918 -48.1917 -48.1917 -48.1916 -48.1916
    -4.8770  -4.6497  -4.4625  -4.2350  -3.9697  -3.9697  -3.7237  -3.5548
    -3.5548  -3.4948  -2.8163  -2.8163  -2.7921  -2.6298  -2.6298  -2.5602
    -2.2396  -2.2396  -2.1868  -2.1868  -1.9329  -1.8888  -1.8888  -1.8449
    -1.7764  -1.7764  -1.6347  -1.5147  -1.4627  -1.4627  -1.2751  -1.1070
    -1.1069  -0.9840  -0.9840  -0.9186  -0.9093  -0.8724  -0.7824  -0.6213
    -0.4234  -0.3282  -0.3282  -0.3252  -0.1281  -0.0486  -0.0334  -0.0334
     0.3580   0.3829   0.5152   0.6606   0.6606   0.7123   0.8050   0.8065
     0.8065   0.9923   1.3200   1.4358

          k = 0.2857 0.0000 0.0000 (277542 PWs)   bands (ev):

   -49.3612 -49.3612 -49.3612 -49.3612 -49.3612 -49.3612 -49.3612 -49.3612
   -48.5609 -48.5608 -48.5607 -48.5606 -48.5606 -48.5606 -48.5606 -48.5606
   -48.3443 -48.3442 -48.3442 -48.3442 -48.3442 -48.3441 -48.3441 -48.3441
   -48.3035 -48.3005 -48.3005 -48.2999 -48.2965 -48.2952 -48.2952 -48.2949
   -48.2852 -48.2852 -48.2849 -48.2849 -48.2821 -48.2810 -48.2810 -48.2773
   -48.1919 -48.1919 -48.1918 -48.1918 -48.1918 -48.1918 -48.1915 -48.1915
    -5.0716  -4.6573  -4.1625  -4.1625  -3.9203  -3.7479  -3.7479  -3.4854
    -3.4841  -3.0741  -3.0622  -3.0094  -3.0094  -2.9937  -2.8008  -2.8008
    -2.3814  -2.3814  -2.3423  -2.3070  -2.0746  -2.0746  -2.0368  -1.8421
    -1.6642  -1.6642  -1.5137  -1.3952  -1.3699  -1.3699  -1.2868  -1.2251
    -1.2251  -0.9156  -0.8908  -0.8908  -0.6765  -0.5181  -0.5181  -0.4316
    -0.2735  -0.2612  -0.0679  -0.0489  -0.0300  -0.0300   0.1866   0.1910
     0.1910   0.2815   0.6964   0.6964   0.7832   0.8009   0.8448   1.0362
     1.1211   1.1211   1.1279   1.1778

          k =-0.2857 0.3299 0.0000 (277662 PWs)   bands (ev):

   -49.3612 -49.3612 -49.3612 -49.3612 -49.3612 -49.3612 -49.3612 -49.3612
   -48.5608 -48.5608 -48.5607 -48.5607 -48.5607 -48.5606 -48.5606 -48.5606
   -48.3443 -48.3442 -48.3442 -48.3442 -48.3442 -48.3441 -48.3441 -48.3441
   -48.3029 -48.3012 -48.3006 -48.2998 -48.2962 -48.2955 -48.2952 -48.2948
   -48.2853 -48.2852 -48.2851 -48.2847 -48.2825 -48.2808 -48.2799 -48.2780
   -48.1919 -48.1919 -48.1918 -48.1918 -48.1917 -48.1917 -48.1916 -48.1915
    -4.9419  -4.5274  -4.4873  -4.2604  -4.0726  -3.8456  -3.7892  -3.5834
    -3.3318  -3.1829  -3.1200  -3.1046  -2.8591  -2.7269  -2.4614  -2.4152
    -2.3992  -2.2908  -2.2213  -2.1730  -2.0283  -1.9964  -1.9076  -1.8325
    -1.8037  -1.6891  -1.5037  -1.4997  -1.4019  -1.2550  -1.2083  -1.1808
    -1.1080  -1.0948  -1.0758  -0.9403  -0.8160  -0.7331  -0.6467  -0.5610
    -0.5167  -0.4598  -0.3585  -0.2150  -0.2093  -0.1769   0.1097   0.1557
     0.2122   0.3078   0.4990   0.6404   0.7397   0.7603   0.8061   0.8218
     0.8523   1.1029   1.2513   1.2649

          k = 0.4286 0.0825 0.0000 (277662 PWs)   bands (ev):

   -49.3612 -49.3612 -49.3612 -49.3612 -49.3612 -49.3612 -49.3612 -49.3612
   -48.5608 -48.5608 -48.5607 -48.5607 -48.5607 -48.5606 -48.5606 -48.5606
   -48.3443 -48.3442 -48.3442 -48.3442 -48.3442 -48.3441 -48.3441 -48.3441
   -48.3029 -48.3012 -48.3006 -48.2998 -48.2962 -48.2955 -48.2952 -48.2948
   -48.2853 -48.2852 -48.2851 -48.2847 -48.2825 -48.2808 -48.2799 -48.2780
   -48.1919 -48.1919 -48.1918 -48.1918 -48.1917 -48.1917 -48.1916 -48.1915
    -4.9419  -4.5274  -4.4873  -4.2605  -4.0726  -3.8456  -3.7892  -3.5834
    -3.3318  -3.1829  -3.1200  -3.1046  -2.8591  -2.7269  -2.4614  -2.4152
    -2.3992  -2.2908  -2.2213  -2.1729  -2.0283  -1.9963  -1.9076  -1.8325
    -1.8037  -1.6891  -1.5037  -1.4997  -1.4020  -1.2550  -1.2083  -1.1808
    -1.1080  -1.0948  -1.0758  -0.9403  -0.8160  -0.7330  -0.6467  -0.5609
    -0.5167  -0.4598  -0.3585  -0.2150  -0.2093  -0.1769   0.1097   0.1557
     0.2123   0.3078   0.4990   0.6404   0.7398   0.7603   0.8060   0.8218
     0.8523   1.1029   1.2513   1.2645

          k = 0.5714-0.1650 0.0000 (277716 PWs)   bands (ev):

   -49.3612 -49.3612 -49.3612 -49.3612 -49.3612 -49.3612 -49.3612 -49.3612
   -48.5608 -48.5608 -48.5607 -48.5607 -48.5607 -48.5606 -48.5606 -48.5606
   -48.3443 -48.3442 -48.3442 -48.3442 -48.3442 -48.3441 -48.3441 -48.3441
   -48.3021 -48.3021 -48.3007 -48.2998 -48.2959 -48.2959 -48.2953 -48.2948
   -48.2852 -48.2852 -48.2852 -48.2845 -48.2827 -48.2807 -48.2789 -48.2789
   -48.1919 -48.1919 -48.1918 -48.1918 -48.1917 -48.1917 -48.1916 -48.1916
    -4.7472  -4.7472  -4.3325  -4.3325  -4.2932  -3.8782  -3.6165  -3.5928
    -3.5928  -3.2028  -3.1367  -2.7366  -2.7317  -2.6588  -2.6588  -2.4877
    -2.3036  -2.2784  -2.2081  -2.0817  -2.0680  -1.7231  -1.7231  -1.6574
    -1.6485  -1.6359  -1.5942  -1.5942  -1.5298  -1.4477  -1.3268  -1.1796
    -1.1796  -1.0043  -0.9671  -0.9671  -0.9111  -0.8187  -0.7767  -0.7767
    -0.5070  -0.5069  -0.5021  -0.3290  -0.2106  -0.2105  -0.1188   0.2411
     0.3282   0.3283   0.5189   0.5190   0.6582   0.7027   0.7160   0.8986
     0.9215   0.9215   1.4027   1.4027

          k =-0.4286-0.5774 0.0000 (277774 PWs)   bands (ev):

   -49.3612 -49.3612 -49.3612 -49.3612 -49.3612 -49.3612 -49.3612 -49.3612
   -48.5608 -48.5608 -48.5607 -48.5607 -48.5607 -48.5607 -48.5606 -48.5606
   -48.3443 -48.3442 -48.3442 -48.3442 -48.3442 -48.3441 -48.3441 -48.3441
   -48.3022 -48.3014 -48.3014 -48.2997 -48.2959 -48.2956 -48.2956 -48.2947
   -48.2853 -48.2853 -48.2852 -48.2841 -48.2833 -48.2797 -48.2797 -48.2788
   -48.1919 -48.1919 -48.1918 -48.1917 -48.1917 -48.1917 -48.1916 -48.1916
    -4.7797  -4.5525  -4.5525  -4.3650  -4.1377  -4.1377  -3.6255  -3.3968
    -3.3968  -3.2053  -3.2035  -2.8207  -2.7773  -2.7406  -2.6918  -2.4605
    -2.4605  -2.3596  -2.0343  -2.0128  -1.8689  -1.8689  -1.7505  -1.5961
    -1.5456  -1.5456  -1.5044  -1.5044  -1.4381  -1.4381  -1.2505  -1.2469
    -1.1831  -1.0660  -1.0660  -1.0484  -0.8382  -0.8382  -0.8340  -0.8075
    -0.7375  -0.6069  -0.4177  -0.4177  -0.3848  -0.0713  -0.0064  -0.0064
     0.1973   0.4566   0.4566   0.5098   0.6402   0.7476   0.8402   0.8403
     1.0578   1.0578   1.1030   1.3390

     the Fermi energy is    -1.7584 ev

!    total energy              =    -721.71183618 Ry
     total all-electron energy =      -721.712226 Ry
     estimated scf accuracy    <       0.00000081 Ry
     smearing contrib. (-TS)   =      -0.00131085 Ry
     internal energy E=F+TS    =    -721.71052533 Ry

     The total energy is F=E-TS. E is the sum of the following terms:
     one-electron contribution =   -6440.70741234 Ry
     hartree contribution      =    3147.21674333 Ry
     xc contribution           =    -171.90811931 Ry
     ewald contribution        =    2739.45571472 Ry
     one-center paw contrib.   =       4.23254827 Ry

     convergence has been achieved in  24 iterations

     Forces acting on atoms (cartesian axes, Ry/au):

     atom    1 type  1   force =     0.00000000    0.00000340    0.00017271
     atom    2 type  1   force =     0.00000054    0.00000487    0.00051633
     atom    3 type  1   force =     0.00000000   -0.00000093   -0.00034703
     atom    4 type  1   force =     0.00000000   -0.00000321    0.00006215
     atom    5 type  1   force =     0.00000062   -0.00000208    0.00018929
     atom    6 type  1   force =     0.00000000   -0.00000166    0.00091862
     atom    7 type  1   force =     0.00000000    0.00000394   -0.00091567
     atom    8 type  1   force =     0.00000056   -0.00000005   -0.00019146
     atom    9 type  1   force =     0.00000000   -0.00000574   -0.00007337
     atom   10 type  1   force =     0.00000000   -0.00000789    0.00034954
     atom   11 type  1   force =     0.00000103    0.00000498   -0.00051291
     atom   12 type  1   force =     0.00000000   -0.00000298   -0.00017010
     atom   13 type  1   force =     0.00000070    0.00000048    0.00017145
     atom   14 type  1   force =     0.00000000   -0.00000455    0.00051476
     atom   15 type  1   force =    -0.00000079    0.00000432   -0.00034351
     atom   16 type  1   force =    -0.00000051   -0.00000119    0.00006650
     atom   17 type  1   force =     0.00000000    0.00000057    0.00019451
     atom   18 type  1   force =     0.00000057   -0.00000512    0.00091698
     atom   19 type  1   force =     0.00000016    0.00000219   -0.00091750
     atom   20 type  1   force =     0.00000000   -0.00000248   -0.00018760
     atom   21 type  1   force =    -0.00000304   -0.00000169   -0.00006753
     atom   22 type  1   force =     0.00000019   -0.00000349    0.00034444
     atom   23 type  1   force =     0.00000000   -0.00000880   -0.00051155
     atom   24 type  1   force =    -0.00000370    0.00000212   -0.00017086
     atom   25 type  1   force =     0.00000000   -0.00000320    0.00016959
     atom   26 type  1   force =    -0.00000054    0.00000487    0.00051633
     atom   27 type  1   force =     0.00000000    0.00000715   -0.00034641
     atom   28 type  1   force =     0.00000000    0.00000038    0.00006660
     atom   29 type  1   force =    -0.00000062   -0.00000208    0.00018929
     atom   30 type  1   force =     0.00000000   -0.00000158    0.00091775
     atom   31 type  1   force =     0.00000000    0.00000471   -0.00091574
     atom   32 type  1   force =    -0.00000056   -0.00000005   -0.00019146
     atom   33 type  1   force =     0.00000000   -0.00000143   -0.00006944
     atom   34 type  1   force =     0.00000000   -0.00000166    0.00034155
     atom   35 type  1   force =    -0.00000103    0.00000498   -0.00051291
     atom   36 type  1   force =     0.00000000    0.00000135   -0.00016765
     atom   37 type  1   force =    -0.00000070    0.00000048    0.00017145
     atom   38 type  1   force =     0.00000000    0.00000559    0.00051216
     atom   39 type  1   force =     0.00000079    0.00000432   -0.00034351
     atom   40 type  1   force =     0.00000051   -0.00000119    0.00006650
     atom   41 type  1   force =     0.00000000    0.00000329    0.00018238
     atom   42 type  1   force =    -0.00000057   -0.00000512    0.00091698
     atom   43 type  1   force =    -0.00000016    0.00000219   -0.00091750
     atom   44 type  1   force =     0.00000000   -0.00000164   -0.00018741
     atom   45 type  1   force =     0.00000304   -0.00000169   -0.00006753
     atom   46 type  1   force =    -0.00000019   -0.00000349    0.00034444
     atom   47 type  1   force =     0.00000000    0.00000670   -0.00051277
     atom   48 type  1   force =     0.00000370    0.00000212   -0.00017086

     Total force =     0.003217     Total SCF correction =     0.000665
     SCF correction compared to forces is large: reduce conv_thr to get better values

     BFGS Geometry Optimization
     Energy error            =      1.0E-05 Ry
     Gradient error          =      9.2E-04 Ry/Bohr

     number of scf cycles    =   1
     number of bfgs steps    =   0

     energy             new  =    -721.7118361791 Ry

     new trust radius        =       0.0009186242 bohr
     new conv_thr            =       0.0000010000 Ry


ATOMIC_POSITIONS (angstrom)
Li              -0.0000000100        0.0000112718       20.2647239933
Li               2.4290147544        1.4025941158       16.4967672920
Li               4.8580444100        2.8048575962       18.2921470218
Li               0.0000000100        0.0001362913       17.1940265560
Li               2.4290209480        1.4024293703       19.3641322358
Li               4.8580445000        2.8050875405       15.2873098442
Li               0.0000000000       -0.0002926844       26.3617486984
Li               2.4290220662        1.4023636512       22.2849191418
Li               4.8580444100        2.8046537629       24.4550245550
Li              -0.0000000100       -0.0000672527       23.3569107173
Li               2.4290290654        1.4022058557       25.1522878511
Li               4.8580444200        2.8047839450       21.3843351263
Li               2.4290241479        4.2071969215       20.2647166251
Li               4.8580443900        5.6097898749       16.4967652699
Li               7.2870692399        7.0120467564       18.2921502431
Li               2.4290284290        4.2073219693       17.1940234279
Li               4.8580444100        5.6096213636       19.3641341508
Li               7.2870971835        7.0122578904       15.2873068336
Li               2.4289965942        4.2069103998       26.3617476425
Li               4.8580444000        5.6095508995       22.2849203850
Li               7.2870599103        7.0118470852       24.4550293931
Li               2.4290213630        4.2071237148       23.3569046715
Li               4.8580444000        5.6093753234       25.1522875503
Li               7.2870659901        7.0119740097       21.3843371059
Li               4.8580444000        0.0000095349       20.2647155912
Li               7.2870740656        1.4025940958       16.4967674420
Li               9.7160888200        2.8048653238       18.2921486001
Li               4.8580443900        0.0001458524       17.1940234540
Li               7.2870678720        1.4024293703       19.3641323158
Li               9.7160887400        2.8051227320       15.2873071119
Li               4.8580444000       -0.0003220477       26.3617485119
Li               7.2870667538        1.4023636512       22.2849191918
Li               9.7160888300        2.8046500948       24.4550284043
Li               4.8580444000       -0.0000650111       23.3569031082
Li               7.2870597546        1.4022058457       25.1522878911
Li               9.7160888200        2.8047878443       21.3843387448
Li               7.2870646621        4.2071969315       20.2647166251
Li               9.7160888400        5.6097864986       16.4968078810
Li              12.1451084101        7.0120467664       18.2921502531
Li               7.2870603810        4.2073219893       17.1940234379
Li               9.7160888300        5.6096209010       19.3641461399
Li              12.1450804665        7.0122580004       15.2873068436
Li               7.2870922158        4.2069104098       26.3617476325
Li               9.7160888300        5.6095508909       22.2849147451
Li              12.1451177397        7.0118470852       24.4550293931
Li               7.2870674570        4.2071237148       23.3569046615
Li               9.7160888300        5.6093907342       25.1522546625
Li              12.1451116699        7.0119740197       21.3843371059


     Message from routine punch:
     Nothing written, as per user request (disk_io='none')
     NEW-OLD atomic charge density approx. for the potential

     negative rho (up, down):  4.237E-04 0.000E+00

     total cpu time spent up to now is      182.2 secs

     Self-consistent Calculation

     iteration #  1     ecut=    80.00 Ry     beta= 0.20
     Davidson diagonalization with overlap
     ethr =  1.00E-06,  avg # of iterations =  8.8

     Threshold (ethr) on eigenvalues was too large:
     Diagonalizing with lowered threshold

     Davidson diagonalization with overlap
     ethr =  7.82E-09,  avg # of iterations =  2.0

     negative rho (up, down):  4.194E-04 0.000E+00

     total cpu time spent up to now is      196.5 secs

     total energy              =    -721.71184631 Ry
     estimated scf accuracy    <       0.00001171 Ry

     iteration #  2     ecut=    80.00 Ry     beta= 0.20
     Davidson diagonalization with overlap
     ethr =  8.13E-09,  avg # of iterations =  1.0

     negative rho (up, down):  4.080E-04 0.000E+00

     total cpu time spent up to now is      201.7 secs

     total energy              =    -721.71184595 Ry
     estimated scf accuracy    <       0.00000590 Ry

     iteration #  3     ecut=    80.00 Ry     beta= 0.20
     Davidson diagonalization with overlap
     ethr =  4.10E-09,  avg # of iterations =  1.0

     negative rho (up, down):  4.225E-04 0.000E+00

     total cpu time spent up to now is      206.8 secs

     End of self-consistent calculation

          k = 0.0000 0.0000 0.0000 (277431 PWs)   bands (ev):

   -49.3599 -49.3599 -49.3599 -49.3599 -49.3599 -49.3599 -49.3599 -49.3599
   -48.5628 -48.5628 -48.5626 -48.5626 -48.5626 -48.5625 -48.5625 -48.5625
   -48.3434 -48.3434 -48.3434 -48.3434 -48.3434 -48.3433 -48.3433 -48.3433
   -48.3043 -48.3003 -48.3003 -48.3003 -48.2969 -48.2953 -48.2953 -48.2953
   -48.2855 -48.2855 -48.2855 -48.2851 -48.2821 -48.2820 -48.2820 -48.2772
   -48.1898 -48.1898 -48.1898 -48.1898 -48.1898 -48.1898 -48.1894 -48.1894
    -5.1678  -4.7536  -4.0177  -3.5778  -3.5778  -3.5778  -3.5766  -3.5766
    -3.5766  -3.1664  -3.1663  -3.1663  -3.1565  -3.1565  -3.1564  -3.0938
    -2.4340  -2.4339  -2.4339  -2.4049  -2.4049  -2.4049  -2.1340  -1.6213
    -1.6213  -1.6213  -1.3935  -1.3935  -1.3935  -1.3005  -1.3005  -1.3005
    -0.9940  -0.8031  -0.8031  -0.8031  -0.5978  -0.5977  -0.5977  -0.0700
     0.0211   0.0211   0.0211   0.1410   0.1410   0.1410   0.5866   0.5867
     0.5867   0.7127   0.7129   0.8225   0.8442   0.8443   0.9965   1.1785
     1.2593   1.2594   1.2915   1.3038

          k = 0.0000 0.1650 0.0000 (277535 PWs)   bands (ev):

   -49.3599 -49.3599 -49.3599 -49.3599 -49.3599 -49.3599 -49.3599 -49.3599
   -48.5628 -48.5628 -48.5626 -48.5626 -48.5626 -48.5625 -48.5625 -48.5625
   -48.3434 -48.3434 -48.3434 -48.3434 -48.3434 -48.3433 -48.3433 -48.3433
   -48.3041 -48.3005 -48.3003 -48.3003 -48.2969 -48.2954 -48.2953 -48.2952
   -48.2856 -48.2855 -48.2855 -48.2852 -48.2821 -48.2820 -48.2817 -48.2774
   -48.1898 -48.1898 -48.1898 -48.1898 -48.1898 -48.1898 -48.1894 -48.1894
    -5.1354  -4.7212  -3.9986  -3.9849  -3.7720  -3.7720  -3.5850  -3.3705
    -3.3705  -3.3039  -3.3039  -3.0880  -3.0600  -2.9104  -2.9104  -2.8578
    -2.6546  -2.6041  -2.6041  -2.1715  -2.1715  -2.1010  -2.0013  -1.8534
    -1.6990  -1.6990  -1.4501  -1.4501  -1.2849  -1.2849  -1.2579  -1.2306
    -0.9689  -0.9689  -0.9663  -0.7608  -0.6082  -0.6080  -0.6080  -0.0951
    -0.0951  -0.0545   0.0568   0.0568   0.1262   0.1264   0.1828   0.2259
     0.5607   0.5927   0.6774   0.6774   0.7095   0.8527   1.0371   1.1032
     1.1033   1.2484   1.2683   1.3025

          k = 0.0000 0.3299 0.0000 (277627 PWs)   bands (ev):

   -49.3599 -49.3599 -49.3599 -49.3599 -49.3599 -49.3599 -49.3599 -49.3599
   -48.5628 -48.5628 -48.5626 -48.5626 -48.5626 -48.5626 -48.5625 -48.5625
   -48.3434 -48.3434 -48.3434 -48.3434 -48.3433 -48.3433 -48.3433 -48.3433
   -48.3036 -48.3011 -48.3003 -48.3003 -48.2967 -48.2956 -48.2952 -48.2952
   -48.2857 -48.2854 -48.2854 -48.2853 -48.2821 -48.2821 -48.2808 -48.2779
   -48.1898 -48.1898 -48.1898 -48.1898 -48.1897 -48.1897 -48.1895 -48.1895
    -5.0382  -4.6238  -4.3562  -3.9415  -3.9029  -3.9029  -3.8865  -3.4889
    -3.4889  -3.2012  -2.9988  -2.9988  -2.9587  -2.7617  -2.7617  -2.5631
    -2.5631  -2.5414  -2.2692  -2.1119  -2.0029  -1.9088  -1.9088  -1.8011
    -1.8011  -1.7521  -1.7521  -1.4997  -1.3476  -1.3476  -1.2765  -1.1303
    -1.1264  -1.1264  -0.8917  -0.6806  -0.6806  -0.6338  -0.5725  -0.4053
    -0.4044  -0.4044  -0.2386  -0.2104   0.0860   0.0860   0.1042   0.1600
     0.2511   0.3079   0.6699   0.7300   0.7558   0.7558   0.8158   0.8158
     1.0174   1.1745   1.1788   1.4016

          k = 0.0000 0.4949 0.0000 (277696 PWs)   bands (ev):

   -49.3599 -49.3599 -49.3599 -49.3599 -49.3599 -49.3599 -49.3599 -49.3599
   -48.5627 -48.5627 -48.5627 -48.5626 -48.5626 -48.5626 -48.5625 -48.5625
   -48.3434 -48.3434 -48.3434 -48.3434 -48.3433 -48.3433 -48.3433 -48.3433
   -48.3028 -48.3019 -48.3004 -48.3003 -48.2963 -48.2960 -48.2952 -48.2952
   -48.2857 -48.2855 -48.2854 -48.2854 -48.2822 -48.2821 -48.2797 -48.2787
   -48.1898 -48.1898 -48.1898 -48.1898 -48.1897 -48.1896 -48.1896 -48.1895
    -4.8760  -4.6487  -4.4614  -4.2339  -3.9687  -3.9687  -3.7227  -3.5538
    -3.5538  -3.4938  -2.8153  -2.8153  -2.7908  -2.6288  -2.6288  -2.5589
    -2.2387  -2.2387  -2.1858  -2.1858  -1.9319  -1.8876  -1.8876  -1.8436
    -1.7754  -1.7754  -1.6333  -1.5137  -1.4617  -1.4617  -1.2741  -1.1059
    -1.1059  -0.9828  -0.9828  -0.9177  -0.9082  -0.8713  -0.7811  -0.6203
    -0.4225  -0.3269  -0.3269  -0.3240  -0.1272  -0.0475  -0.0320  -0.0320
     0.3595   0.3846   0.5160   0.6621   0.6621   0.7137   0.8058   0.8080
     0.8080   0.9962   1.3607   1.4606

          k = 0.1429 0.2474 0.0000 (277542 PWs)   bands (ev):

   -49.3599 -49.3599 -49.3599 -49.3599 -49.3599 -49.3599 -49.3599 -49.3599
   -48.5628 -48.5628 -48.5626 -48.5626 -48.5626 -48.5626 -48.5626 -48.5625
   -48.3434 -48.3434 -48.3434 -48.3434 -48.3434 -48.3433 -48.3433 -48.3433
   -48.3038 -48.3007 -48.3007 -48.3001 -48.2967 -48.2954 -48.2954 -48.2951
   -48.2856 -48.2856 -48.2853 -48.2853 -48.2825 -48.2814 -48.2814 -48.2777
   -48.1898 -48.1898 -48.1898 -48.1898 -48.1898 -48.1898 -48.1895 -48.1894
    -5.0706  -4.6563  -4.1614  -4.1614  -3.9193  -3.7469  -3.7469  -3.4844
    -3.4831  -3.0731  -3.0613  -3.0085  -3.0084  -2.9924  -2.7998  -2.7998
    -2.3804  -2.3804  -2.3413  -2.3061  -2.0733  -2.0733  -2.0354  -1.8411
    -1.6633  -1.6632  -1.5125  -1.3942  -1.3689  -1.3689  -1.2855  -1.2238
    -1.2238  -0.9142  -0.8899  -0.8898  -0.6754  -0.5169  -0.5168  -0.4304
    -0.2726  -0.2603  -0.0664  -0.0474  -0.0290  -0.0290   0.1875   0.1924
     0.1924   0.2827   0.6977   0.6978   0.7846   0.8024   0.8517   1.0566
     1.1225   1.1225   1.1616   1.1929

          k = 0.1429 0.4124 0.0000 (277662 PWs)   bands (ev):

   -49.3599 -49.3599 -49.3599 -49.3599 -49.3599 -49.3599 -49.3599 -49.3599
   -48.5628 -48.5627 -48.5626 -48.5626 -48.5626 -48.5626 -48.5625 -48.5625
   -48.3434 -48.3434 -48.3434 -48.3434 -48.3433 -48.3433 -48.3433 -48.3433
   -48.3031 -48.3014 -48.3009 -48.3000 -48.2965 -48.2957 -48.2955 -48.2950
   -48.2857 -48.2856 -48.2854 -48.2851 -48.2829 -48.2812 -48.2803 -48.2784
   -48.1899 -48.1898 -48.1898 -48.1897 -48.1897 -48.1897 -48.1896 -48.1895
    -4.9409  -4.5264  -4.4863  -4.2594  -4.0715  -3.8445  -3.7882  -3.5824
    -3.3308  -3.1819  -3.1189  -3.1036  -2.8578  -2.7259  -2.4604  -2.4142
    -2.3980  -2.2898  -2.2203  -2.1717  -2.0273  -1.9954  -1.9063  -1.8315
    -1.8027  -1.6881  -1.5023  -1.4984  -1.4009  -1.2540  -1.2073  -1.1797
    -1.1069  -1.0938  -1.0746  -0.9393  -0.8146  -0.7321  -0.6457  -0.5599
    -0.5157  -0.4585  -0.3573  -0.2136  -0.2083  -0.1757   0.1111   0.1568
     0.2137   0.3091   0.5004   0.6419   0.7412   0.7617   0.8075   0.8233
     0.8538   1.1119   1.2661   1.3018

          k = 0.1429-0.5774 0.0000 (277716 PWs)   bands (ev):

   -49.3599 -49.3599 -49.3599 -49.3599 -49.3599 -49.3599 -49.3599 -49.3599
   -48.5627 -48.5627 -48.5627 -48.5626 -48.5626 -48.5626 -48.5625 -48.5625
   -48.3434 -48.3434 -48.3434 -48.3434 -48.3433 -48.3433 -48.3433 -48.3433
   -48.3023 -48.3023 -48.3009 -48.3000 -48.2961 -48.2961 -48.2955 -48.2950
   -48.2856 -48.2856 -48.2856 -48.2850 -48.2831 -48.2811 -48.2793 -48.2793
   -48.1899 -48.1898 -48.1898 -48.1897 -48.1896 -48.1896 -48.1896 -48.1896
    -4.7461  -4.7461  -4.3315  -4.3315  -4.2921  -3.8771  -3.6155  -3.5918
    -3.5918  -3.2018  -3.1357  -2.7356  -2.7307  -2.6575  -2.6575  -2.4868
    -2.3026  -2.2774  -2.2068  -2.0807  -2.0670  -1.7218  -1.7217  -1.6565
    -1.6475  -1.6349  -1.5932  -1.5932  -1.5288  -1.4464  -1.3255  -1.1787
    -1.1787  -1.0034  -0.9661  -0.9661  -0.9098  -0.8177  -0.7755  -0.7755
    -0.5060  -0.5060  -0.5008  -0.3277  -0.2095  -0.2095  -0.1175   0.2426
     0.3296   0.3296   0.5203   0.5203   0.6597   0.7042   0.7175   0.9002
     0.9233   0.9234   1.4136   1.4136

          k = 0.2857-0.6598 0.0000 (277774 PWs)   bands (ev):

   -49.3599 -49.3599 -49.3599 -49.3599 -49.3599 -49.3599 -49.3599 -49.3599
   -48.5627 -48.5627 -48.5627 -48.5626 -48.5626 -48.5626 -48.5625 -48.5625
   -48.3434 -48.3434 -48.3434 -48.3434 -48.3433 -48.3433 -48.3433 -48.3433
   -48.3024 -48.3016 -48.3016 -48.2999 -48.2962 -48.2958 -48.2958 -48.2949
   -48.2857 -48.2857 -48.2856 -48.2845 -48.2837 -48.2801 -48.2801 -48.2791
   -48.1899 -48.1898 -48.1897 -48.1897 -48.1897 -48.1897 -48.1896 -48.1896
    -4.7786  -4.5515  -4.5515  -4.3640  -4.1366  -4.1366  -3.6245  -3.3958
    -3.3958  -3.2043  -3.2025  -2.8196  -2.7763  -2.7396  -2.6905  -2.4593
    -2.4592  -2.3586  -2.0332  -2.0119  -1.8679  -1.8679  -1.7491  -1.5952
    -1.5444  -1.5443  -1.5035  -1.5035  -1.4372  -1.4372  -1.2495  -1.2459
    -1.1818  -1.0650  -1.0650  -1.0470  -0.8371  -0.8371  -0.8330  -0.8065
    -0.7362  -0.6056  -0.4168  -0.4167  -0.3836  -0.0703  -0.0052  -0.0052
     0.1985   0.4581   0.4581   0.5115   0.6417   0.7492   0.8418   0.8418
     1.0594   1.0594   1.1057   1.3447

          k =-0.1429 0.0825 0.0000 (277535 PWs)   bands (ev):

   -49.3599 -49.3599 -49.3599 -49.3599 -49.3599 -49.3599 -49.3599 -49.3599
   -48.5628 -48.5628 -48.5626 -48.5626 -48.5626 -48.5626 -48.5625 -48.5625
   -48.3434 -48.3434 -48.3434 -48.3434 -48.3434 -48.3433 -48.3433 -48.3433
   -48.3041 -48.3005 -48.3003 -48.3003 -48.2969 -48.2954 -48.2952 -48.2952
   -48.2856 -48.2855 -48.2855 -48.2852 -48.2821 -48.2821 -48.2817 -48.2774
   -48.1898 -48.1898 -48.1898 -48.1898 -48.1898 -48.1898 -48.1894 -48.1894
    -5.1354  -4.7212  -3.9986  -3.9849  -3.7720  -3.7720  -3.5850  -3.3705
    -3.3705  -3.3039  -3.3039  -3.0880  -3.0600  -2.9104  -2.9104  -2.8578
    -2.6545  -2.6041  -2.6041  -2.1715  -2.1715  -2.1010  -2.0013  -1.8534
    -1.6990  -1.6989  -1.4501  -1.4501  -1.2849  -1.2849  -1.2580  -1.2306
    -0.9689  -0.9689  -0.9663  -0.7608  -0.6081  -0.6081  -0.6080  -0.0951
    -0.0951  -0.0545   0.0567   0.0568   0.1263   0.1264   0.1828   0.2259
     0.5608   0.5927   0.6773   0.6774   0.7095   0.8527   1.0371   1.1032
     1.1032   1.2485   1.2683   1.3025

          k =-0.2857 0.1650 0.0000 (277627 PWs)   bands (ev):

   -49.3599 -49.3599 -49.3599 -49.3599 -49.3599 -49.3599 -49.3599 -49.3599
   -48.5628 -48.5628 -48.5626 -48.5626 -48.5626 -48.5626 -48.5625 -48.5625
   -48.3434 -48.3434 -48.3434 -48.3434 -48.3434 -48.3433 -48.3433 -48.3433
   -48.3036 -48.3011 -48.3003 -48.3003 -48.2967 -48.2956 -48.2952 -48.2952
   -48.2857 -48.2854 -48.2854 -48.2853 -48.2821 -48.2821 -48.2808 -48.2779
   -48.1898 -48.1898 -48.1898 -48.1898 -48.1897 -48.1897 -48.1895 -48.1895
    -5.0382  -4.6238  -4.3562  -3.9415  -3.9029  -3.9029  -3.8865  -3.4889
    -3.4889  -3.2012  -2.9988  -2.9988  -2.9587  -2.7617  -2.7617  -2.5631
    -2.5631  -2.5414  -2.2692  -2.1119  -2.0029  -1.9088  -1.9088  -1.8011
    -1.8011  -1.7521  -1.7521  -1.4997  -1.3476  -1.3476  -1.2764  -1.1303
    -1.1264  -1.1264  -0.8917  -0.6807  -0.6806  -0.6338  -0.5725  -0.4052
    -0.4044  -0.4044  -0.2386  -0.2104   0.0860   0.0860   0.1042   0.1600
     0.2511   0.3079   0.6700   0.7300   0.7557   0.7558   0.8158   0.8158
     1.0176   1.1745   1.1790   1.4043

          k =-0.4286 0.2474 0.0000 (277696 PWs)   bands (ev):

   -49.3599 -49.3599 -49.3599 -49.3599 -49.3599 -49.3599 -49.3599 -49.3599
   -48.5627 -48.5627 -48.5627 -48.5626 -48.5626 -48.5626 -48.5625 -48.5625
   -48.3434 -48.3434 -48.3434 -48.3434 -48.3434 -48.3433 -48.3433 -48.3433
   -48.3028 -48.3019 -48.3003 -48.3003 -48.2963 -48.2960 -48.2952 -48.2952
   -48.2857 -48.2855 -48.2854 -48.2854 -48.2821 -48.2821 -48.2797 -48.2787
   -48.1898 -48.1898 -48.1898 -48.1898 -48.1897 -48.1896 -48.1896 -48.1895
    -4.8760  -4.6487  -4.4614  -4.2339  -3.9687  -3.9687  -3.7227  -3.5538
    -3.5538  -3.4938  -2.8153  -2.8153  -2.7909  -2.6288  -2.6288  -2.5589
    -2.2387  -2.2387  -2.1858  -2.1858  -1.9319  -1.8876  -1.8876  -1.8436
    -1.7754  -1.7754  -1.6334  -1.5137  -1.4617  -1.4617  -1.2741  -1.1059
    -1.1058  -0.9829  -0.9829  -0.9177  -0.9083  -0.8713  -0.7811  -0.6203
    -0.4225  -0.3269  -0.3269  -0.3239  -0.1273  -0.0474  -0.0321  -0.0321
     0.3596   0.3846   0.5160   0.6621   0.6621   0.7138   0.8058   0.8079
     0.8079   0.9962   1.3607   1.4606

          k = 0.2857 0.0000 0.0000 (277542 PWs)   bands (ev):

   -49.3599 -49.3599 -49.3599 -49.3599 -49.3599 -49.3599 -49.3599 -49.3599
   -48.5628 -48.5628 -48.5626 -48.5626 -48.5626 -48.5625 -48.5625 -48.5625
   -48.3434 -48.3434 -48.3434 -48.3434 -48.3434 -48.3433 -48.3433 -48.3433
   -48.3038 -48.3007 -48.3007 -48.3001 -48.2967 -48.2954 -48.2954 -48.2951
   -48.2856 -48.2856 -48.2853 -48.2853 -48.2825 -48.2814 -48.2813 -48.2777
   -48.1898 -48.1898 -48.1898 -48.1898 -48.1898 -48.1898 -48.1895 -48.1894
    -5.0706  -4.6563  -4.1614  -4.1614  -3.9193  -3.7469  -3.7469  -3.4844
    -3.4831  -3.0731  -3.0613  -3.0085  -3.0084  -2.9924  -2.7998  -2.7998
    -2.3804  -2.3804  -2.3413  -2.3061  -2.0733  -2.0733  -2.0354  -1.8411
    -1.6633  -1.6633  -1.5124  -1.3942  -1.3689  -1.3689  -1.2855  -1.2238
    -1.2238  -0.9142  -0.8899  -0.8899  -0.6755  -0.5168  -0.5168  -0.4304
    -0.2726  -0.2603  -0.0664  -0.0474  -0.0290  -0.0290   0.1875   0.1924
     0.1924   0.2827   0.6978   0.6978   0.7846   0.8024   0.8517   1.0566
     1.1226   1.1226   1.1616   1.1929

          k =-0.2857 0.3299 0.0000 (277662 PWs)   bands (ev):

   -49.3599 -49.3599 -49.3599 -49.3599 -49.3599 -49.3599 -49.3599 -49.3599
   -48.5628 -48.5627 -48.5626 -48.5626 -48.5626 -48.5626 -48.5625 -48.5625
   -48.3434 -48.3434 -48.3434 -48.3434 -48.3434 -48.3433 -48.3433 -48.3433
   -48.3031 -48.3014 -48.3009 -48.3000 -48.2965 -48.2957 -48.2955 -48.2950
   -48.2857 -48.2856 -48.2854 -48.2851 -48.2829 -48.2812 -48.2803 -48.2784
   -48.1899 -48.1898 -48.1898 -48.1897 -48.1897 -48.1897 -48.1895 -48.1895
    -4.9409  -4.5264  -4.4863  -4.2594  -4.0715  -3.8445  -3.7882  -3.5824
    -3.3308  -3.1819  -3.1189  -3.1036  -2.8578  -2.7259  -2.4604  -2.4142
    -2.3980  -2.2898  -2.2203  -2.1717  -2.0273  -1.9954  -1.9063  -1.8315
    -1.8027  -1.6881  -1.5024  -1.4984  -1.4008  -1.2540  -1.2073  -1.1797
    -1.1069  -1.0938  -1.0746  -0.9393  -0.8146  -0.7321  -0.6457  -0.5600
    -0.5157  -0.4585  -0.3572  -0.2136  -0.2083  -0.1757   0.1111   0.1568
     0.2137   0.3092   0.5004   0.6419   0.7411   0.7618   0.8075   0.8233
     0.8537   1.1118   1.2664   1.3018

          k = 0.4286 0.0825 0.0000 (277662 PWs)   bands (ev):

   -49.3599 -49.3599 -49.3599 -49.3599 -49.3599 -49.3599 -49.3599 -49.3599
   -48.5628 -48.5627 -48.5626 -48.5626 -48.5626 -48.5626 -48.5625 -48.5625
   -48.3434 -48.3434 -48.3434 -48.3434 -48.3434 -48.3433 -48.3433 -48.3433
   -48.3031 -48.3014 -48.3009 -48.3000 -48.2965 -48.2957 -48.2955 -48.2950
   -48.2857 -48.2856 -48.2854 -48.2851 -48.2829 -48.2812 -48.2803 -48.2784
   -48.1899 -48.1898 -48.1898 -48.1897 -48.1897 -48.1897 -48.1895 -48.1895
    -4.9409  -4.5264  -4.4863  -4.2594  -4.0715  -3.8445  -3.7882  -3.5824
    -3.3308  -3.1819  -3.1189  -3.1036  -2.8578  -2.7259  -2.4604  -2.4142
    -2.3980  -2.2898  -2.2203  -2.1717  -2.0273  -1.9954  -1.9063  -1.8315
    -1.8027  -1.6881  -1.5024  -1.4984  -1.4009  -1.2540  -1.2073  -1.1796
    -1.1069  -1.0938  -1.0746  -0.9393  -0.8147  -0.7321  -0.6457  -0.5599
    -0.5157  -0.4585  -0.3572  -0.2136  -0.2083  -0.1757   0.1111   0.1568
     0.2137   0.3092   0.5004   0.6419   0.7412   0.7618   0.8075   0.8233
     0.8537   1.1119   1.2661   1.3018

          k = 0.5714-0.1650 0.0000 (277716 PWs)   bands (ev):

   -49.3599 -49.3599 -49.3599 -49.3599 -49.3599 -49.3599 -49.3599 -49.3599
   -48.5627 -48.5627 -48.5627 -48.5627 -48.5626 -48.5626 -48.5625 -48.5625
   -48.3434 -48.3434 -48.3434 -48.3434 -48.3434 -48.3433 -48.3433 -48.3433
   -48.3023 -48.3023 -48.3009 -48.3000 -48.2961 -48.2961 -48.2955 -48.2950
   -48.2856 -48.2856 -48.2856 -48.2850 -48.2831 -48.2811 -48.2793 -48.2793
   -48.1899 -48.1898 -48.1898 -48.1897 -48.1896 -48.1896 -48.1896 -48.1896
    -4.7461  -4.7461  -4.3315  -4.3315  -4.2921  -3.8771  -3.6155  -3.5918
    -3.5918  -3.2018  -3.1357  -2.7356  -2.7307  -2.6575  -2.6575  -2.4868
    -2.3026  -2.2774  -2.2068  -2.0807  -2.0670  -1.7218  -1.7218  -1.6564
    -1.6474  -1.6349  -1.5932  -1.5932  -1.5289  -1.4464  -1.3255  -1.1787
    -1.1787  -1.0033  -0.9661  -0.9661  -0.9098  -0.8177  -0.7755  -0.7755
    -0.5060  -0.5060  -0.5008  -0.3277  -0.2095  -0.2094  -0.1175   0.2425
     0.3296   0.3296   0.5203   0.5203   0.6597   0.7042   0.7175   0.9001
     0.9234   0.9234   1.4136   1.4137

          k =-0.4286-0.5774 0.0000 (277774 PWs)   bands (ev):

   -49.3599 -49.3599 -49.3599 -49.3599 -49.3599 -49.3599 -49.3599 -49.3599
   -48.5627 -48.5627 -48.5627 -48.5626 -48.5626 -48.5626 -48.5625 -48.5625
   -48.3434 -48.3434 -48.3434 -48.3434 -48.3434 -48.3433 -48.3433 -48.3433
   -48.3024 -48.3016 -48.3016 -48.2999 -48.2962 -48.2958 -48.2958 -48.2949
   -48.2857 -48.2857 -48.2856 -48.2845 -48.2837 -48.2801 -48.2801 -48.2791
   -48.1899 -48.1898 -48.1897 -48.1897 -48.1897 -48.1897 -48.1896 -48.1896
    -4.7786  -4.5515  -4.5515  -4.3640  -4.1366  -4.1366  -3.6245  -3.3958
    -3.3958  -3.2043  -3.2025  -2.8197  -2.7763  -2.7396  -2.6905  -2.4593
    -2.4592  -2.3586  -2.0332  -2.0119  -1.8679  -1.8679  -1.7491  -1.5952
    -1.5444  -1.5443  -1.5035  -1.5035  -1.4372  -1.4372  -1.2495  -1.2459
    -1.1817  -1.0650  -1.0650  -1.0470  -0.8371  -0.8371  -0.8330  -0.8065
    -0.7362  -0.6056  -0.4168  -0.4168  -0.3836  -0.0703  -0.0052  -0.0052
     0.1984   0.4581   0.4581   0.5115   0.6417   0.7491   0.8418   0.8418
     1.0593   1.0594   1.1057   1.3447

     the Fermi energy is    -1.7573 ev

!    total energy              =    -721.71184603 Ry
     total all-electron energy =      -721.712236 Ry
     estimated scf accuracy    <       0.00000007 Ry
     smearing contrib. (-TS)   =      -0.00130965 Ry
     internal energy E=F+TS    =    -721.71053638 Ry

     The total energy is F=E-TS. E is the sum of the following terms:
     one-electron contribution =   -6440.96030087 Ry
     hartree contribution      =    3147.35213483 Ry
     xc contribution           =    -171.90981148 Ry
     ewald contribution        =    2739.57480387 Ry
     one-center paw contrib.   =       4.23263726 Ry

     convergence has been achieved in   3 iterations

     Forces acting on atoms (cartesian axes, Ry/au):

     atom    1 type  1   force =     0.00000000   -0.00000057    0.00016251
     atom    2 type  1   force =    -0.00000103   -0.00000223    0.00051151
     atom    3 type  1   force =     0.00000000    0.00000271   -0.00028172
     atom    4 type  1   force =     0.00000000    0.00000079    0.00005644
     atom    5 type  1   force =    -0.00000045    0.00000003    0.00012313
     atom    6 type  1   force =     0.00000000   -0.00000228    0.00083596
     atom    7 type  1   force =     0.00000000    0.00000341   -0.00083519
     atom    8 type  1   force =    -0.00000002    0.00000029   -0.00012412
     atom    9 type  1   force =     0.00000000   -0.00000201   -0.00005760
     atom   10 type  1   force =     0.00000000   -0.00000143    0.00028233
     atom   11 type  1   force =     0.00000012    0.00000061   -0.00051312
     atom   12 type  1   force =     0.00000000   -0.00000191   -0.00016527
     atom   13 type  1   force =    -0.00000015    0.00000052    0.00016320
     atom   14 type  1   force =     0.00000000   -0.00000050    0.00051613
     atom   15 type  1   force =     0.00000072    0.00000203   -0.00028308
     atom   16 type  1   force =     0.00000078    0.00000107    0.00005454
     atom   17 type  1   force =     0.00000000   -0.00000032    0.00012219
     atom   18 type  1   force =     0.00000039   -0.00000252    0.00083609
     atom   19 type  1   force =     0.00000053    0.00000370   -0.00083485
     atom   20 type  1   force =     0.00000000   -0.00000052   -0.00012453
     atom   21 type  1   force =     0.00000001   -0.00000252   -0.00004780
     atom   22 type  1   force =    -0.00000043   -0.00000128    0.00028178
     atom   23 type  1   force =     0.00000000    0.00000181   -0.00052099
     atom   24 type  1   force =     0.00000100   -0.00000030   -0.00016434
     atom   25 type  1   force =     0.00000000    0.00000113    0.00016249
     atom   26 type  1   force =     0.00000103   -0.00000223    0.00051151
     atom   27 type  1   force =     0.00000000    0.00000135   -0.00028257
     atom   28 type  1   force =     0.00000000    0.00000114    0.00005335
     atom   29 type  1   force =     0.00000045    0.00000003    0.00012313
     atom   30 type  1   force =     0.00000000   -0.00000270    0.00083613
     atom   31 type  1   force =     0.00000000    0.00000506   -0.00083500
     atom   32 type  1   force =     0.00000002    0.00000029   -0.00012412
     atom   33 type  1   force =     0.00000000   -0.00000068   -0.00005698
     atom   34 type  1   force =     0.00000000   -0.00000334    0.00028215
     atom   35 type  1   force =    -0.00000012    0.00000061   -0.00051312
     atom   36 type  1   force =     0.00000000    0.00000094   -0.00016524
     atom   37 type  1   force =     0.00000015    0.00000052    0.00016320
     atom   38 type  1   force =     0.00000000   -0.00000217    0.00052073
     atom   39 type  1   force =    -0.00000072    0.00000203   -0.00028308
     atom   40 type  1   force =    -0.00000078    0.00000107    0.00005454
     atom   41 type  1   force =     0.00000000    0.00000015    0.00012329
     atom   42 type  1   force =    -0.00000039   -0.00000252    0.00083609
     atom   43 type  1   force =    -0.00000053    0.00000370   -0.00083485
     atom   44 type  1   force =     0.00000000    0.00000043   -0.00012353
     atom   45 type  1   force =    -0.00000001   -0.00000252   -0.00004780
     atom   46 type  1   force =     0.00000043   -0.00000128    0.00028178
     atom   47 type  1   force =     0.00000000    0.00000069   -0.00051095
     atom   48 type  1   force =    -0.00000100   -0.00000030   -0.00016434

     Total force =     0.002950     Total SCF correction =     0.000153
     Energy error            =      9.9E-06 Ry
     Gradient error          =      8.4E-04 Ry/Bohr

     number of scf cycles    =   2
     number of bfgs steps    =   1

     energy             old  =    -721.7118361791 Ry
     energy             new  =    -721.7118460311 Ry

     CASE: energy            _new < energy            _old


     WARNING: bfgs curvature condition failed, Theta= 0.875
     new trust radius        =       0.0010104866 bohr
     new conv_thr            =            1.0E-12 Ry


ATOMIC_POSITIONS (angstrom)
Li              -0.0000000100        0.0000115206       20.2648270475
Li               2.4290143519        1.4025938074       16.4970875020
Li               4.8580444100        2.8048587331       18.2919611052
Li               0.0000000100        0.0001361723       17.1940626752
Li               2.4290208287        1.4024290662       19.3642192323
Li               4.8580445000        2.8050862118       15.2878445690
Li               0.0000000000       -0.0002904722       26.3612147888
Li               2.4290221422        1.4023637812       22.2848313450
Li               4.8580444100        2.8046519392       24.4549861743
Li              -0.0000000100       -0.0000691322       23.3570973033
Li               2.4290292797        1.4022069036       25.1519674044
Li               4.8580444200        2.8047825884       21.3842311683
Li               2.4290241826        4.2071972393       20.2648198121
Li               4.8580443900        5.6097889465       16.4970874211
Li               7.2870694586        7.0120483734       18.2919642222
Li               2.4290287209        4.2073222946       17.1940593136
Li               4.8580444100        5.6096213004       19.3642215001
Li               7.2870974556        7.0122559210       15.2878413677
Li               2.4289968676        4.2069124822       26.3612136135
Li               4.8580444000        5.6095502780       22.2848329879
Li               7.2870594519        7.0118456383       24.4549965279
Li               2.4290211891        4.2071225801       23.3570902230
Li               4.8580444000        5.6093748365       25.1519635977
Li               7.2870658960        7.0119741896       21.3842334677
Li               4.8580444000        0.0000095785       20.2648181622
Li               7.2870744681        1.4025937874       16.4970876520
Li               9.7160888200        2.8048670520       18.2919623753
Li               4.8580443900        0.0001464497       17.1940587953
Li               7.2870679913        1.4024290662       19.3642193123
Li               9.7160887400        2.8051212171       15.2878417839
Li               4.8580444000       -0.0003189422       26.3612146797
Li               7.2870666778        1.4023637812       22.2848313950
Li               9.7160888300        2.8046495550       24.4549909169
Li               4.8580444000       -0.0000668420       23.3570883931
Li               7.2870595403        1.4022068936       25.1519674444
Li               9.7160888200        2.8047884929       21.3842351754
Li               7.2870646274        4.2071972493       20.2648198121
Li               9.7160888400        5.6097863269       16.4971318031
Li              12.1451081914        7.0120483834       18.2919642322
Li               7.2870600891        4.2073223146       17.1940593236
Li               9.7160888300        5.6096214732       19.3642321551
Li              12.1450801944        7.0122560310       15.2878413777
Li               7.2870919424        4.2069124922       26.3612136035
Li               9.7160888300        5.6095508414       22.2848278482
Li              12.1451181981        7.0118456383       24.4549965279
Li               7.2870676309        4.2071225801       23.3570902130
Li               9.7160888300        5.6093920813       25.1519352608
Li              12.1451117640        7.0119741996       21.3842334677


     Message from routine punch:
     Nothing written, as per user request (disk_io='none')
     NEW-OLD atomic charge density approx. for the potential

     negative rho (up, down):  4.248E-04 0.000E+00

     total cpu time spent up to now is      208.3 secs

     Self-consistent Calculation

     iteration #  1     ecut=    80.00 Ry     beta= 0.20
     Davidson diagonalization with overlap
     ethr =  1.00E-06,  avg # of iterations =  2.0

     Threshold (ethr) on eigenvalues was too large:
     Diagonalizing with lowered threshold

     Davidson diagonalization with overlap
     ethr =  4.30E-11,  avg # of iterations =  7.1

     negative rho (up, down):  4.255E-04 0.000E+00

     total cpu time spent up to now is      227.9 secs

     total energy              =    -721.71185648 Ry
     estimated scf accuracy    <       0.00000007 Ry

     iteration #  2     ecut=    80.00 Ry     beta= 0.20
     Davidson diagonalization with overlap
     ethr =  4.94E-11,  avg # of iterations =  1.0

     negative rho (up, down):  4.299E-04 0.000E+00

     total cpu time spent up to now is      233.0 secs

     total energy              =    -721.71185655 Ry
     estimated scf accuracy    <       0.00000004 Ry

     iteration #  3     ecut=    80.00 Ry     beta= 0.20
     Davidson diagonalization with overlap
     ethr =  2.94E-11,  avg # of iterations =  2.0

     negative rho (up, down):  4.340E-04 0.000E+00

     total cpu time spent up to now is      238.7 secs

     total energy              =    -721.71185658 Ry
     estimated scf accuracy    <       0.00000001 Ry

     iteration #  4     ecut=    80.00 Ry     beta= 0.20
     Davidson diagonalization with overlap
     ethr =  7.63E-12,  avg # of iterations =  2.8

     negative rho (up, down):  4.358E-04 0.000E+00

     total cpu time spent up to now is      244.7 secs

     total energy              =    -721.71185658 Ry
     estimated scf accuracy    <          5.0E-09 Ry

     iteration #  5     ecut=    80.00 Ry     beta= 0.20
     Davidson diagonalization with overlap
     ethr =  3.50E-12,  avg # of iterations =  2.8

     negative rho (up, down):  4.300E-04 0.000E+00

     total cpu time spent up to now is      250.9 secs

     total energy              =    -721.71185654 Ry
     estimated scf accuracy    <          2.2E-09 Ry

     iteration #  6     ecut=    80.00 Ry     beta= 0.20
     Davidson diagonalization with overlap
     ethr =  1.53E-12,  avg # of iterations =  3.5

     negative rho (up, down):  4.241E-04 0.000E+00

     total cpu time spent up to now is      257.3 secs

     total energy              =    -721.71185652 Ry
     estimated scf accuracy    <          8.4E-10 Ry

     iteration #  7     ecut=    80.00 Ry     beta= 0.20
     Davidson diagonalization with overlap
     ethr =  5.81E-13,  avg # of iterations =  4.5

     negative rho (up, down):  4.236E-04 0.000E+00

     total cpu time spent up to now is      265.2 secs

     total energy              =    -721.71185649 Ry
     estimated scf accuracy    <          1.7E-10 Ry

     iteration #  8     ecut=    80.00 Ry     beta= 0.20
     Davidson diagonalization with overlap
     ethr =  1.15E-13,  avg # of iterations =  4.7

     negative rho (up, down):  4.222E-04 0.000E+00

     total cpu time spent up to now is      272.9 secs

     total energy              =    -721.71185647 Ry
     estimated scf accuracy    <          9.1E-11 Ry

     iteration #  9     ecut=    80.00 Ry     beta= 0.20
     Davidson diagonalization with overlap
     ethr =  1.00E-13,  avg # of iterations =  2.0

     negative rho (up, down):  4.219E-04 0.000E+00

     total cpu time spent up to now is      278.8 secs

     total energy              =    -721.71185649 Ry
     estimated scf accuracy    <          3.6E-11 Ry

     iteration # 10     ecut=    80.00 Ry     beta= 0.20
     Davidson diagonalization with overlap
     ethr =  1.00E-13,  avg # of iterations =  2.0

     negative rho (up, down):  4.222E-04 0.000E+00

     total cpu time spent up to now is      284.8 secs

     total energy              =    -721.71185646 Ry
     estimated scf accuracy    <          1.5E-11 Ry

     iteration # 11     ecut=    80.00 Ry     beta= 0.20
     Davidson diagonalization with overlap
     ethr =  1.00E-13,  avg # of iterations =  2.0

     negative rho (up, down):  4.224E-04 0.000E+00

     total cpu time spent up to now is      290.4 secs

     total energy              =    -721.71185645 Ry
     estimated scf accuracy    <          3.8E-12 Ry

     iteration # 12     ecut=    80.00 Ry     beta= 0.20
     Davidson diagonalization with overlap
     ethr =  1.00E-13,  avg # of iterations =  2.0

     negative rho (up, down):  4.227E-04 0.000E+00

     total cpu time spent up to now is      296.1 secs

     total energy              =    -721.71185646 Ry
     estimated scf accuracy    <          1.7E-12 Ry

     iteration # 13     ecut=    80.00 Ry     beta= 0.20
     Davidson diagonalization with overlap
     ethr =  1.00E-13,  avg # of iterations =  2.0

     negative rho (up, down):  4.227E-04 0.000E+00

     total cpu time spent up to now is      301.7 secs

     End of self-consistent calculation

          k = 0.0000 0.0000 0.0000 (277431 PWs)   bands (ev):

   -49.3595 -49.3595 -49.3595 -49.3595 -49.3595 -49.3595 -49.3595 -49.3595
   -48.5605 -48.5605 -48.5602 -48.5602 -48.5602 -48.5602 -48.5602 -48.5602
   -48.3420 -48.3420 -48.3420 -48.3420 -48.3420 -48.3420 -48.3420 -48.3419
   -48.3033 -48.2993 -48.2993 -48.2993 -48.2960 -48.2943 -48.2943 -48.2943
   -48.2844 -48.2844 -48.2844 -48.2840 -48.2809 -48.2809 -48.2809 -48.2761
   -48.1893 -48.1893 -48.1893 -48.1893 -48.1893 -48.1893 -48.1889 -48.1889
    -5.1673  -4.7532  -4.0171  -3.5774  -3.5774  -3.5774  -3.5761  -3.5761
    -3.5761  -3.1659  -3.1659  -3.1659  -3.1560  -3.1560  -3.1560  -3.0932
    -2.4334  -2.4334  -2.4334  -2.4044  -2.4044  -2.4044  -2.1333  -1.6207
    -1.6207  -1.6206  -1.3929  -1.3928  -1.3928  -1.3001  -1.3001  -1.3001
    -0.9933  -0.8028  -0.8028  -0.8028  -0.5971  -0.5971  -0.5971  -0.0692
     0.0217   0.0218   0.0218   0.1414   0.1414   0.1414   0.5870   0.5871
     0.5871   0.7130   0.7130   0.8234   0.8446   0.8446   0.9966   1.1789
     1.2599   1.2601   1.2920   1.3039

          k = 0.0000 0.1650 0.0000 (277535 PWs)   bands (ev):

   -49.3595 -49.3595 -49.3595 -49.3595 -49.3595 -49.3595 -49.3595 -49.3595
   -48.5605 -48.5605 -48.5603 -48.5603 -48.5602 -48.5602 -48.5602 -48.5602
   -48.3420 -48.3420 -48.3420 -48.3420 -48.3420 -48.3420 -48.3420 -48.3419
   -48.3031 -48.2995 -48.2993 -48.2993 -48.2959 -48.2944 -48.2943 -48.2943
   -48.2845 -48.2843 -48.2843 -48.2841 -48.2809 -48.2809 -48.2805 -48.2763
   -48.1893 -48.1893 -48.1893 -48.1893 -48.1893 -48.1893 -48.1889 -48.1889
    -5.1349  -4.7207  -3.9982  -3.9843  -3.7715  -3.7715  -3.5845  -3.3701
    -3.3701  -3.3034  -3.3034  -3.0875  -3.0594  -2.9100  -2.9100  -2.8572
    -2.6541  -2.6036  -2.6036  -2.1710  -2.1710  -2.1003  -2.0007  -1.8528
    -1.6983  -1.6983  -1.4497  -1.4497  -1.2842  -1.2842  -1.2576  -1.2299
    -0.9686  -0.9686  -0.9656  -0.7605  -0.6075  -0.6073  -0.6073  -0.0947
    -0.0947  -0.0537   0.0574   0.0574   0.1268   0.1269   0.1832   0.2263
     0.5612   0.5930   0.6779   0.6779   0.7097   0.8536   1.0372   1.1039
     1.1039   1.2491   1.2687   1.3029

          k = 0.0000 0.3299 0.0000 (277627 PWs)   bands (ev):

   -49.3595 -49.3595 -49.3595 -49.3595 -49.3595 -49.3595 -49.3595 -49.3595
   -48.5605 -48.5605 -48.5603 -48.5603 -48.5602 -48.5602 -48.5602 -48.5602
   -48.3420 -48.3420 -48.3420 -48.3420 -48.3420 -48.3420 -48.3420 -48.3419
   -48.3026 -48.3002 -48.2994 -48.2994 -48.2957 -48.2947 -48.2943 -48.2943
   -48.2846 -48.2843 -48.2843 -48.2842 -48.2810 -48.2810 -48.2796 -48.2768
   -48.1893 -48.1893 -48.1893 -48.1893 -48.1892 -48.1892 -48.1890 -48.1890
    -5.0377  -4.6233  -4.3557  -3.9410  -3.9025  -3.9025  -3.8859  -3.4885
    -3.4885  -3.2006  -2.9983  -2.9983  -2.9581  -2.7612  -2.7612  -2.5627
    -2.5627  -2.5410  -2.2686  -2.1115  -2.0022  -1.9083  -1.9083  -1.8007
[...]
    -4.7936  -4.5670  -4.5670  -4.3740  -4.1472  -4.1472  -3.6255  -3.3974
    -3.3974  -3.2239  -3.2214  -2.8366  -2.7894  -2.7579  -2.6805  -2.4493
    -2.4492  -2.3730  -2.0376  -2.0164  -1.8906  -1.8906  -1.7336  -1.5996
    -1.5409  -1.5409  -1.5162  -1.5162  -1.4540  -1.4540  -1.2744  -1.2706
    -1.1721  -1.0832  -1.0831  -1.0377  -0.8497  -0.8348  -0.8347  -0.8215
    -0.7223  -0.5962  -0.4161  -0.4161  -0.3673  -0.0696   0.0008   0.0009
     0.1968   0.4727   0.4727   0.5267   0.6530   0.7599   0.8563   0.8564
     1.0726   1.0727   1.1185   1.3550

          k =-0.1429 0.0825 0.0000 (277535 PWs)   bands (ev):

   -49.3446 -49.3446 -49.3446 -49.3446 -49.3445 -49.3445 -49.3445 -49.3445
   -48.5518 -48.5518 -48.5516 -48.5515 -48.5515 -48.5515 -48.5515 -48.5515
   -48.3307 -48.3307 -48.3307 -48.3307 -48.3307 -48.3307 -48.3306 -48.3306
   -48.2970 -48.2940 -48.2938 -48.2938 -48.2897 -48.2884 -48.2883 -48.2883
   -48.2752 -48.2750 -48.2748 -48.2748 -48.2713 -48.2713 -48.2709 -48.2668
   -48.1756 -48.1755 -48.1755 -48.1755 -48.1755 -48.1755 -48.1752 -48.1751
    -5.1495  -4.7303  -4.0156  -3.9851  -3.7895  -3.7895  -3.5968  -3.3842
    -3.3842  -3.3212  -3.3212  -3.1071  -3.0500  -2.9233  -2.9233  -2.8614
    -2.6671  -2.6074  -2.6074  -2.1746  -2.1746  -2.0854  -1.9985  -1.8500
    -1.6896  -1.6895  -1.4774  -1.4774  -1.2869  -1.2759  -1.2758  -1.2200
    -0.9903  -0.9902  -0.9410  -0.7841  -0.5922  -0.5917  -0.5916  -0.1039
    -0.1039  -0.0222   0.0695   0.0696   0.0990   0.1404   0.1707   0.1972
     0.5735   0.5756   0.6863   0.6909   0.6909   0.8671   1.0390   1.1174
     1.1174   1.2469   1.2667   1.3042

          k =-0.2857 0.1650 0.0000 (277627 PWs)   bands (ev):

   -49.3446 -49.3446 -49.3446 -49.3446 -49.3445 -49.3445 -49.3445 -49.3445
   -48.5518 -48.5517 -48.5516 -48.5516 -48.5515 -48.5515 -48.5515 -48.5515
   -48.3307 -48.3307 -48.3307 -48.3307 -48.3307 -48.3307 -48.3307 -48.3306
   -48.2966 -48.2945 -48.2938 -48.2938 -48.2895 -48.2886 -48.2883 -48.2883
   -48.2753 -48.2752 -48.2748 -48.2748 -48.2713 -48.2713 -48.2700 -48.2673
   -48.1756 -48.1755 -48.1755 -48.1755 -48.1755 -48.1754 -48.1752 -48.1752
    -5.0525  -4.6332  -4.3722  -3.9525  -3.9202  -3.9202  -3.8870  -3.5010
    -3.5010  -3.2031  -3.0183  -3.0183  -2.9488  -2.7657  -2.7657  -2.5760
    -2.5759  -2.5616  -2.2607  -2.1255  -1.9873  -1.9076  -1.9076  -1.8245
    -1.8245  -1.7491  -1.7491  -1.4949  -1.3659  -1.3659  -1.2716  -1.1593
    -1.1157  -1.1157  -0.8683  -0.6767  -0.6766  -0.6572  -0.5974  -0.4011
    -0.4011  -0.3887  -0.2674  -0.2166   0.0995   0.0995   0.1214   0.1747
     0.2280   0.2960   0.6871   0.7297   0.7710   0.7711   0.8274   0.8274
     1.0270   1.1632   1.1801   1.2719

          k =-0.4286 0.2474 0.0000 (277696 PWs)   bands (ev):

   -49.3446 -49.3446 -49.3446 -49.3446 -49.3445 -49.3445 -49.3445 -49.3445
   -48.5517 -48.5517 -48.5516 -48.5516 -48.5515 -48.5515 -48.5515 -48.5515
   -48.3307 -48.3307 -48.3307 -48.3307 -48.3307 -48.3307 -48.3307 -48.3306
   -48.2959 -48.2952 -48.2939 -48.2939 -48.2893 -48.2889 -48.2883 -48.2883
   -48.2753 -48.2753 -48.2747 -48.2747 -48.2714 -48.2714 -48.2690 -48.2680
   -48.1756 -48.1755 -48.1755 -48.1755 -48.1754 -48.1753 -48.1753 -48.1753
    -4.8907  -4.6640  -4.4712  -4.2442  -3.9858  -3.9858  -3.7235  -3.5657
    -3.5657  -3.4951  -2.8184  -2.8184  -2.7809  -2.6494  -2.6494  -2.5489
    -2.2585  -2.2585  -2.2030  -2.2030  -1.9538  -1.8819  -1.8819  -1.8280
    -1.7881  -1.7881  -1.6182  -1.5296  -1.4658  -1.4658  -1.2978  -1.1007
    -1.1007  -0.9812  -0.9811  -0.9466  -0.9063  -0.8831  -0.7658  -0.6491
    -0.4458  -0.3151  -0.3150  -0.3085  -0.1504  -0.0393  -0.0189  -0.0189
     0.3769   0.4008   0.5042   0.6746   0.6746   0.7308   0.7942   0.8213
     0.8214   1.0105   1.3643   1.4651

          k = 0.2857 0.0000 0.0000 (277542 PWs)   bands (ev):

   -49.3446 -49.3446 -49.3446 -49.3446 -49.3445 -49.3445 -49.3445 -49.3445
   -48.5518 -48.5518 -48.5516 -48.5516 -48.5515 -48.5515 -48.5515 -48.5515
   -48.3307 -48.3307 -48.3307 -48.3307 -48.3307 -48.3307 -48.3307 -48.3306
   -48.2967 -48.2942 -48.2941 -48.2937 -48.2896 -48.2885 -48.2885 -48.2882
   -48.2752 -48.2751 -48.2750 -48.2746 -48.2717 -48.2706 -48.2706 -48.2671
   -48.1756 -48.1755 -48.1755 -48.1755 -48.1755 -48.1755 -48.1752 -48.1752
    -5.0849  -4.6656  -4.1780  -4.1780  -3.9197  -3.7584  -3.7584  -3.5031
    -3.5010  -3.0869  -3.0735  -3.0110  -3.0110  -2.9825  -2.8196  -2.8195
    -2.3943  -2.3943  -2.3443  -2.3100  -2.0637  -2.0637  -2.0198  -1.8656
    -1.6664  -1.6664  -1.5021  -1.4107  -1.3963  -1.3962  -1.2796  -1.2126
    -1.2125  -0.9110  -0.9110  -0.8897  -0.6727  -0.5029  -0.5029  -0.4241
    -0.2998  -0.2872  -0.0458  -0.0354  -0.0344  -0.0343   0.1674   0.2045
     0.2046   0.2724   0.7121   0.7122   0.7968   0.8162   0.8617   1.0519
     1.1381   1.1382   1.1593   1.1882

          k =-0.2857 0.3299 0.0000 (277662 PWs)   bands (ev):

   -49.3446 -49.3446 -49.3446 -49.3446 -49.3445 -49.3445 -49.3445 -49.3445
   -48.5517 -48.5517 -48.5516 -48.5516 -48.5515 -48.5515 -48.5515 -48.5515
   -48.3307 -48.3307 -48.3307 -48.3307 -48.3307 -48.3307 -48.3307 -48.3306
   -48.2961 -48.2947 -48.2943 -48.2936 -48.2894 -48.2887 -48.2885 -48.2881
   -48.2753 -48.2753 -48.2751 -48.2743 -48.2721 -48.2704 -48.2696 -48.2677
   -48.1756 -48.1755 -48.1755 -48.1755 -48.1754 -48.1754 -48.1753 -48.1752
    -4.9555  -4.5360  -4.5021  -4.2758  -4.0822  -3.8558  -3.7889  -3.6005
    -3.3325  -3.1965  -3.1365  -3.1059  -2.8478  -2.7395  -2.4811  -2.4181
    -2.3885  -2.3120  -2.2412  -2.1635  -2.0410  -2.0008  -1.8907  -1.8463
    -1.8179  -1.7127  -1.4892  -1.4883  -1.3976  -1.2667  -1.2345  -1.1792
    -1.1090  -1.0968  -1.0677  -0.9617  -0.7962  -0.7527  -0.6715  -0.5595
    -0.5312  -0.4446  -0.3420  -0.2251  -0.2018  -0.1682   0.1252   0.1549
     0.2280   0.3181   0.5013   0.6536   0.7355   0.7796   0.8203   0.8372
     0.8674   1.1236   1.2801   1.3032

          k = 0.4286 0.0825 0.0000 (277662 PWs)   bands (ev):

   -49.3446 -49.3446 -49.3446 -49.3446 -49.3445 -49.3445 -49.3445 -49.3445
   -48.5517 -48.5517 -48.5516 -48.5516 -48.5515 -48.5515 -48.5515 -48.5515
   -48.3307 -48.3307 -48.3307 -48.3307 -48.3307 -48.3307 -48.3307 -48.3306
   -48.2961 -48.2947 -48.2943 -48.2936 -48.2894 -48.2887 -48.2885 -48.2881
   -48.2753 -48.2753 -48.2751 -48.2743 -48.2721 -48.2704 -48.2696 -48.2677
   -48.1756 -48.1755 -48.1755 -48.1755 -48.1754 -48.1754 -48.1753 -48.1752
    -4.9555  -4.5360  -4.5021  -4.2758  -4.0822  -3.8558  -3.7889  -3.6005
    -3.3325  -3.1965  -3.1365  -3.1059  -2.8478  -2.7395  -2.4811  -2.4181
    -2.3885  -2.3120  -2.2412  -2.1635  -2.0411  -2.0007  -1.8907  -1.8463
    -1.8179  -1.7127  -1.4892  -1.4883  -1.3976  -1.2667  -1.2345  -1.1791
    -1.1090  -1.0968  -1.0677  -0.9617  -0.7962  -0.7527  -0.6715  -0.5594
    -0.5312  -0.4447  -0.3420  -0.2252  -0.2018  -0.1682   0.1252   0.1549
     0.2280   0.3181   0.5013   0.6536   0.7355   0.7796   0.8203   0.8372
     0.8674   1.1236   1.2801   1.3032

          k = 0.5714-0.1650 0.0000 (277716 PWs)   bands (ev):

   -49.3446 -49.3446 -49.3446 -49.3446 -49.3445 -49.3445 -49.3445 -49.3445
   -48.5517 -48.5517 -48.5516 -48.5516 -48.5515 -48.5515 -48.5515 -48.5515
   -48.3307 -48.3307 -48.3307 -48.3307 -48.3307 -48.3307 -48.3307 -48.3306
   -48.2955 -48.2955 -48.2943 -48.2936 -48.2891 -48.2891 -48.2885 -48.2881
   -48.2753 -48.2753 -48.2751 -48.2742 -48.2723 -48.2704 -48.2686 -48.2686
   -48.1756 -48.1755 -48.1755 -48.1755 -48.1754 -48.1754 -48.1753 -48.1753
    -4.7612  -4.7612  -4.3415  -4.3415  -4.3084  -3.8883  -3.6335  -3.5929
    -3.5929  -3.2147  -3.1378  -2.7560  -2.7516  -2.6475  -2.6475  -2.4926
    -2.3169  -2.2907  -2.1992  -2.1031  -2.0875  -1.7070  -1.7070  -1.6731
    -1.6511  -1.6467  -1.6157  -1.6157  -1.5337  -1.4424  -1.3114  -1.1948
    -1.1948  -1.0064  -0.9929  -0.9929  -0.8988  -0.8233  -0.7642  -0.7642
    -0.5252  -0.5252  -0.4908  -0.3128  -0.2047  -0.2046  -0.1029   0.2550
     0.3366   0.3366   0.5254   0.5255   0.6710   0.7160   0.7291   0.9163
     0.9359   0.9360   1.4262   1.4262

          k =-0.4286-0.5774 0.0000 (277774 PWs)   bands (ev):

   -49.3446 -49.3446 -49.3446 -49.3446 -49.3445 -49.3445 -49.3445 -49.3445
   -48.5517 -48.5517 -48.5516 -48.5516 -48.5516 -48.5515 -48.5515 -48.5514
   -48.3307 -48.3307 -48.3307 -48.3307 -48.3307 -48.3307 -48.3307 -48.3306
   -48.2956 -48.2949 -48.2949 -48.2935 -48.2891 -48.2888 -48.2888 -48.2881
   -48.2753 -48.2753 -48.2753 -48.2737 -48.2729 -48.2694 -48.2694 -48.2685
   -48.1756 -48.1756 -48.1754 -48.1754 -48.1754 -48.1754 -48.1754 -48.1753
    -4.7936  -4.5670  -4.5670  -4.3740  -4.1472  -4.1472  -3.6255  -3.3974
    -3.3974  -3.2239  -3.2214  -2.8366  -2.7894  -2.7579  -2.6805  -2.4493
    -2.4493  -2.3730  -2.0376  -2.0164  -1.8906  -1.8906  -1.7336  -1.5997
    -1.5409  -1.5409  -1.5162  -1.5162  -1.4540  -1.4540  -1.2744  -1.2706
    -1.1721  -1.0832  -1.0831  -1.0378  -0.8497  -0.8348  -0.8347  -0.8215
    -0.7223  -0.5962  -0.4160  -0.4160  -0.3673  -0.0696   0.0008   0.0009
     0.1969   0.4727   0.4727   0.5267   0.6530   0.7600   0.8564   0.8564
     1.0726   1.0726   1.1185   1.3551

     the Fermi energy is    -1.7637 ev

!    total energy              =    -721.71233381 Ry
     total all-electron energy =      -721.712724 Ry
     estimated scf accuracy    <          3.6E-13 Ry
     smearing contrib. (-TS)   =      -0.00086460 Ry
     internal energy E=F+TS    =    -721.71146920 Ry

     The total energy is F=E-TS. E is the sum of the following terms:
     one-electron contribution =   -6481.78371500 Ry
     hartree contribution      =    3167.82322246 Ry
     xc contribution           =    -171.96939888 Ry
     ewald contribution        =    2759.98656781 Ry
     one-center paw contrib.   =       4.23185442 Ry

     convergence has been achieved in  21 iterations

     Forces acting on atoms (cartesian axes, Ry/au):

     atom    1 type  1   force =     0.00000000   -0.00000107   -0.00014912
     atom    2 type  1   force =    -0.00000057    0.00000005   -0.00010444
     atom    3 type  1   force =     0.00000000    0.00000163   -0.00016558
     atom    4 type  1   force =     0.00000000   -0.00000323    0.00023897
     atom    5 type  1   force =     0.00000029   -0.00000347    0.00033416
     atom    6 type  1   force =     0.00000000    0.00000216    0.00002422
     atom    7 type  1   force =     0.00000000   -0.00000011   -0.00002341
     atom    8 type  1   force =     0.00000147    0.00000277   -0.00033565
     atom    9 type  1   force =     0.00000000    0.00000115   -0.00023700
     atom   10 type  1   force =     0.00000000    0.00000083    0.00016420
     atom   11 type  1   force =     0.00000008    0.00000130    0.00010488
     atom   12 type  1   force =     0.00000000   -0.00000203    0.00014781
     atom   13 type  1   force =     0.00000052    0.00000141   -0.00014685
     atom   14 type  1   force =     0.00000000    0.00000008   -0.00010161
     atom   15 type  1   force =     0.00000129    0.00000159   -0.00016469
     atom   16 type  1   force =     0.00000064   -0.00000409    0.00023628
     atom   17 type  1   force =     0.00000000   -0.00000332    0.00033488
     atom   18 type  1   force =    -0.00000114    0.00000369    0.00002277
     atom   19 type  1   force =    -0.00000152   -0.00000222   -0.00002232
     atom   20 type  1   force =     0.00000000    0.00000375   -0.00033372
     atom   21 type  1   force =    -0.00000037   -0.00000231   -0.00023104
     atom   22 type  1   force =    -0.00000110   -0.00000023    0.00016391
     atom   23 type  1   force =     0.00000000    0.00000448    0.00009681
     atom   24 type  1   force =     0.00000046   -0.00000056    0.00014470
     atom   25 type  1   force =     0.00000000    0.00000207   -0.00014756
     atom   26 type  1   force =     0.00000057    0.00000005   -0.00010444
     atom   27 type  1   force =     0.00000000    0.00000051   -0.00016525
     atom   28 type  1   force =     0.00000000   -0.00000330    0.00023658
     atom   29 type  1   force =    -0.00000029   -0.00000347    0.00033416
     atom   30 type  1   force =     0.00000000   -0.00000045    0.00002416
     atom   31 type  1   force =     0.00000000   -0.00000248   -0.00002315
     atom   32 type  1   force =    -0.00000147    0.00000277   -0.00033565
     atom   33 type  1   force =     0.00000000   -0.00000014   -0.00023828
     atom   34 type  1   force =     0.00000000    0.00000014    0.00016359
     atom   35 type  1   force =    -0.00000008    0.00000130    0.00010488
     atom   36 type  1   force =     0.00000000    0.00000072    0.00014744
     atom   37 type  1   force =    -0.00000052    0.00000141   -0.00014685
     atom   38 type  1   force =     0.00000000   -0.00000027   -0.00009586
     atom   39 type  1   force =    -0.00000129    0.00000159   -0.00016469
     atom   40 type  1   force =    -0.00000064   -0.00000409    0.00023628
     atom   41 type  1   force =     0.00000000   -0.00000250    0.00032823
     atom   42 type  1   force =     0.00000114    0.00000369    0.00002277
     atom   43 type  1   force =     0.00000152   -0.00000222   -0.00002232
     atom   44 type  1   force =     0.00000000    0.00000231   -0.00033319
     atom   45 type  1   force =     0.00000037   -0.00000231   -0.00023104
     atom   46 type  1   force =     0.00000110   -0.00000023    0.00016391
     atom   47 type  1   force =     0.00000000    0.00000320    0.00010342
     atom   48 type  1   force =    -0.00000046   -0.00000056    0.00014470

     Total force =     0.001346     Total SCF correction =     0.000010
     Energy error            =      3.6E-06 Ry
     Gradient error          =      3.4E-04 Ry/Bohr

     bfgs converged in  19 scf cycles and  18 bfgs steps
     (criteria: energy <  1.0E-05 Ry, force <  3.9E-04 Ry/Bohr)

     End of BFGS Geometry Optimization

     Final energy             =    -721.7123338080 Ry

     File ./pwscf.bfgs deleted, as requested
Begin final coordinates

ATOMIC_POSITIONS (angstrom)
Li              -0.0000000100        0.0000934946       20.2722371892
Li               2.4290448659        1.4025777564       16.5364754062
Li               4.8580444100        2.8049370324       18.3135124991
Li               0.0000000100        0.0001852725       17.2148027035
Li               2.4290449869        1.4025338909       19.3755108277
Li               4.8580445000        2.8048599771       15.3429127541
Li              -0.0000000000       -0.0001136341       26.3060906061
Li               2.4290039162        1.4022575161       22.2736060280
Li               4.8580444100        2.8046140987       24.4342007420
Li              -0.0000000100       -0.0001271985       23.3355536592
Li               2.4290236420        1.4022248981       25.1126058679
Li               4.8580444200        2.8047721250       21.3768437009
Li               2.4290011176        4.2072101492       20.2722264750
Li               4.8580443900        5.6096800345       16.5364197538
Li               7.2870249551        7.0121135439       18.3135063324
Li               2.4289699480        4.2074219468       17.2148973799
Li               4.8580444100        5.6097304946       19.3755263103
Li               7.2870347717        7.0120704224       15.3429472424
Li               2.4289258578        4.2070747198       26.3060912859
Li               4.8580444000        5.6094311229       22.2736999472
Li               7.2870228623        7.0118537154       24.4340087444
Li               2.4290263473        4.2070367150       23.3355658264
Li               4.8580444000        5.6093383946       25.1128667512
Li               7.2870266130        7.0119337935       21.3768444826
Li               4.8580444000       -0.0000098772       20.2722456097
Li               7.2870439541        1.4025777364       16.5364755562
Li               9.7160888200        2.8049066546       18.3135361055
Li               4.8580443900        0.0001770738       17.2149159320
Li               7.2870438331        1.4025338909       19.3755109077
Li               9.7160887400        2.8049398570       15.3429376983
Li               4.8580444000       -0.0001112068       26.3060705653
Li               7.2870849038        1.4022575161       22.2736060780
Li               9.7160888300        2.8046375045       24.4342420823
Li               4.8580444000       -0.0001257018       23.3355394748
Li               7.2870651780        1.4022248881       25.1126059079
Li               9.7160888200        2.8047396813       21.3768935087
Li               7.2870876924        4.2072101592       20.2722264750
Li               9.7160888400        5.6097882937       16.5362277127
Li              12.1451526949        7.0121135539       18.3135063424
Li               7.2871188620        4.2074219668       17.2148973899
Li               9.7160888300        5.6097062125       19.3754458492
Li              12.1451428783        7.0120705324       15.3429472524
Li               7.2871629522        4.2070747298       26.3060912759
Li               9.7160888300        5.6094703823       22.2735035957
Li              12.1451547877        7.0118537154       24.4340087444
Li               7.2870624727        4.2070367150       23.3355658164
Li               9.7160888300        5.6094565371       25.1125192019
Li              12.1451510470        7.0119338035       21.3768444826
End final coordinates


     Message from routine punch:
     Nothing written, as per user request (disk_io='none')
 
     init_run     :      9.80s CPU     10.21s WALL (       1 calls)
     electrons    :   2151.42s CPU   2185.55s WALL (      19 calls)
     update_pot   :      1.99s CPU      2.03s WALL (      18 calls)
     forces       :     18.79s CPU     19.61s WALL (      19 calls)

     Called by init_run:
     wfcinit      :      4.18s CPU      4.36s WALL (       1 calls)
     potinit      :      0.19s CPU      0.22s WALL (       1 calls)
     hinit0       :      0.02s CPU      0.06s WALL (       1 calls)

     Called by electrons:
     c_bands      :   1741.44s CPU   1759.87s WALL (     331 calls)
     sum_band     :    286.02s CPU    294.42s WALL (     331 calls)
     v_of_rho     :     28.55s CPU     29.06s WALL (     336 calls)
     newd         :     12.73s CPU     16.79s WALL (     336 calls)
     PAW_pot      :      3.88s CPU      3.91s WALL (     354 calls)
     mix_rho      :     68.06s CPU     68.63s WALL (     331 calls)

     Called by c_bands:
     init_us_2    :     47.22s CPU     47.44s WALL (    5600 calls)
     cegterg      :   1662.42s CPU   1680.29s WALL (    2648 calls)

     Called by *egterg:
     cdiaghg      :    127.47s CPU    127.68s WALL (   10965 calls)
     h_psi        :   1093.64s CPU   1110.42s WALL (   11229 calls)
     s_psi        :    118.67s CPU    118.95s WALL (   11229 calls)
     g_psi        :      0.87s CPU      0.88s WALL (    8573 calls)

     Called by h_psi:
     h_psi:calbec :    159.46s CPU    160.27s WALL (   11229 calls)
     vloc_psi     :    783.81s CPU    799.42s WALL (   11229 calls)
                                        0.00s GPU  (   11229 calls)
     add_vuspsi   :    143.31s CPU    143.62s WALL (   11229 calls)

     General routines
     calbec       :    233.14s CPU    234.20s WALL (   14629 calls)
     fft          :     20.95s CPU     21.06s WALL (    4400 calls)
     ffts         :     41.95s CPU     42.30s WALL (   37255 calls)
     fftw         :    900.63s CPU    918.55s WALL ( 1643836 calls)
     interpolate  :      2.07s CPU      2.08s WALL (     336 calls)
 
     Parallel routines
 
     PWSCF        :  36m30.50s CPU  37m 8.32s WALL

 
   This run was terminated on:   1:13: 3  23Jan2025            

=------------------------------------------------------------------------------=
   JOB DONE.
=------------------------------------------------------------------------------=
