
     Program PWSCF v.7.4 starts on 24Jan2025 at  1:57:13 

     This program is part of the open-source Quantum ESPRESSO suite
     for quantum simulation of materials; please cite
         "P. Giannozzi et al., J. Phys.:Condens. Matter 21 395502 (2009);
         "P. Giannozzi et al., J. Phys.:Condens. Matter 29 465901 (2017);
         "P. Giannozzi et al., J. Chem. Phys. 152 154105 (2020);
          URL http://www.quantum-espresso.org", 
     in publications or presentations arising from this work. More details at
     http://www.quantum-espresso.org/quote

     Parallel version (MPI & OpenMP), running on     256 processor cores
     Number of MPI processes:               256
     Threads/MPI process:                     1

     MPI processes distributed on     2 nodes
     233356 MiB available memory on the printing compute node when the environment starts

     Reading input from espresso.pwi
Warning: card &CELL ignored
Warning: card    PRESS_CONV_THR   = 0.1 ignored
Warning: card    CELL_DOFREE      = 'ALL' ignored
Warning: card / ignored
Warning: card &FCP ignored
Warning: card / ignored
Warning: card &RISM ignored
Warning: card / ignored

     Current dimensions of program PWSCF are:
     Max number of different atomic species (ntypx) = 10
     Max number of k-points (npk) =  40000
     Max angular momentum in pseudopotentials (lmaxx) =  4

     IMPORTANT: XC functional enforced from input :
     Exchange-correlation= PBE
                           (   1   4   3   4   0   0   0)
     Any further DFT definition will be discarded
     Please, verify this is what you really want


     Reading input from environ.in:
     * using ionic solvent mode
     * setting boundary derivatives method to SSCS default
     * setting electrolyte-boundary derivatives method to SSCS default

Environ Warning (1001): card EOF ignored

     
     Found identity + (  0.0000  0.5000  0.0000) symmetry
     This is a supercell, fractional translations are disabled

     R & G space division:  proc/nbgrp/npool/nimage =     256
     Subspace diagonalization in iterative solution of the eigenvalue problem:
     a serial algorithm will be used


     Parallelization info
     --------------------
     sticks:   dense  smooth     PW     G-vecs:    dense   smooth      PW
     Min          41      16      4                24769     6230     846
     Max          42      17      5                24868     6321     923
     Sum       10733    4281   1153              6359029  1608267  224795

     Using Slab Decomposition



     bravais-lattice index     =            6
     lattice parameter (alat)  =      12.9830  a.u.
     unit-cell volume          =   16640.2915 (a.u.)^3
     number of atoms/cell      =           32
     number of atomic types    =            1
     number of electrons       =        96.00
     number of Kohn-Sham states=           72
     kinetic-energy cutoff     =      80.0000  Ry
     charge density cutoff     =     800.0000  Ry
     scf convergence threshold =      1.0E-06
     mixing beta               =       0.2000
     number of iterations used =            8  local-TF  mixing
     energy convergence thresh.=      1.0E-05
     force convergence thresh. =      3.9E-04
     Exchange-correlation= PBE
                           (   1   4   3   4   0   0   0)
     nstep                     =          999


     ================================================================================

                                  Environ Setup Summary

     ================================================================================

     Please cite

          O. Andreussi, I. Dabo and N. Marzari, J. Chem. Phys. 136, 064102 (2012)
          F. Nattino, M. Truscott, N. Marzari, and O. Andreussi, J. Chem. Phys. 150, 041722 (2019)

     in publications or presentations arising from this work.

     ================================================================================

     Parameters
     ==========

     compensation onset threshold      =               0.1000E+00
     static permittivity               =                    89.90
     surface tension in input (dyn/cm) =                    37.30
     surface tension in internal units =               0.4792E-04

     Solvent Boundary
     ================

     solvent mode                      =                    ionic
     derivatives method                =                   lowmem
     electrolyte derivatives method    =                   lowmem
     numerical core for derivatives    =                      fft
     switching function adopted        =                     SCCS
     density limit for vacuum region   =               0.5000E-02
     density limit for bulk solvent    =               0.1000E-03
     soft-sphere radius mode           =                    bondi
     soft-sphere softness              =                     0.50
     alpha                             =                     1.32

     Electrostatic Setup
     ===================

     electrostatic problem to solve    =                    modpb
     numerical solver adopted          =                   newton
     type of auxiliary density adopted =                     none
     numerical core for poisson        =                      fft
     adopting a nested solver scheme
     inner solver                      =                       cg
     inner core                        =                      fft
     type of pbc corrections           =                parabolic
     numerical core for corrections    =                      1da

     ================================================================================


     >>>>> Grand-Canonical SCF is activated <<<<<
     Initial Total Charge  =     0.000000 e
     Target Fermi Energy   =    -1.654000 eV
     Thr. of Fermi Energy  =     0.001000 eV
     Wave-shift of Kerker  =     0.400000 bohr^-1
     Wave-shift of Hartree =     1.500000 bohr^-1
     Mixing Rate of Fermi  =     0.050000

     celldm(1)=  12.983009  celldm(2)=   0.000000  celldm(3)=   7.603873
     celldm(4)=   0.000000  celldm(5)=   0.000000  celldm(6)=   0.000000

     crystal axes: (cart. coord. in units of alat)
               a(1) = (   1.000000   0.000000   0.000000 )  
               a(2) = (   0.000000   1.000000   0.000000 )  
               a(3) = (   0.000000   0.000000   7.603873 )  

     reciprocal axes: (cart. coord. in units 2 pi/alat)
               b(1) = (  1.000000  0.000000  0.000000 )  
               b(2) = (  0.000000  1.000000  0.000000 )  
               b(3) = (  0.000000  0.000000  0.131512 )  


     PseudoPot. # 1 for Li read from file:
     /work/e89/e89/ba3g18/Repos/Pseudopotentials/Pslibrary/Li.pbe-sl-kjpaw_psl.1.0.0.UPF
     MD5 check sum: 3f4d2cafebb47c6c3aa8ed472e6f074d
     Pseudo is Projector augmented-wave, Zval =  3.0
     Generated using 'atomic' code by A. Dal Corso  v.7.4
     Shape of augmentation charge: PSQ
     Using radial grid of 1017 points,  4 beta functions with: 
                l(1) =   0
                l(2) =   0
                l(3) =   1
                l(4) =   1
     Q(r) pseudized with 0 coefficients 


     atomic species   valence    mass     pseudopotential
     Li                3.00     6.94000     Li( 1.00)

      8 Sym. Ops. (no inversion) found


                                    s                        frac. trans.

      isym =  1     identity                                     

 cryst.   s( 1) = (     1          0          0      )
                  (     0          1          0      )
                  (     0          0          1      )

 cart.    s( 1) = (  1.0000000  0.0000000  0.0000000 )
                  (  0.0000000  1.0000000  0.0000000 )
                  (  0.0000000  0.0000000  1.0000000 )


      isym =  2     180 deg rotation - cart. axis [0,0,1]        

 cryst.   s( 2) = (    -1          0          0      )
                  (     0         -1          0      )
                  (     0          0          1      )

 cart.    s( 2) = ( -1.0000000  0.0000000  0.0000000 )
                  (  0.0000000 -1.0000000  0.0000000 )
                  (  0.0000000  0.0000000  1.0000000 )


      isym =  3      90 deg rotation - cart. axis [0,0,-1]       

 cryst.   s( 3) = (     0         -1          0      )
                  (     1          0          0      )
                  (     0          0          1      )

 cart.    s( 3) = (  0.0000000  1.0000000  0.0000000 )
                  ( -1.0000000  0.0000000  0.0000000 )
                  (  0.0000000  0.0000000  1.0000000 )


      isym =  4      90 deg rotation - cart. axis [0,0,1]        

 cryst.   s( 4) = (     0          1          0      )
                  (    -1          0          0      )
                  (     0          0          1      )

 cart.    s( 4) = (  0.0000000 -1.0000000  0.0000000 )
                  (  1.0000000  0.0000000  0.0000000 )
                  (  0.0000000  0.0000000  1.0000000 )


      isym =  5     inv. 180 deg rotation - cart. axis [0,1,0]   

 cryst.   s( 5) = (     1          0          0      )
                  (     0         -1          0      )
                  (     0          0          1      )

 cart.    s( 5) = (  1.0000000  0.0000000  0.0000000 )
                  (  0.0000000 -1.0000000  0.0000000 )
                  (  0.0000000  0.0000000  1.0000000 )


      isym =  6     inv. 180 deg rotation - cart. axis [1,0,0]   

 cryst.   s( 6) = (    -1          0          0      )
                  (     0          1          0      )
                  (     0          0          1      )

 cart.    s( 6) = ( -1.0000000  0.0000000  0.0000000 )
                  (  0.0000000  1.0000000  0.0000000 )
                  (  0.0000000  0.0000000  1.0000000 )


      isym =  7     inv. 180 deg rotation - cart. axis [1,1,0]   

 cryst.   s( 7) = (     0         -1          0      )
                  (    -1          0          0      )
                  (     0          0          1      )

 cart.    s( 7) = (  0.0000000 -1.0000000  0.0000000 )
                  ( -1.0000000  0.0000000  0.0000000 )
                  (  0.0000000  0.0000000  1.0000000 )


      isym =  8     inv. 180 deg rotation - cart. axis [1,-1,0]  

 cryst.   s( 8) = (     0          1          0      )
                  (     1          0          0      )
                  (     0          0          1      )

 cart.    s( 8) = (  0.0000000  1.0000000  0.0000000 )
                  (  1.0000000  0.0000000  0.0000000 )
                  (  0.0000000  0.0000000  1.0000000 )


     point group C_4v (4mm) 
     there are  5 classes
     the character table:

       E     2C4   C2    2s_v  2s_d 
A_1    1.00  1.00  1.00  1.00  1.00
A_2    1.00  1.00  1.00 -1.00 -1.00
B_1    1.00 -1.00  1.00  1.00 -1.00
B_2    1.00 -1.00  1.00 -1.00  1.00
E      2.00  0.00 -2.00  0.00  0.00

     the symmetry operations in each class and the name of the first element:

     E        1
          identity                                               
     2C4      3    4
           90 deg rotation - cart. axis [0,0,-1]                 
     C2       2
          180 deg rotation - cart. axis [0,0,1]                  
     2s_v     5    6
          inv. 180 deg rotation - cart. axis [0,1,0]             
     2s_d     7    8
          inv. 180 deg rotation - cart. axis [1,1,0]             

   Cartesian axes

     site n.     atom                  positions (alat units)
         1        Li     tau(   1) = (  -0.0000000  -0.0000000   3.1749788  )
         2        Li     tau(   2) = (   0.2500001   0.2500001   2.9131303  )
         3        Li     tau(   3) = (  -0.0000000  -0.0000000   3.6770583  )
         4        Li     tau(   4) = (   0.2499999   0.2499999   3.4231280  )
         5        Li     tau(   5) = (  -0.0000000  -0.0000000   4.1807502  )
         6        Li     tau(   6) = (   0.2499994   0.2499994   3.9265826  )
         7        Li     tau(   7) = (  -0.0000000  -0.0000000   4.6909535  )
         8        Li     tau(   8) = (   0.2500001   0.2500001   4.4289796  )
         9        Li     tau(   9) = (  -0.0000000   0.5000000   3.1749812  )
        10        Li     tau(  10) = (   0.2500001   0.7499999   2.9131303  )
        11        Li     tau(  11) = (  -0.0000000   0.5000000   3.6770544  )
        12        Li     tau(  12) = (   0.2499999   0.7500001   3.4231280  )
        13        Li     tau(  13) = (  -0.0000000   0.5000000   4.1807589  )
        14        Li     tau(  14) = (   0.2499994   0.7500005   3.9265826  )
        15        Li     tau(  15) = (  -0.0000000   0.5000000   4.6909513  )
        16        Li     tau(  16) = (   0.2500001   0.7499998   4.4289796  )
        17        Li     tau(  17) = (   0.5000000  -0.0000000   3.1749812  )
        18        Li     tau(  18) = (   0.7499999   0.2500001   2.9131303  )
        19        Li     tau(  19) = (   0.5000000  -0.0000000   3.6770544  )
        20        Li     tau(  20) = (   0.7500001   0.2499999   3.4231280  )
        21        Li     tau(  21) = (   0.5000000  -0.0000000   4.1807589  )
        22        Li     tau(  22) = (   0.7500005   0.2499994   3.9265826  )
        23        Li     tau(  23) = (   0.5000000  -0.0000000   4.6909513  )
        24        Li     tau(  24) = (   0.7499998   0.2500001   4.4289796  )
        25        Li     tau(  25) = (   0.5000000   0.5000000   3.1749804  )
        26        Li     tau(  26) = (   0.7499999   0.7499999   2.9131303  )
        27        Li     tau(  27) = (   0.5000000   0.5000000   3.6770523  )
        28        Li     tau(  28) = (   0.7500001   0.7500001   3.4231280  )
        29        Li     tau(  29) = (   0.5000000   0.5000000   4.1807550  )
        30        Li     tau(  30) = (   0.7500005   0.7500005   3.9265826  )
        31        Li     tau(  31) = (   0.5000000   0.5000000   4.6909519  )
        32        Li     tau(  32) = (   0.7499998   0.7499998   4.4289796  )

   Crystallographic axes

     site n.     atom                  positions (cryst. coord.)
         1        Li     tau(   1) = ( -0.0000000 -0.0000000  0.4175476  )
         2        Li     tau(   2) = (  0.2500001  0.2500001  0.3831114  )
         3        Li     tau(   3) = ( -0.0000000 -0.0000000  0.4835770  )
         4        Li     tau(   4) = (  0.2499999  0.2499999  0.4501822  )
         5        Li     tau(   5) = ( -0.0000000 -0.0000000  0.5498185  )
         6        Li     tau(   6) = (  0.2499994  0.2499994  0.5163925  )
         7        Li     tau(   7) = ( -0.0000000 -0.0000000  0.6169163  )
         8        Li     tau(   8) = (  0.2500001  0.2500001  0.5824636  )
         9        Li     tau(   9) = ( -0.0000000  0.5000000  0.4175479  )
        10        Li     tau(  10) = (  0.2500001  0.7499999  0.3831114  )
        11        Li     tau(  11) = ( -0.0000000  0.5000000  0.4835765  )
        12        Li     tau(  12) = (  0.2499999  0.7500001  0.4501822  )
        13        Li     tau(  13) = ( -0.0000000  0.5000000  0.5498197  )
        14        Li     tau(  14) = (  0.2499994  0.7500005  0.5163925  )
        15        Li     tau(  15) = ( -0.0000000  0.5000000  0.6169161  )
        16        Li     tau(  16) = (  0.2500001  0.7499998  0.5824636  )
        17        Li     tau(  17) = (  0.5000000 -0.0000000  0.4175479  )
        18        Li     tau(  18) = (  0.7499999  0.2500001  0.3831114  )
        19        Li     tau(  19) = (  0.5000000 -0.0000000  0.4835765  )
        20        Li     tau(  20) = (  0.7500001  0.2499999  0.4501822  )
        21        Li     tau(  21) = (  0.5000000 -0.0000000  0.5498197  )
        22        Li     tau(  22) = (  0.7500005  0.2499994  0.5163925  )
        23        Li     tau(  23) = (  0.5000000 -0.0000000  0.6169161  )
        24        Li     tau(  24) = (  0.7499998  0.2500001  0.5824636  )
        25        Li     tau(  25) = (  0.5000000  0.5000000  0.4175478  )
        26        Li     tau(  26) = (  0.7499999  0.7499999  0.3831114  )
        27        Li     tau(  27) = (  0.5000000  0.5000000  0.4835762  )
        28        Li     tau(  28) = (  0.7500001  0.7500001  0.4501822  )
        29        Li     tau(  29) = (  0.5000000  0.5000000  0.5498192  )
        30        Li     tau(  30) = (  0.7500005  0.7500005  0.5163925  )
        31        Li     tau(  31) = (  0.5000000  0.5000000  0.6169161  )
        32        Li     tau(  32) = (  0.7499998  0.7499998  0.5824636  )

     number of k points=    21  Marzari-Vanderbilt smearing, width (Ry)=  0.0100
                       cart. coord. in units 2pi/alat
        k(    1) = (   0.0000000   0.0000000   0.0000000), wk =   0.0200000
        k(    2) = (   0.0000000   0.1000000   0.0000000), wk =   0.0800000
        k(    3) = (   0.0000000   0.2000000   0.0000000), wk =   0.0800000
        k(    4) = (   0.0000000   0.3000000   0.0000000), wk =   0.0800000
        k(    5) = (   0.0000000   0.4000000   0.0000000), wk =   0.0800000
        k(    6) = (   0.0000000  -0.5000000   0.0000000), wk =   0.0400000
        k(    7) = (   0.1000000   0.1000000   0.0000000), wk =   0.0800000
        k(    8) = (   0.1000000   0.2000000   0.0000000), wk =   0.1600000
        k(    9) = (   0.1000000   0.3000000   0.0000000), wk =   0.1600000
        k(   10) = (   0.1000000   0.4000000   0.0000000), wk =   0.1600000
        k(   11) = (   0.1000000  -0.5000000   0.0000000), wk =   0.0800000
        k(   12) = (   0.2000000   0.2000000   0.0000000), wk =   0.0800000
        k(   13) = (   0.2000000   0.3000000   0.0000000), wk =   0.1600000
        k(   14) = (   0.2000000   0.4000000   0.0000000), wk =   0.1600000
        k(   15) = (   0.2000000  -0.5000000   0.0000000), wk =   0.0800000
        k(   16) = (   0.3000000   0.3000000   0.0000000), wk =   0.0800000
        k(   17) = (   0.3000000   0.4000000   0.0000000), wk =   0.1600000
        k(   18) = (   0.3000000  -0.5000000   0.0000000), wk =   0.0800000
        k(   19) = (   0.4000000   0.4000000   0.0000000), wk =   0.0800000
        k(   20) = (   0.4000000  -0.5000000   0.0000000), wk =   0.0800000
        k(   21) = (  -0.5000000  -0.5000000   0.0000000), wk =   0.0200000

                       cryst. coord.
        k(    1) = (   0.0000000   0.0000000   0.0000000), wk =   0.0200000
        k(    2) = (   0.0000000   0.1000000   0.0000000), wk =   0.0800000
        k(    3) = (   0.0000000   0.2000000   0.0000000), wk =   0.0800000
        k(    4) = (   0.0000000   0.3000000   0.0000000), wk =   0.0800000
        k(    5) = (   0.0000000   0.4000000   0.0000000), wk =   0.0800000
        k(    6) = (   0.0000000  -0.5000000   0.0000000), wk =   0.0400000
        k(    7) = (   0.1000000   0.1000000   0.0000000), wk =   0.0800000
        k(    8) = (   0.1000000   0.2000000   0.0000000), wk =   0.1600000
        k(    9) = (   0.1000000   0.3000000   0.0000000), wk =   0.1600000
        k(   10) = (   0.1000000   0.4000000   0.0000000), wk =   0.1600000
        k(   11) = (   0.1000000  -0.5000000   0.0000000), wk =   0.0800000
        k(   12) = (   0.2000000   0.2000000   0.0000000), wk =   0.0800000
        k(   13) = (   0.2000000   0.3000000   0.0000000), wk =   0.1600000
        k(   14) = (   0.2000000   0.4000000   0.0000000), wk =   0.1600000
        k(   15) = (   0.2000000  -0.5000000   0.0000000), wk =   0.0800000
        k(   16) = (   0.3000000   0.3000000   0.0000000), wk =   0.0800000
        k(   17) = (   0.3000000   0.4000000   0.0000000), wk =   0.1600000
        k(   18) = (   0.3000000  -0.5000000   0.0000000), wk =   0.0800000
        k(   19) = (   0.4000000   0.4000000   0.0000000), wk =   0.0800000
        k(   20) = (   0.4000000  -0.5000000   0.0000000), wk =   0.0800000
        k(   21) = (  -0.5000000  -0.5000000   0.0000000), wk =   0.0200000

     Dense  grid:  6359029 G-vectors     FFT dimensions: ( 120, 120, 900)

     Smooth grid:  1608267 G-vectors     FFT dimensions: (  75,  75, 576)

     Dynamical RAM for                 wfc:       0.86 MB

     Dynamical RAM for     wfc (w. buffer):      18.97 MB

     Dynamical RAM for           str. fact:       0.38 MB

     Dynamical RAM for           local pot:       0.00 MB

     Dynamical RAM for          nlocal pot:       3.07 MB

     Dynamical RAM for                qrad:       0.65 MB

     Dynamical RAM for          rho,v,vnew:       2.46 MB

     Dynamical RAM for               rhoin:       0.82 MB

     Dynamical RAM for            rho*nmix:       6.07 MB

     Dynamical RAM for           G-vectors:       1.47 MB

     Dynamical RAM for          h,s,v(r/c):       3.80 MB

     Dynamical RAM for          <psi|beta>:       0.28 MB

     Dynamical RAM for                 psi:       3.45 MB

     Dynamical RAM for                hpsi:       3.45 MB

     Dynamical RAM for                spsi:       3.45 MB

     Dynamical RAM for      wfcinit/wfcrot:       1.84 MB

     Dynamical RAM for           addusdens:      28.45 MB

     Dynamical RAM for          addusforce:      52.18 MB

     Estimated static dynamical RAM per process >      30.77 MB

     Estimated max dynamical RAM per process >      97.03 MB

     Estimated total dynamical RAM >      22.26 GB

     Initial potential from superposition of free atoms

     starting charge      95.8525, renormalised to      96.0000

     negative rho (up, down):  2.906E-03 0.000E+00
     Starting wfcs are random
     Checking if some PAW data can be deallocated... 

     total cpu time spent up to now is       23.3 secs

     Self-consistent Calculation

     iteration #  1     ecut=    80.00 Ry     beta= 0.20
     Davidson diagonalization with overlap

---- Real-time Memory Report at c_bands before calling an iterative solver
           379 MiB given to the printing process from OS
             0 MiB allocation reported by mallinfo(arena+hblkhd)
        222451 MiB available memory on the node where the printing process lives
------------------
     c_bands:  1 eigenvalues not converged
     c_bands:  1 eigenvalues not converged
     c_bands:  1 eigenvalues not converged
     c_bands:  1 eigenvalues not converged
     c_bands:  2 eigenvalues not converged
     ethr =  1.00E-12,  avg # of iterations =119.7

     negative rho (up, down):  2.201E-03 0.000E+00

     total cpu time spent up to now is      217.8 secs

     total energy              =    -481.23234111 Ry
     estimated scf accuracy    <       0.10776238 Ry

     total charge of GC-SCF    =      -0.02372320 e
     the Fermi energy          =      -4.24177738 eV
                        (error :       2.58777738 eV)
     electrostatic embedding   =       0.00000000 Ry
     cavitation energy         =       0.01925773 Ry
     electrolyte free energy   =       0.00716218 Ry
     correction to one-el term =      -0.00000000 Ry

     iteration #  2     ecut=    80.00 Ry     beta= 0.20
     Davidson diagonalization with overlap

---- Real-time Memory Report at c_bands before calling an iterative solver
           379 MiB given to the printing process from OS
             0 MiB allocation reported by mallinfo(arena+hblkhd)
        219786 MiB available memory on the node where the printing process lives
------------------
     ethr =  1.00E-05,  avg # of iterations = 10.9

     negative rho (up, down):  1.723E-03 0.000E+00

     add environment contribution to local potential

     total cpu time spent up to now is      242.1 secs

     total energy              =    -481.30188052 Ry
     estimated scf accuracy    <       0.04169607 Ry

     total charge of GC-SCF    =      -0.03636775 e
     the Fermi energy          =      -2.90537258 eV
                        (error :       1.25137258 eV)
     electrostatic embedding   =      -0.00021498 Ry
     cavitation energy         =       0.01925773 Ry
     electrolyte free energy   =       0.00716218 Ry
     correction to one-el term =      -0.00000000 Ry

     iteration #  3     ecut=    80.00 Ry     beta= 0.20
     Davidson diagonalization with overlap

---- Real-time Memory Report at c_bands before calling an iterative solver
           379 MiB given to the printing process from OS
             0 MiB allocation reported by mallinfo(arena+hblkhd)
        219771 MiB available memory on the node where the printing process lives
------------------
     ethr =  1.00E-05,  avg # of iterations = 20.5

     negative rho (up, down):  1.395E-03 0.000E+00

     add environment contribution to local potential

     total cpu time spent up to now is      275.8 secs

     total energy              =    -481.20617186 Ry
     estimated scf accuracy    <       0.03637495 Ry

     total charge of GC-SCF    =      -0.12404082 e
     the Fermi energy          =      -2.81851687 eV
                        (error :       1.16451687 eV)
     electrostatic embedding   =      -0.02283032 Ry
     cavitation energy         =       0.01925773 Ry
     electrolyte free energy   =      -0.00238574 Ry
     correction to one-el term =       1.59394010 Ry

     iteration #  4     ecut=    80.00 Ry     beta= 0.20
     Davidson diagonalization with overlap

---- Real-time Memory Report at c_bands before calling an iterative solver
           379 MiB given to the printing process from OS
             0 MiB allocation reported by mallinfo(arena+hblkhd)
        219797 MiB available memory on the node where the printing process lives
------------------
     ethr =  1.00E-05,  avg # of iterations = 10.4

     negative rho (up, down):  1.106E-03 0.000E+00

     add environment contribution to local potential

     total cpu time spent up to now is      299.2 secs

     total energy              =    -481.20996671 Ry
     estimated scf accuracy    <       0.01349112 Ry

     total charge of GC-SCF    =      -0.23108757 e
     the Fermi energy          =      -3.14950696 eV
                        (error :       1.49550696 eV)
     electrostatic embedding   =      -0.02926557 Ry
     cavitation energy         =       0.01925773 Ry
     electrolyte free energy   =      -0.00334497 Ry
     correction to one-el term =       5.71308673 Ry

     iteration #  5     ecut=    80.00 Ry     beta= 0.20
     Davidson diagonalization with overlap

---- Real-time Memory Report at c_bands before calling an iterative solver
           379 MiB given to the printing process from OS
             0 MiB allocation reported by mallinfo(arena+hblkhd)
        219778 MiB available memory on the node where the printing process lives
------------------
     ethr =  1.00E-05,  avg # of iterations = 14.2

     negative rho (up, down):  9.250E-04 0.000E+00

     add environment contribution to local potential

     total cpu time spent up to now is      326.7 secs

     total energy              =    -481.19601496 Ry
     estimated scf accuracy    <       0.00404820 Ry

     total charge of GC-SCF    =      -0.46446009 e
     the Fermi energy          =      -2.53220314 eV
                        (error :       0.87820314 eV)
     electrostatic embedding   =      -0.03808634 Ry
     cavitation energy         =       0.01925773 Ry
     electrolyte free energy   =      -0.00041250 Ry
     correction to one-el term =       9.84033607 Ry

     iteration #  6     ecut=    80.00 Ry     beta= 0.20
     Davidson diagonalization with overlap

---- Real-time Memory Report at c_bands before calling an iterative solver
           379 MiB given to the printing process from OS
             0 MiB allocation reported by mallinfo(arena+hblkhd)
        219752 MiB available memory on the node where the printing process lives
------------------
     ethr =  4.20E-06,  avg # of iterations = 16.0

     negative rho (up, down):  8.100E-04 0.000E+00

     add environment contribution to local potential

     total cpu time spent up to now is      356.1 secs

     total energy              =    -481.27075430 Ry
     estimated scf accuracy    <       0.01230685 Ry

     total charge of GC-SCF    =      -0.65144109 e
     the Fermi energy          =      -2.06572317 eV
                        (error :       0.41172317 eV)
     electrostatic embedding   =      -0.08055372 Ry
     cavitation energy         =       0.01925773 Ry
     electrolyte free energy   =      -0.00114615 Ry
     correction to one-el term =      20.97260530 Ry

     iteration #  7     ecut=    80.00 Ry     beta= 0.20
     Davidson diagonalization with overlap

---- Real-time Memory Report at c_bands before calling an iterative solver
           379 MiB given to the printing process from OS
             0 MiB allocation reported by mallinfo(arena+hblkhd)
        219729 MiB available memory on the node where the printing process lives
------------------
     ethr =  4.20E-06,  avg # of iterations = 10.4

     negative rho (up, down):  6.980E-04 0.000E+00

     add environment contribution to local potential

     total cpu time spent up to now is      378.7 secs

     total energy              =    -481.08724839 Ry
     estimated scf accuracy    <       0.02505427 Ry

     total charge of GC-SCF    =      -0.82243460 e
     the Fermi energy          =      -1.86608695 eV
                        (error :       0.21208695 eV)
     electrostatic embedding   =      -0.13226018 Ry
     cavitation energy         =       0.01925773 Ry
     electrolyte free energy   =      -0.00247777 Ry
     correction to one-el term =      27.52581295 Ry

     iteration #  8     ecut=    80.00 Ry     beta= 0.20
     Davidson diagonalization with overlap

---- Real-time Memory Report at c_bands before calling an iterative solver
           379 MiB given to the printing process from OS
             0 MiB allocation reported by mallinfo(arena+hblkhd)
        219703 MiB available memory on the node where the printing process lives
------------------
     ethr =  4.20E-06,  avg # of iterations = 11.7

     negative rho (up, down):  6.243E-04 0.000E+00

     add environment contribution to local potential

     total cpu time spent up to now is      404.1 secs

     total energy              =    -481.30862273 Ry
     estimated scf accuracy    <       0.00276079 Ry

     total charge of GC-SCF    =      -1.03184334 e
     the Fermi energy          =      -2.41685275 eV
                        (error :       0.76285275 eV)
     electrostatic embedding   =      -0.20010476 Ry
     cavitation energy         =       0.01925773 Ry
     electrolyte free energy   =      -0.00104270 Ry
     correction to one-el term =      31.43816906 Ry

     iteration #  9     ecut=    80.00 Ry     beta= 0.20
     Davidson diagonalization with overlap

---- Real-time Memory Report at c_bands before calling an iterative solver
           379 MiB given to the printing process from OS
             0 MiB allocation reported by mallinfo(arena+hblkhd)
        219663 MiB available memory on the node where the printing process lives
------------------
     ethr =  2.85E-06,  avg # of iterations = 10.2

     negative rho (up, down):  5.595E-04 0.000E+00

     add environment contribution to local potential

     total cpu time spent up to now is      427.0 secs

     total energy              =    -481.24929831 Ry
     estimated scf accuracy    <       0.01960001 Ry

     total charge of GC-SCF    =      -1.07291477 e
     the Fermi energy          =      -2.66006034 eV
                        (error :       1.00606034 eV)
     electrostatic embedding   =      -0.29653243 Ry
     cavitation energy         =       0.01925773 Ry
     electrolyte free energy   =      -0.00242005 Ry
     correction to one-el term =      37.50564963 Ry

     iteration # 10     ecut=    80.00 Ry     beta= 0.20
     Davidson diagonalization with overlap

---- Real-time Memory Report at c_bands before calling an iterative solver
           379 MiB given to the printing process from OS
             0 MiB allocation reported by mallinfo(arena+hblkhd)
        219601 MiB available memory on the node where the printing process lives
------------------
     ethr =  2.85E-06,  avg # of iterations = 12.0

     negative rho (up, down):  5.018E-04 0.000E+00

     add environment contribution to local potential

     total cpu time spent up to now is      452.2 secs

     total energy              =    -481.28039862 Ry
     estimated scf accuracy    <       0.00092147 Ry

     total charge of GC-SCF    =      -1.17898650 e
     the Fermi energy          =      -2.36239192 eV
                        (error :       0.70839192 eV)
     electrostatic embedding   =      -0.30539218 Ry
     cavitation energy         =       0.01925773 Ry
     electrolyte free energy   =      -0.00168383 Ry
     correction to one-el term =      39.84199699 Ry

     iteration # 11     ecut=    80.00 Ry     beta= 0.20
     Davidson diagonalization with overlap

---- Real-time Memory Report at c_bands before calling an iterative solver
           379 MiB given to the printing process from OS
             0 MiB allocation reported by mallinfo(arena+hblkhd)
        219578 MiB available memory on the node where the printing process lives
------------------
     ethr =  9.48E-07,  avg # of iterations = 15.0

     negative rho (up, down):  4.601E-04 0.000E+00

     add environment contribution to local potential

     total cpu time spent up to now is      481.1 secs

     total energy              =    -481.32138600 Ry
     estimated scf accuracy    <       0.00330804 Ry

     total charge of GC-SCF    =      -1.38079008 e
     the Fermi energy          =      -2.18887429 eV
                        (error :       0.53487429 eV)
     electrostatic embedding   =      -0.34994197 Ry
     cavitation energy         =       0.01925773 Ry
     electrolyte free energy   =      -0.00236765 Ry
     correction to one-el term =      43.61022023 Ry

     iteration # 12     ecut=    80.00 Ry     beta= 0.20
     Davidson diagonalization with overlap

---- Real-time Memory Report at c_bands before calling an iterative solver
           379 MiB given to the printing process from OS
             0 MiB allocation reported by mallinfo(arena+hblkhd)
        219582 MiB available memory on the node where the printing process lives
------------------
     ethr =  9.48E-07,  avg # of iterations = 22.0

     negative rho (up, down):  4.376E-04 0.000E+00

     add environment contribution to local potential

     total cpu time spent up to now is      516.3 secs

     total energy              =    -481.40696755 Ry
     estimated scf accuracy    <       0.06431637 Ry

     total charge of GC-SCF    =      -1.38345520 e
     the Fermi energy          =      -1.67616913 eV
                        (error :       0.02216913 eV)
     electrostatic embedding   =      -0.44143400 Ry
     cavitation energy         =       0.01925773 Ry
     electrolyte free energy   =      -0.00505441 Ry
     correction to one-el term =      49.16427454 Ry

     iteration # 13     ecut=    80.00 Ry     beta= 0.20
     Davidson diagonalization with overlap

---- Real-time Memory Report at c_bands before calling an iterative solver
           379 MiB given to the printing process from OS
             0 MiB allocation reported by mallinfo(arena+hblkhd)
        219535 MiB available memory on the node where the printing process lives
------------------
     ethr =  9.48E-07,  avg # of iterations = 10.2

     negative rho (up, down):  4.147E-04 0.000E+00

     add environment contribution to local potential

     total cpu time spent up to now is      539.1 secs

     total energy              =    -481.13413021 Ry
     estimated scf accuracy    <       0.04805432 Ry

     total charge of GC-SCF    =      -1.19423446 e
     the Fermi energy          =      -1.79401283 eV
                        (error :       0.14001283 eV)
     electrostatic embedding   =      -0.44850492 Ry
     cavitation energy         =       0.01925773 Ry
     electrolyte free energy   =      -0.00479683 Ry
     correction to one-el term =      49.62479514 Ry

     iteration # 14     ecut=    80.00 Ry     beta= 0.20
     Davidson diagonalization with overlap

---- Real-time Memory Report at c_bands before calling an iterative solver
           379 MiB given to the printing process from OS
             0 MiB allocation reported by mallinfo(arena+hblkhd)
        219540 MiB available memory on the node where the printing process lives
------------------
     ethr =  9.48E-07,  avg # of iterations = 16.6

     negative rho (up, down):  9.476E-04 0.000E+00

     add environment contribution to local potential

     total cpu time spent up to now is      571.3 secs

     total energy              =    -481.20199087 Ry
     estimated scf accuracy    <       0.00101207 Ry

     total charge of GC-SCF    =      -1.55204888 e
     the Fermi energy          =      -2.47544459 eV
                        (error :       0.82144459 eV)
     electrostatic embedding   =      -0.36534242 Ry
     cavitation energy         =       0.01925773 Ry
     electrolyte free energy   =      -0.00213787 Ry
     correction to one-el term =      41.63927383 Ry

     iteration # 15     ecut=    80.00 Ry     beta= 0.20
     Davidson diagonalization with overlap

---- Real-time Memory Report at c_bands before calling an iterative solver
           379 MiB given to the printing process from OS
             0 MiB allocation reported by mallinfo(arena+hblkhd)
        219529 MiB available memory on the node where the printing process lives
------------------
     ethr =  9.48E-07,  avg # of iterations = 21.1

     negative rho (up, down):  1.104E-02 0.000E+00

     add environment contribution to local potential

     total cpu time spent up to now is      603.9 secs

     total energy              =    -481.29575684 Ry
     estimated scf accuracy    <       0.01275922 Ry

     total charge of GC-SCF    =      -1.43766110 e
     the Fermi energy          =      -1.88926035 eV
                        (error :       0.23526035 eV)
     electrostatic embedding   =      -0.58523387 Ry
     cavitation energy         =       0.01925773 Ry
     electrolyte free energy   =      -0.00591486 Ry
     correction to one-el term =      58.13556405 Ry

     iteration # 16     ecut=    80.00 Ry     beta= 0.20
     Davidson diagonalization with overlap

---- Real-time Memory Report at c_bands before calling an iterative solver
           379 MiB given to the printing process from OS
             0 MiB allocation reported by mallinfo(arena+hblkhd)
        219558 MiB available memory on the node where the printing process lives
------------------
     ethr =  9.48E-07,  avg # of iterations = 13.5

     negative rho (up, down):  5.745E-02 0.000E+00

     add environment contribution to local potential

     total cpu time spent up to now is      630.3 secs

     total energy              =    -481.30499855 Ry
     estimated scf accuracy    <       0.00130973 Ry

     total charge of GC-SCF    =      -1.40420701 e
     the Fermi energy          =      -2.16666138 eV
                        (error :       0.51266138 eV)
     electrostatic embedding   =      -0.54274475 Ry
     cavitation energy         =       0.01925773 Ry
     electrolyte free energy   =      -0.00434847 Ry
     correction to one-el term =      56.52948024 Ry

     iteration # 17     ecut=    80.00 Ry     beta= 0.20
     Davidson diagonalization with overlap

---- Real-time Memory Report at c_bands before calling an iterative solver
           379 MiB given to the printing process from OS
             0 MiB allocation reported by mallinfo(arena+hblkhd)
        219553 MiB available memory on the node where the printing process lives
------------------
     ethr =  9.48E-07,  avg # of iterations = 23.5

     negative rho (up, down):  5.565E-02 0.000E+00

     add environment contribution to local potential

     total cpu time spent up to now is      671.1 secs

     total energy              =    -481.43393029 Ry
     estimated scf accuracy    <       0.07165716 Ry

     total charge of GC-SCF    =      -1.36502766 e
     the Fermi energy          =      -1.22624168 eV
                        (error :       0.42775832 eV)
     electrostatic embedding   =      -0.52815987 Ry
     cavitation energy         =       0.01925773 Ry
     electrolyte free energy   =      -0.00756059 Ry
     correction to one-el term =      57.22319370 Ry

     iteration # 18     ecut=    80.00 Ry     beta= 0.20
     Davidson diagonalization with overlap

---- Real-time Memory Report at c_bands before calling an iterative solver
           379 MiB given to the printing process from OS
             0 MiB allocation reported by mallinfo(arena+hblkhd)
        219518 MiB available memory on the node where the printing process lives
------------------
     ethr =  9.48E-07,  avg # of iterations =  8.7

     negative rho (up, down):  2.760E-02 0.000E+00

     add environment contribution to local potential

     total cpu time spent up to now is      693.8 secs

     total energy              =    -481.39704254 Ry
     estimated scf accuracy    <       0.04997106 Ry

     total charge of GC-SCF    =      -1.42758990 e
     the Fermi energy          =      -1.38347385 eV
                        (error :       0.27052615 eV)
     electrostatic embedding   =      -0.50610857 Ry
     cavitation energy         =       0.01925773 Ry
     electrolyte free energy   =      -0.00713614 Ry
     correction to one-el term =      56.08679513 Ry

     iteration # 19     ecut=    80.00 Ry     beta= 0.20
     Davidson diagonalization with overlap

---- Real-time Memory Report at c_bands before calling an iterative solver
           379 MiB given to the printing process from OS
             0 MiB allocation reported by mallinfo(arena+hblkhd)
        219492 MiB available memory on the node where the printing process lives
------------------
     ethr =  9.48E-07,  avg # of iterations =  8.3

     negative rho (up, down):  5.379E-03 0.000E+00

     add environment contribution to local potential

     total cpu time spent up to now is      714.6 secs

     total energy              =    -481.20930357 Ry
     estimated scf accuracy    <       0.05079798 Ry

     total charge of GC-SCF    =      -1.27649622 e
     the Fermi energy          =      -1.43873315 eV
                        (error :       0.21526685 eV)
     electrostatic embedding   =      -0.52699058 Ry
     cavitation energy         =       0.01925773 Ry
     electrolyte free energy   =      -0.00709378 Ry
     correction to one-el term =      56.65418685 Ry

     iteration # 20     ecut=    80.00 Ry     beta= 0.20
     Davidson diagonalization with overlap

---- Real-time Memory Report at c_bands before calling an iterative solver
           379 MiB given to the printing process from OS
             0 MiB allocation reported by mallinfo(arena+hblkhd)
        219496 MiB available memory on the node where the printing process lives
------------------
     ethr =  9.48E-07,  avg # of iterations = 16.5

     negative rho (up, down):  4.117E-04 0.000E+00

     add environment contribution to local potential

     total cpu time spent up to now is      744.7 secs

     total energy              =    -481.25519905 Ry
     estimated scf accuracy    <       0.00256068 Ry

     total charge of GC-SCF    =      -1.49202454 e
     the Fermi energy          =      -2.05019605 eV
                        (error :       0.39619605 eV)
     electrostatic embedding   =      -0.43450048 Ry
     cavitation energy         =       0.01925773 Ry
     electrolyte free energy   =      -0.00384550 Ry
     correction to one-el term =      50.91552793 Ry

     iteration # 21     ecut=    80.00 Ry     beta= 0.20
     Davidson diagonalization with overlap

---- Real-time Memory Report at c_bands before calling an iterative solver
           379 MiB given to the printing process from OS
             0 MiB allocation reported by mallinfo(arena+hblkhd)
        219484 MiB available memory on the node where the printing process lives
------------------
     ethr =  9.48E-07,  avg # of iterations = 13.6

     negative rho (up, down):  9.503E-04 0.000E+00

     add environment contribution to local potential

     total cpu time spent up to now is      771.3 secs

     total energy              =    -481.36254077 Ry
     estimated scf accuracy    <       0.00176562 Ry

     total charge of GC-SCF    =      -1.30137687 e
     the Fermi energy          =      -2.34303354 eV
                        (error :       0.68903354 eV)
     electrostatic embedding   =      -0.55537705 Ry
     cavitation energy         =       0.01925773 Ry
     electrolyte free energy   =      -0.00388631 Ry
     correction to one-el term =      54.74708431 Ry

     iteration # 22     ecut=    80.00 Ry     beta= 0.20
     Davidson diagonalization with overlap

---- Real-time Memory Report at c_bands before calling an iterative solver
           379 MiB given to the printing process from OS
             0 MiB allocation reported by mallinfo(arena+hblkhd)
        219483 MiB available memory on the node where the printing process lives
------------------
     ethr =  9.48E-07,  avg # of iterations =  9.5

     negative rho (up, down):  1.253E-03 0.000E+00

     add environment contribution to local potential

     total cpu time spent up to now is      791.2 secs

     total energy              =    -481.33478534 Ry
     estimated scf accuracy    <       0.00069444 Ry

     total charge of GC-SCF    =      -1.20868296 e
     the Fermi energy          =      -2.30578494 eV
                        (error :       0.65178494 eV)
     electrostatic embedding   =      -0.43744398 Ry
     cavitation energy         =       0.01925773 Ry
     electrolyte free energy   =      -0.00282943 Ry
     correction to one-el term =      49.14231781 Ry

     iteration # 23     ecut=    80.00 Ry     beta= 0.20
     Davidson diagonalization with overlap

---- Real-time Memory Report at c_bands before calling an iterative solver
           379 MiB given to the printing process from OS
             0 MiB allocation reported by mallinfo(arena+hblkhd)
        219473 MiB available memory on the node where the printing process lives
------------------
     ethr =  7.14E-07,  avg # of iterations =  8.3

     negative rho (up, down):  4.448E-03 0.000E+00

     add environment contribution to local potential

     total cpu time spent up to now is      811.2 secs

     total energy              =    -481.25905713 Ry
     estimated scf accuracy    <       0.00100560 Ry

     total charge of GC-SCF    =      -1.55435870 e
     the Fermi energy          =      -2.32381689 eV
                        (error :       0.66981689 eV)
     electrostatic embedding   =      -0.39064718 Ry
     cavitation energy         =       0.01925773 Ry
     electrolyte free energy   =      -0.00245995 Ry
     correction to one-el term =      46.60723417 Ry

     iteration # 24     ecut=    80.00 Ry     beta= 0.20
     Davidson diagonalization with overlap

---- Real-time Memory Report at c_bands before calling an iterative solver
           379 MiB given to the printing process from OS
             0 MiB allocation reported by mallinfo(arena+hblkhd)
        219415 MiB available memory on the node where the printing process lives
------------------
     ethr =  7.14E-07,  avg # of iterations = 17.4

     negative rho (up, down):  4.924E-03 0.000E+00

     add environment contribution to local potential

     total cpu time spent up to now is      840.2 secs

     total energy              =    -481.31007643 Ry
     estimated scf accuracy    <       0.00223457 Ry

     total charge of GC-SCF    =      -1.60663065 e
     the Fermi energy          =      -2.04289140 eV
                        (error :       0.38889140 eV)
     electrostatic embedding   =      -0.59864831 Ry
     cavitation energy         =       0.01925773 Ry
     electrolyte free energy   =      -0.00529007 Ry
     correction to one-el term =      58.90089502 Ry

     iteration # 25     ecut=    80.00 Ry     beta= 0.20
     Davidson diagonalization with overlap

---- Real-time Memory Report at c_bands before calling an iterative solver
           379 MiB given to the printing process from OS
             0 MiB allocation reported by mallinfo(arena+hblkhd)
        219415 MiB available memory on the node where the printing process lives
------------------
     ethr =  7.14E-07,  avg # of iterations =  6.4

     negative rho (up, down):  3.095E-03 0.000E+00

     add environment contribution to local potential

     total cpu time spent up to now is      856.8 secs

     total energy              =    -481.29025341 Ry
     estimated scf accuracy    <       0.00161823 Ry

     total charge of GC-SCF    =      -1.85188568 e
     the Fermi energy          =      -2.06975984 eV
                        (error :       0.41575984 eV)
     electrostatic embedding   =      -0.63189409 Ry
     cavitation energy         =       0.01925773 Ry
     electrolyte free energy   =      -0.00547096 Ry
     correction to one-el term =      60.23138976 Ry

     iteration # 26     ecut=    80.00 Ry     beta= 0.20
     Davidson diagonalization with overlap

---- Real-time Memory Report at c_bands before calling an iterative solver
           379 MiB given to the printing process from OS
             0 MiB allocation reported by mallinfo(arena+hblkhd)
        219417 MiB available memory on the node where the printing process lives
------------------
     ethr =  7.14E-07,  avg # of iterations = 10.2

     negative rho (up, down):  1.888E-03 0.000E+00

     add environment contribution to local potential

     total cpu time spent up to now is      881.2 secs

     total energy              =    -481.37061152 Ry
     estimated scf accuracy    <       0.00037808 Ry

     total charge of GC-SCF    =      -1.70088003 e
     the Fermi energy          =      -2.20369865 eV
                        (error :       0.54969865 eV)
     electrostatic embedding   =      -0.78618563 Ry
     cavitation energy         =       0.01925773 Ry
     electrolyte free energy   =      -0.00642690 Ry
     correction to one-el term =      64.79129022 Ry

     iteration # 27     ecut=    80.00 Ry     beta= 0.20
     Davidson diagonalization with overlap

---- Real-time Memory Report at c_bands before calling an iterative solver
           379 MiB given to the printing process from OS
             0 MiB allocation reported by mallinfo(arena+hblkhd)
        219429 MiB available memory on the node where the printing process lives
------------------
     ethr =  3.87E-07,  avg # of iterations =  9.7

     negative rho (up, down):  1.984E-03 0.000E+00

     add environment contribution to local potential

     total cpu time spent up to now is      903.3 secs

     total energy              =    -481.32082023 Ry
     estimated scf accuracy    <       0.00031445 Ry

     total charge of GC-SCF    =      -1.79386825 e
     the Fermi energy          =      -2.25810074 eV
                        (error :       0.60410074 eV)
     electrostatic embedding   =      -0.67455872 Ry
     cavitation energy         =       0.01925773 Ry
     electrolyte free energy   =      -0.00508035 Ry
     correction to one-el term =      59.85759359 Ry

     iteration # 28     ecut=    80.00 Ry     beta= 0.20
     Davidson diagonalization with overlap

---- Real-time Memory Report at c_bands before calling an iterative solver
           379 MiB given to the printing process from OS
             0 MiB allocation reported by mallinfo(arena+hblkhd)
        219433 MiB available memory on the node where the printing process lives
------------------
     ethr =  3.22E-07,  avg # of iterations =  8.8

     negative rho (up, down):  2.199E-03 0.000E+00

     add environment contribution to local potential

     total cpu time spent up to now is      923.7 secs

     total energy              =    -481.32454540 Ry
     estimated scf accuracy    <       0.00036363 Ry

     total charge of GC-SCF    =      -1.90066986 e
     the Fermi energy          =      -2.20668593 eV
                        (error :       0.55268593 eV)
     electrostatic embedding   =      -0.74216786 Ry
     cavitation energy         =       0.01925773 Ry
     electrolyte free energy   =      -0.00596275 Ry
     correction to one-el term =      63.07361924 Ry

     iteration # 29     ecut=    80.00 Ry     beta= 0.20
     Davidson diagonalization with overlap

---- Real-time Memory Report at c_bands before calling an iterative solver
           379 MiB given to the printing process from OS
             0 MiB allocation reported by mallinfo(arena+hblkhd)
        219409 MiB available memory on the node where the printing process lives
------------------
     ethr =  3.22E-07,  avg # of iterations =  7.8

     negative rho (up, down):  1.267E-03 0.000E+00

     add environment contribution to local potential

     total cpu time spent up to now is      943.1 secs

     total energy              =    -481.31484176 Ry
     estimated scf accuracy    <       0.00025070 Ry

     total charge of GC-SCF    =      -2.14666887 e
     the Fermi energy          =      -2.23633635 eV
                        (error :       0.58233635 eV)
     electrostatic embedding   =      -0.82114197 Ry
     cavitation energy         =       0.01925773 Ry
     electrolyte free energy   =      -0.00673712 Ry
     correction to one-el term =      65.76866091 Ry

     iteration # 30     ecut=    80.00 Ry     beta= 0.20
     Davidson diagonalization with overlap

---- Real-time Memory Report at c_bands before calling an iterative solver
           379 MiB given to the printing process from OS
             0 MiB allocation reported by mallinfo(arena+hblkhd)
        219414 MiB available memory on the node where the printing process lives
------------------
     ethr =  2.55E-07,  avg # of iterations = 10.1

     negative rho (up, down):  6.247E-04 0.000E+00

     add environment contribution to local potential

     total cpu time spent up to now is      968.1 secs

     total energy              =    -481.33034911 Ry
     estimated scf accuracy    <       0.00037023 Ry

     total charge of GC-SCF    =      -2.34716926 e
     the Fermi energy          =      -2.15067128 eV
                        (error :       0.49667128 eV)
     electrostatic embedding   =      -1.01806226 Ry
     cavitation energy         =       0.01925773 Ry
     electrolyte free energy   =      -0.00957281 Ry
     correction to one-el term =      73.37748492 Ry

     iteration # 31     ecut=    80.00 Ry     beta= 0.20
     Davidson diagonalization with overlap

---- Real-time Memory Report at c_bands before calling an iterative solver
           379 MiB given to the printing process from OS
             0 MiB allocation reported by mallinfo(arena+hblkhd)
        219381 MiB available memory on the node where the printing process lives
------------------
     ethr =  2.55E-07,  avg # of iterations = 10.1

     negative rho (up, down):  3.181E-04 0.000E+00

     add environment contribution to local potential

     total cpu time spent up to now is      992.3 secs

     total energy              =    -481.41372648 Ry
     estimated scf accuracy    <       0.00028592 Ry

     total charge of GC-SCF    =      -3.44328708 e
     the Fermi energy          =      -2.13349356 eV
                        (error :       0.47949356 eV)
     electrostatic embedding   =      -1.18649916 Ry
     cavitation energy         =       0.01925773 Ry
     electrolyte free energy   =      -0.01212988 Ry
     correction to one-el term =      78.56758494 Ry

     iteration # 32     ecut=    80.00 Ry     beta= 0.20
     Davidson diagonalization with overlap

---- Real-time Memory Report at c_bands before calling an iterative solver
           379 MiB given to the printing process from OS
             0 MiB allocation reported by mallinfo(arena+hblkhd)
        219380 MiB available memory on the node where the printing process lives
------------------
     ethr =  2.55E-07,  avg # of iterations = 15.1

     negative rho (up, down):  2.734E-04 0.000E+00

     add environment contribution to local potential

     total cpu time spent up to now is     1022.6 secs

     total energy              =    -481.41352222 Ry
     estimated scf accuracy    <       0.00044127 Ry

     total charge of GC-SCF    =      -3.13177990 e
     the Fermi energy          =      -1.80450618 eV
                        (error :       0.15050618 eV)
     electrostatic embedding   =      -2.38516276 Ry
     cavitation energy         =       0.01925773 Ry
     electrolyte free energy   =      -0.03816403 Ry
     correction to one-el term =     111.05143294 Ry

     iteration # 33     ecut=    80.00 Ry     beta= 0.20
     Davidson diagonalization with overlap

---- Real-time Memory Report at c_bands before calling an iterative solver
           379 MiB given to the printing process from OS
             0 MiB allocation reported by mallinfo(arena+hblkhd)
        219387 MiB available memory on the node where the printing process lives
------------------
     ethr =  2.55E-07,  avg # of iterations = 12.0

     negative rho (up, down):  2.555E-04 0.000E+00

     add environment contribution to local potential

     total cpu time spent up to now is     1048.8 secs

     total energy              =    -481.47330167 Ry
     estimated scf accuracy    <       0.00029066 Ry

     total charge of GC-SCF    =      -4.16606515 e
     the Fermi energy          =      -2.03149713 eV
                        (error :       0.37749713 eV)
     electrostatic embedding   =      -1.98374399 Ry
     cavitation energy         =       0.01925773 Ry
     electrolyte free energy   =      -0.02789299 Ry
     correction to one-el term =     100.04612247 Ry

     iteration # 34     ecut=    80.00 Ry     beta= 0.20
     Davidson diagonalization with overlap

---- Real-time Memory Report at c_bands before calling an iterative solver
           379 MiB given to the printing process from OS
             0 MiB allocation reported by mallinfo(arena+hblkhd)
        219348 MiB available memory on the node where the printing process lives
------------------
     ethr =  2.55E-07,  avg # of iterations = 17.7

     negative rho (up, down):  2.545E-04 0.000E+00

     add environment contribution to local potential

     total cpu time spent up to now is     1081.4 secs

     total energy              =    -481.43181847 Ry
     estimated scf accuracy    <       0.00085276 Ry

     total charge of GC-SCF    =      -3.69255480 e
     the Fermi energy          =      -1.59080924 eV
                        (error :       0.06319076 eV)
     electrostatic embedding   =      -3.35809347 Ry
     cavitation energy         =       0.01925773 Ry
     electrolyte free energy   =      -0.06725250 Ry
     correction to one-el term =     130.21053551 Ry

     iteration # 35     ecut=    80.00 Ry     beta= 0.20
     Davidson diagonalization with overlap

---- Real-time Memory Report at c_bands before calling an iterative solver
           379 MiB given to the printing process from OS
             0 MiB allocation reported by mallinfo(arena+hblkhd)
        219349 MiB available memory on the node where the printing process lives
------------------
     ethr =  2.55E-07,  avg # of iterations = 10.3

     negative rho (up, down):  2.504E-04 0.000E+00

     add environment contribution to local potential

     total cpu time spent up to now is     1106.8 secs

     total energy              =    -481.38270400 Ry
     estimated scf accuracy    <       0.00011475 Ry

     total charge of GC-SCF    =      -3.75888049 e
     the Fermi energy          =      -1.80565713 eV
                        (error :       0.15165713 eV)
     electrostatic embedding   =      -2.68137899 Ry
     cavitation energy         =       0.01925773 Ry
     electrolyte free energy   =      -0.04632159 Ry
     correction to one-el term =     116.27824251 Ry

     iteration # 36     ecut=    80.00 Ry     beta= 0.20
     Davidson diagonalization with overlap

---- Real-time Memory Report at c_bands before calling an iterative solver
           379 MiB given to the printing process from OS
             0 MiB allocation reported by mallinfo(arena+hblkhd)
        219346 MiB available memory on the node where the printing process lives
------------------
     ethr =  1.15E-07,  avg # of iterations =  5.6

     negative rho (up, down):  2.446E-04 0.000E+00

     add environment contribution to local potential

     total cpu time spent up to now is     1124.2 secs

     total energy              =    -481.39211643 Ry
     estimated scf accuracy    <       0.00008934 Ry

     total charge of GC-SCF    =      -3.66078176 e
     the Fermi energy          =      -1.79317231 eV
                        (error :       0.13917231 eV)
     electrostatic embedding   =      -2.77060523 Ry
     cavitation energy         =       0.01925773 Ry
     electrolyte free energy   =      -0.04883762 Ry
     correction to one-el term =     118.09079696 Ry

     iteration # 37     ecut=    80.00 Ry     beta= 0.20
     Davidson diagonalization with overlap

---- Real-time Memory Report at c_bands before calling an iterative solver
           379 MiB given to the printing process from OS
             0 MiB allocation reported by mallinfo(arena+hblkhd)
        219350 MiB available memory on the node where the printing process lives
------------------
     ethr =  8.96E-08,  avg # of iterations =  7.6

     negative rho (up, down):  2.424E-04 0.000E+00

     add environment contribution to local potential

     total cpu time spent up to now is     1144.5 secs

     total energy              =    -481.38206701 Ry
     estimated scf accuracy    <       0.00010098 Ry

     total charge of GC-SCF    =      -3.74036190 e
     the Fermi energy          =      -1.82324241 eV
                        (error :       0.16924241 eV)
     electrostatic embedding   =      -2.63447043 Ry
     cavitation energy         =       0.01925773 Ry
     electrolyte free energy   =      -0.04503538 Ry
     correction to one-el term =     115.04107249 Ry

     iteration # 38     ecut=    80.00 Ry     beta= 0.20
     Davidson diagonalization with overlap

---- Real-time Memory Report at c_bands before calling an iterative solver
           379 MiB given to the printing process from OS
             0 MiB allocation reported by mallinfo(arena+hblkhd)
        219362 MiB available memory on the node where the printing process lives
------------------
     ethr =  8.96E-08,  avg # of iterations =  6.7

     negative rho (up, down):  2.568E-04 0.000E+00

     add environment contribution to local potential

     total cpu time spent up to now is     1163.8 secs

     total energy              =    -481.39903982 Ry
     estimated scf accuracy    <       0.00008263 Ry

     total charge of GC-SCF    =      -4.18157907 e
     the Fermi energy          =      -1.80474397 eV
                        (error :       0.15074397 eV)
     electrostatic embedding   =      -2.74035620 Ry
     cavitation energy         =       0.01925773 Ry
     electrolyte free energy   =      -0.04803015 Ry
     correction to one-el term =     117.20284355 Ry

     iteration # 39     ecut=    80.00 Ry     beta= 0.20
     Davidson diagonalization with overlap

---- Real-time Memory Report at c_bands before calling an iterative solver
           379 MiB given to the printing process from OS
             0 MiB allocation reported by mallinfo(arena+hblkhd)
        219363 MiB available memory on the node where the printing process lives
------------------
     ethr =  8.25E-08,  avg # of iterations = 12.1

     negative rho (up, down):  2.664E-04 0.000E+00

     add environment contribution to local potential

     total cpu time spent up to now is     1190.6 secs

     total energy              =    -481.39415318 Ry
     estimated scf accuracy    <       0.00022606 Ry

     total charge of GC-SCF    =      -3.99542105 e
     the Fermi energy          =      -1.63025456 eV
                        (error :       0.02374544 eV)
     electrostatic embedding   =      -3.36938060 Ry
     cavitation energy         =       0.01925773 Ry
     electrolyte free energy   =      -0.06772257 Ry
     correction to one-el term =     129.95021312 Ry

     iteration # 40     ecut=    80.00 Ry     beta= 0.20
     Davidson diagonalization with overlap

---- Real-time Memory Report at c_bands before calling an iterative solver
           379 MiB given to the printing process from OS
             0 MiB allocation reported by mallinfo(arena+hblkhd)
        219334 MiB available memory on the node where the printing process lives
------------------
     ethr =  8.25E-08,  avg # of iterations = 10.9

     negative rho (up, down):  2.651E-04 0.000E+00

     add environment contribution to local potential

     total cpu time spent up to now is     1216.3 secs

     total energy              =    -481.38832703 Ry
     estimated scf accuracy    <       0.00001487 Ry

     total charge of GC-SCF    =      -4.16319714 e
     the Fermi energy          =      -1.75008174 eV
                        (error :       0.09608174 eV)
     electrostatic embedding   =      -3.07198626 Ry
     cavitation energy         =       0.01925773 Ry
     electrolyte free energy   =      -0.05843225 Ry
     correction to one-el term =     123.13928878 Ry

     iteration # 41     ecut=    80.00 Ry     beta= 0.20
     Davidson diagonalization with overlap

---- Real-time Memory Report at c_bands before calling an iterative solver
           379 MiB given to the printing process from OS
             0 MiB allocation reported by mallinfo(arena+hblkhd)
        219328 MiB available memory on the node where the printing process lives
------------------
     ethr =  1.48E-08,  avg # of iterations = 11.0

     negative rho (up, down):  2.522E-04 0.000E+00

     add environment contribution to local potential

     total cpu time spent up to now is     1242.3 secs

     total energy              =    -481.38892672 Ry
     estimated scf accuracy    <       0.00001102 Ry

     total charge of GC-SCF    =      -4.14966691 e
     the Fermi energy          =      -1.69598085 eV
                        (error :       0.04198085 eV)
     electrostatic embedding   =      -3.31196714 Ry
     cavitation energy         =       0.01925773 Ry
     electrolyte free energy   =      -0.06629867 Ry
     correction to one-el term =     127.68559771 Ry

     iteration # 42     ecut=    80.00 Ry     beta= 0.20
     Davidson diagonalization with overlap

---- Real-time Memory Report at c_bands before calling an iterative solver
           379 MiB given to the printing process from OS
             0 MiB allocation reported by mallinfo(arena+hblkhd)
        219329 MiB available memory on the node where the printing process lives
------------------
     ethr =  1.10E-08,  avg # of iterations = 10.3

     negative rho (up, down):  2.507E-04 0.000E+00

     add environment contribution to local potential

     total cpu time spent up to now is     1268.6 secs

     total energy              =    -481.38893371 Ry
     estimated scf accuracy    <       0.00000537 Ry

     total charge of GC-SCF    =      -4.25081463 e
     the Fermi energy          =      -1.70908001 eV
                        (error :       0.05508001 eV)
     electrostatic embedding   =      -3.28241144 Ry
     cavitation energy         =       0.01925773 Ry
     electrolyte free energy   =      -0.06553284 Ry
     correction to one-el term =     126.81423619 Ry

     iteration # 43     ecut=    80.00 Ry     beta= 0.20
     Davidson diagonalization with overlap

---- Real-time Memory Report at c_bands before calling an iterative solver
           379 MiB given to the printing process from OS
             0 MiB allocation reported by mallinfo(arena+hblkhd)
        219327 MiB available memory on the node where the printing process lives
------------------
     ethr =  5.36E-09,  avg # of iterations =  9.9

     negative rho (up, down):  2.494E-04 0.000E+00

     add environment contribution to local potential

     total cpu time spent up to now is     1293.9 secs

     total energy              =    -481.38876997 Ry
     estimated scf accuracy    <       0.00000332 Ry

     total charge of GC-SCF    =      -4.26966773 e
     the Fermi energy          =      -1.67495176 eV
                        (error :       0.02095176 eV)
     electrostatic embedding   =      -3.42951462 Ry
     cavitation energy         =       0.01925773 Ry
     electrolyte free energy   =      -0.07059724 Ry
     correction to one-el term =     129.49815097 Ry

     iteration # 44     ecut=    80.00 Ry     beta= 0.20
     Davidson diagonalization with overlap

---- Real-time Memory Report at c_bands before calling an iterative solver
           379 MiB given to the printing process from OS
             0 MiB allocation reported by mallinfo(arena+hblkhd)
        219299 MiB available memory on the node where the printing process lives
------------------
     ethr =  3.31E-09,  avg # of iterations =  8.1

     negative rho (up, down):  2.487E-04 0.000E+00

     add environment contribution to local potential

     total cpu time spent up to now is     1316.5 secs

     total energy              =    -481.38886106 Ry
     estimated scf accuracy    <       0.00000202 Ry

     total charge of GC-SCF    =      -4.30280223 e
     the Fermi energy          =      -1.66968539 eV
                        (error :       0.01568539 eV)
     electrostatic embedding   =      -3.45444472 Ry
     cavitation energy         =       0.01925773 Ry
     electrolyte free energy   =      -0.07155146 Ry
     correction to one-el term =     129.86748561 Ry

     iteration # 45     ecut=    80.00 Ry     beta= 0.20
     Davidson diagonalization with overlap

---- Real-time Memory Report at c_bands before calling an iterative solver
           379 MiB given to the printing process from OS
             0 MiB allocation reported by mallinfo(arena+hblkhd)
        219311 MiB available memory on the node where the printing process lives
------------------
     ethr =  2.02E-09,  avg # of iterations = 10.0

     negative rho (up, down):  2.462E-04 0.000E+00

     add environment contribution to local potential

     total cpu time spent up to now is     1342.1 secs

     total energy              =    -481.38907272 Ry
     estimated scf accuracy    <       0.00000065 Ry

     total charge of GC-SCF    =      -4.34437960 e
     the Fermi energy          =      -1.66308016 eV
                        (error :       0.00908016 eV)
     electrostatic embedding   =      -3.49711574 Ry
     cavitation energy         =       0.01925773 Ry
     electrolyte free energy   =      -0.07322742 Ry
     correction to one-el term =     130.42905565 Ry

     iteration # 46     ecut=    80.00 Ry     beta= 0.20
     Davidson diagonalization with overlap

---- Real-time Memory Report at c_bands before calling an iterative solver
           379 MiB given to the printing process from OS
             0 MiB allocation reported by mallinfo(arena+hblkhd)
        219296 MiB available memory on the node where the printing process lives
------------------
     ethr =  6.52E-10,  avg # of iterations = 13.2

     negative rho (up, down):  2.461E-04 0.000E+00

     add environment contribution to local potential

     total cpu time spent up to now is     1369.6 secs

     total energy              =    -481.38890196 Ry
     estimated scf accuracy    <       0.00000068 Ry

     total charge of GC-SCF    =      -4.32277575 e
     the Fermi energy          =      -1.64763639 eV
                        (error :       0.00636361 eV)
     electrostatic embedding   =      -3.55740119 Ry
     cavitation energy         =       0.01925773 Ry
     electrolyte free energy   =      -0.07546069 Ry
     correction to one-el term =     131.50531662 Ry

     iteration # 47     ecut=    80.00 Ry     beta= 0.20
     Davidson diagonalization with overlap

---- Real-time Memory Report at c_bands before calling an iterative solver
           379 MiB given to the printing process from OS
             0 MiB allocation reported by mallinfo(arena+hblkhd)
        219291 MiB available memory on the node where the printing process lives
------------------
     ethr =  6.52E-10,  avg # of iterations =  9.4

     negative rho (up, down):  2.448E-04 0.000E+00

     add environment contribution to local potential

     total cpu time spent up to now is     1395.2 secs

     total energy              =    -481.38890448 Ry
     estimated scf accuracy    <       0.00000025 Ry

     total charge of GC-SCF    =      -4.33965760 e
     the Fermi energy          =      -1.65667268 eV
                        (error :       0.00267268 eV)
     electrostatic embedding   =      -3.52192457 Ry
     cavitation energy         =       0.01925773 Ry
     electrolyte free energy   =      -0.07426869 Ry
     correction to one-el term =     130.79640666 Ry

     iteration # 48     ecut=    80.00 Ry     beta= 0.20
     Davidson diagonalization with overlap

---- Real-time Memory Report at c_bands before calling an iterative solver
           379 MiB given to the printing process from OS
             0 MiB allocation reported by mallinfo(arena+hblkhd)
        219289 MiB available memory on the node where the printing process lives
------------------
     ethr =  2.46E-10,  avg # of iterations = 10.8

     negative rho (up, down):  2.442E-04 0.000E+00

     add environment contribution to local potential

     total cpu time spent up to now is     1420.9 secs

     total energy              =    -481.38886767 Ry
     estimated scf accuracy    <       0.00000012 Ry

     total charge of GC-SCF    =      -4.33910419 e
     the Fermi energy          =      -1.65220118 eV
                        (error :       0.00179882 eV)
     electrostatic embedding   =      -3.54492971 Ry
     cavitation energy         =       0.01925773 Ry
     electrolyte free energy   =      -0.07515823 Ry
     correction to one-el term =     131.13837881 Ry

     iteration # 49     ecut=    80.00 Ry     beta= 0.20
     Davidson diagonalization with overlap

---- Real-time Memory Report at c_bands before calling an iterative solver
           379 MiB given to the printing process from OS
             0 MiB allocation reported by mallinfo(arena+hblkhd)
        219207 MiB available memory on the node where the printing process lives
------------------
     ethr =  1.15E-10,  avg # of iterations =  8.2

     negative rho (up, down):  2.443E-04 0.000E+00

     total cpu time spent up to now is     1438.4 secs

     End of self-consistent calculation

          k = 0.0000 0.0000 0.0000 (201165 PWs)   bands (ev):

   -48.6173 -48.6167 -48.6157 -48.6157 -48.6151 -48.6151 -48.6143 -48.6137
   -48.2110 -48.2080 -48.2058 -48.2043 -48.2043 -48.2036 -48.2036 -48.2028
   -48.2021 -48.1980 -48.1980 -48.1975 -48.1975 -48.1965 -48.1960 -48.1934
   -48.1769 -48.1769 -48.1760 -48.1760 -48.1754 -48.1745 -48.1741 -48.1728
    -5.1411  -4.8274  -4.3686  -3.8116  -3.2000  -2.7210  -2.7210  -2.7209
    -2.7209  -2.4971  -2.4186  -2.4186  -2.4186  -2.4186  -2.0057  -2.0057
    -2.0056  -2.0056  -1.6190  -1.6190  -1.6188  -1.6188  -1.6150  -1.2642
    -1.2642  -0.8120  -0.8120  -0.7975  -0.3205  -0.2729  -0.2729  -0.2726
    -0.2726  -0.1032  -0.1032  -0.0751   0.0252   0.3001   0.3270   0.8011

     occupation numbers 
     1.0000   1.0000   1.0000   1.0000   1.0000   1.0000   1.0000   1.0000
     1.0000   1.0000   1.0000   1.0000   1.0000   1.0000   1.0000   1.0000
     1.0000   1.0000   1.0000   1.0000   1.0000   1.0000   1.0000   1.0000
     1.0000   1.0000   1.0000   1.0000   1.0000   1.0000   1.0000   1.0000
     1.0000   1.0000   1.0000   1.0000   1.0000   1.0000   1.0000   1.0000
     1.0000   1.0000   1.0000   1.0000   1.0000   1.0000   1.0076   1.0076
     1.0077   1.0077   0.2465   0.2465   0.2457   0.2457   0.2312   0.0000
     0.0000   0.0000   0.0000   0.0000   0.0000   0.0000   0.0000   0.0000
     0.0000   0.0000   0.0000   0.0000   0.0000   0.0000   0.0000   0.0000

          k = 0.0000 0.1000 0.0000 (201189 PWs)   bands (ev):

   -48.6172 -48.6166 -48.6158 -48.6157 -48.6152 -48.6151 -48.6143 -48.6137
   -48.2108 -48.2079 -48.2058 -48.2044 -48.2043 -48.2037 -48.2035 -48.2028
   -48.2021 -48.1992 -48.1979 -48.1975 -48.1965 -48.1965 -48.1960 -48.1934
   -48.1769 -48.1768 -48.1760 -48.1759 -48.1755 -48.1746 -48.1741 -48.1729
    -5.1172  -4.8033  -4.3437  -3.7855  -3.1854  -3.1732  -2.8717  -2.6983
    -2.6983  -2.4707  -2.4187  -2.3944  -2.3944  -2.2069  -1.9785  -1.9785
    -1.9302  -1.9140  -1.5900  -1.5886  -1.5884  -1.5864  -1.5267  -1.3310
    -1.3310  -0.8910  -0.8910  -0.7712  -0.3226  -0.3024  -0.2919  -0.2454
    -0.2451  -0.2112  -0.2112  -0.0435   0.0557   0.3288   0.3576   0.6417

     occupation numbers 
     1.0000   1.0000   1.0000   1.0000   1.0000   1.0000   1.0000   1.0000
     1.0000   1.0000   1.0000   1.0000   1.0000   1.0000   1.0000   1.0000
     1.0000   1.0000   1.0000   1.0000   1.0000   1.0000   1.0000   1.0000
     1.0000   1.0000   1.0000   1.0000   1.0000   1.0000   1.0000   1.0000
     1.0000   1.0000   1.0000   1.0000   1.0000   1.0000   1.0000   1.0000
     1.0000   1.0000   1.0000   1.0000   1.0000   1.0000   1.0148   1.0148
     1.0382   1.0488   0.1495   0.1457   0.1452   0.1399   0.0376   0.0000
     0.0000   0.0000   0.0000   0.0000   0.0000   0.0000   0.0000   0.0000
     0.0000   0.0000   0.0000   0.0000   0.0000   0.0000   0.0000   0.0000

          k = 0.0000 0.2000 0.0000 (201103 PWs)   bands (ev):

   -48.6171 -48.6165 -48.6159 -48.6156 -48.6153 -48.6150 -48.6144 -48.6138
   -48.2103 -48.2076 -48.2055 -48.2047 -48.2042 -48.2040 -48.2034 -48.2029
   -48.2022 -48.2006 -48.1978 -48.1974 -48.1966 -48.1961 -48.1955 -48.1935
   -48.1768 -48.1766 -48.1759 -48.1757 -48.1756 -48.1747 -48.1743 -48.1731
    -5.0457  -4.7307  -4.2690  -3.7076  -3.5995  -3.2804  -3.0930  -2.8111
    -2.6307  -2.6306  -2.3918  -2.3219  -2.3219  -2.2506  -1.8975  -1.8975
    -1.7108  -1.6456  -1.5155  -1.5030  -1.5030  -1.4975  -1.4973  -1.3867
    -1.3177  -1.0897  -1.0897  -0.6937  -0.4671  -0.4671  -0.3874  -0.3305
    -0.2073  -0.1634  -0.1632   0.0513   0.1467   0.2481   0.2482   0.4139

     occupation numbers 
     1.0000   1.0000   1.0000   1.0000   1.0000   1.0000   1.0000   1.0000
     1.0000   1.0000   1.0000   1.0000   1.0000   1.0000   1.0000   1.0000
     1.0000   1.0000   1.0000   1.0000   1.0000   1.0000   1.0000   1.0000
     1.0000   1.0000   1.0000   1.0000   1.0000   1.0000   1.0000   1.0000
     1.0000   1.0000   1.0000   1.0000   1.0000   1.0000   1.0000   1.0000
     1.0000   1.0000   1.0000   1.0000   1.0000   1.0000   1.0602   1.0602
     0.7119   0.3628   0.0282   0.0202   0.0202   0.0173   0.0172   0.0004
     0.0000   0.0000   0.0000   0.0000   0.0000   0.0000   0.0000   0.0000
     0.0000   0.0000   0.0000   0.0000   0.0000   0.0000   0.0000   0.0000

          k = 0.0000 0.3000 0.0000 (201139 PWs)   bands (ev):

   -48.6170 -48.6164 -48.6160 -48.6154 -48.6154 -48.6148 -48.6146 -48.6140
   -48.2095 -48.2072 -48.2053 -48.2052 -48.2045 -48.2040 -48.2033 -48.2031
   -48.2024 -48.2020 -48.1977 -48.1972 -48.1968 -48.1963 -48.1948 -48.1935
   -48.1766 -48.1762 -48.1757 -48.1757 -48.1753 -48.1748 -48.1745 -48.1734
    -4.9262  -4.6098  -4.1448  -3.9635  -3.6424  -3.5784  -3.1674  -2.9602
    -2.5884  -2.5194  -2.5194  -2.2614  -2.2026  -2.2026  -1.9802  -1.7636
    -1.7636  -1.7266  -1.7266  -1.3939  -1.3843  -1.3460  -1.3458  -1.3407
    -1.3407  -1.0174  -0.9374  -0.7727  -0.7727  -0.5696  -0.3452  -0.2678
    -0.1630  -0.1628  -0.0716  -0.0280  -0.0277   0.2091   0.2957   0.5510

     occupation numbers 
     1.0000   1.0000   1.0000   1.0000   1.0000   1.0000   1.0000   1.0000
     1.0000   1.0000   1.0000   1.0000   1.0000   1.0000   1.0000   1.0000
     1.0000   1.0000   1.0000   1.0000   1.0000   1.0000   1.0000   1.0000
[...]
     atom   19 type  1   force =     0.00000000    0.00000000    0.00371972
     atom   20 type  1   force =     0.00000041   -0.00000041    0.00001142
     atom   21 type  1   force =     0.00000000    0.00000000   -0.00002761
     atom   22 type  1   force =    -0.00000098    0.00000098   -0.00366169
     atom   23 type  1   force =     0.00000000    0.00000000    0.03249129
     atom   24 type  1   force =     0.00000049   -0.00000049    0.00268755
     atom   25 type  1   force =     0.00000000    0.00000000   -0.00271197
     atom   26 type  1   force =    -0.00000006   -0.00000006   -0.03250901
     atom   27 type  1   force =     0.00000000    0.00000000    0.00371907
     atom   28 type  1   force =     0.00000041    0.00000041    0.00001142
     atom   29 type  1   force =     0.00000000    0.00000000   -0.00002735
     atom   30 type  1   force =    -0.00000098   -0.00000098   -0.00366169
     atom   31 type  1   force =     0.00000000    0.00000000    0.03249015
     atom   32 type  1   force =     0.00000049    0.00000049    0.00268755
     The ionic contribution  to forces
     atom    1 type  1   force =    -0.00000001   -0.00000001   -9.85199178
     atom    2 type  1   force =     0.00000044    0.00000044  -13.49061058
     atom    3 type  1   force =    -0.00000001   -0.00000001   -1.96230357
     atom    4 type  1   force =    -0.00000615   -0.00000615   -5.93375674
     atom    5 type  1   force =    -0.00000000   -0.00000000    5.93427410
     atom    6 type  1   force =     0.00001790    0.00001790    1.96303450
     atom    7 type  1   force =    -0.00000001   -0.00000001   13.48989679
     atom    8 type  1   force =    -0.00000811   -0.00000811    9.85142464
     atom    9 type  1   force =    -0.00000001    0.00000001   -9.85197014
     atom   10 type  1   force =     0.00000044   -0.00000044  -13.49061055
     atom   11 type  1   force =    -0.00000001    0.00000001   -1.96232300
     atom   12 type  1   force =    -0.00000615    0.00000616   -5.93375676
     atom   13 type  1   force =    -0.00000000   -0.00000000    5.93434500
     atom   14 type  1   force =     0.00001790   -0.00001789    1.96303449
     atom   15 type  1   force =    -0.00000001    0.00000001   13.48989263
     atom   16 type  1   force =    -0.00000811    0.00000812    9.85142467
     atom   17 type  1   force =     0.00000001   -0.00000001   -9.85197014
     atom   18 type  1   force =    -0.00000044    0.00000044  -13.49061055
     atom   19 type  1   force =     0.00000001   -0.00000001   -1.96232300
     atom   20 type  1   force =     0.00000616   -0.00000615   -5.93375676
     atom   21 type  1   force =    -0.00000000   -0.00000000    5.93434500
     atom   22 type  1   force =    -0.00001789    0.00001790    1.96303449
     atom   23 type  1   force =     0.00000001   -0.00000001   13.48989263
     atom   24 type  1   force =     0.00000812   -0.00000811    9.85142467
     atom   25 type  1   force =     0.00000001    0.00000001   -9.85198024
     atom   26 type  1   force =    -0.00000044   -0.00000044  -13.49061053
     atom   27 type  1   force =     0.00000001    0.00000001   -1.96234114
     atom   28 type  1   force =     0.00000616    0.00000616   -5.93375677
     atom   29 type  1   force =    -0.00000000   -0.00000000    5.93429357
     atom   30 type  1   force =    -0.00001789   -0.00001789    1.96303449
     atom   31 type  1   force =     0.00000001    0.00000001   13.48989592
     atom   32 type  1   force =     0.00000812    0.00000812    9.85142468
     The local contribution  to forces
     atom    1 type  1   force =     0.00000407    0.00000407    9.69927521
     atom    2 type  1   force =     0.00000417    0.00000417   13.34287078
     atom    3 type  1   force =     0.00000407    0.00000407    1.92826191
     atom    4 type  1   force =     0.00001095    0.00001095    5.84124892
     atom    5 type  1   force =     0.00000407    0.00000407   -5.84172114
     atom    6 type  1   force =    -0.00001384   -0.00001384   -1.92899684
     atom    7 type  1   force =     0.00000349    0.00000349  -13.34208137
     atom    8 type  1   force =     0.00001271    0.00001271   -9.69861912
     atom    9 type  1   force =     0.00000407    0.00000499    9.69925398
     atom   10 type  1   force =     0.00000417    0.00000524   13.34286959
     atom   11 type  1   force =     0.00000407    0.00000441    1.92827917
     atom   12 type  1   force =     0.00001095   -0.00000155    5.84124953
     atom   13 type  1   force =     0.00000407    0.00000383   -5.84179044
     atom   14 type  1   force =    -0.00001384    0.00002266   -1.92899684
     atom   15 type  1   force =     0.00000349    0.00000442  -13.34207751
     atom   16 type  1   force =     0.00001271   -0.00000390   -9.69861972
     atom   17 type  1   force =     0.00000499    0.00000407    9.69925398
     atom   18 type  1   force =     0.00000524    0.00000417   13.34286959
     atom   19 type  1   force =     0.00000441    0.00000407    1.92827917
     atom   20 type  1   force =    -0.00000155    0.00001095    5.84124953
     atom   21 type  1   force =     0.00000383    0.00000407   -5.84179044
     atom   22 type  1   force =     0.00002266   -0.00001384   -1.92899684
     atom   23 type  1   force =     0.00000442    0.00000349  -13.34207751
     atom   24 type  1   force =    -0.00000390    0.00001271   -9.69861972
     atom   25 type  1   force =     0.00000499    0.00000499    9.69926451
     atom   26 type  1   force =     0.00000524    0.00000524   13.34286899
     atom   27 type  1   force =     0.00000441    0.00000441    1.92829800
     atom   28 type  1   force =    -0.00000155   -0.00000155    5.84124953
     atom   29 type  1   force =     0.00000383    0.00000383   -5.84173884
     atom   30 type  1   force =     0.00002266    0.00002266   -1.92899684
     atom   31 type  1   force =     0.00000442    0.00000442  -13.34208003
     atom   32 type  1   force =    -0.00000390   -0.00000390   -9.69861972
     The core correction contribution to forces
     atom    1 type  1   force =     0.00000000    0.00000000    0.00000000
     atom    2 type  1   force =     0.00000000    0.00000000    0.00000000
     atom    3 type  1   force =     0.00000000    0.00000000    0.00000000
     atom    4 type  1   force =     0.00000000    0.00000000    0.00000000
     atom    5 type  1   force =     0.00000000    0.00000000    0.00000000
     atom    6 type  1   force =     0.00000000    0.00000000    0.00000000
     atom    7 type  1   force =     0.00000000    0.00000000    0.00000000
     atom    8 type  1   force =     0.00000000    0.00000000    0.00000000
     atom    9 type  1   force =     0.00000000    0.00000000    0.00000000
     atom   10 type  1   force =     0.00000000    0.00000000    0.00000000
     atom   11 type  1   force =     0.00000000    0.00000000    0.00000000
     atom   12 type  1   force =     0.00000000    0.00000000    0.00000000
     atom   13 type  1   force =     0.00000000    0.00000000    0.00000000
     atom   14 type  1   force =     0.00000000    0.00000000    0.00000000
     atom   15 type  1   force =     0.00000000    0.00000000    0.00000000
     atom   16 type  1   force =     0.00000000    0.00000000    0.00000000
     atom   17 type  1   force =     0.00000000    0.00000000    0.00000000
     atom   18 type  1   force =     0.00000000    0.00000000    0.00000000
     atom   19 type  1   force =     0.00000000    0.00000000    0.00000000
     atom   20 type  1   force =     0.00000000    0.00000000    0.00000000
     atom   21 type  1   force =     0.00000000    0.00000000    0.00000000
     atom   22 type  1   force =     0.00000000    0.00000000    0.00000000
     atom   23 type  1   force =     0.00000000    0.00000000    0.00000000
     atom   24 type  1   force =     0.00000000    0.00000000    0.00000000
     atom   25 type  1   force =     0.00000000    0.00000000    0.00000000
     atom   26 type  1   force =     0.00000000    0.00000000    0.00000000
     atom   27 type  1   force =     0.00000000    0.00000000    0.00000000
     atom   28 type  1   force =     0.00000000    0.00000000    0.00000000
     atom   29 type  1   force =     0.00000000    0.00000000    0.00000000
     atom   30 type  1   force =     0.00000000    0.00000000    0.00000000
     atom   31 type  1   force =     0.00000000    0.00000000    0.00000000
     atom   32 type  1   force =     0.00000000    0.00000000    0.00000000
     The Hubbard contrib.    to forces
     atom    1 type  1   force =     0.00000000    0.00000000    0.00000000
     atom    2 type  1   force =     0.00000000    0.00000000    0.00000000
     atom    3 type  1   force =     0.00000000    0.00000000    0.00000000
     atom    4 type  1   force =     0.00000000    0.00000000    0.00000000
     atom    5 type  1   force =     0.00000000    0.00000000    0.00000000
     atom    6 type  1   force =     0.00000000    0.00000000    0.00000000
     atom    7 type  1   force =     0.00000000    0.00000000    0.00000000
     atom    8 type  1   force =     0.00000000    0.00000000    0.00000000
     atom    9 type  1   force =     0.00000000    0.00000000    0.00000000
     atom   10 type  1   force =     0.00000000    0.00000000    0.00000000
     atom   11 type  1   force =     0.00000000    0.00000000    0.00000000
     atom   12 type  1   force =     0.00000000    0.00000000    0.00000000
     atom   13 type  1   force =     0.00000000    0.00000000    0.00000000
     atom   14 type  1   force =     0.00000000    0.00000000    0.00000000
     atom   15 type  1   force =     0.00000000    0.00000000    0.00000000
     atom   16 type  1   force =     0.00000000    0.00000000    0.00000000
     atom   17 type  1   force =     0.00000000    0.00000000    0.00000000
     atom   18 type  1   force =     0.00000000    0.00000000    0.00000000
     atom   19 type  1   force =     0.00000000    0.00000000    0.00000000
     atom   20 type  1   force =     0.00000000    0.00000000    0.00000000
     atom   21 type  1   force =     0.00000000    0.00000000    0.00000000
     atom   22 type  1   force =     0.00000000    0.00000000    0.00000000
     atom   23 type  1   force =     0.00000000    0.00000000    0.00000000
     atom   24 type  1   force =     0.00000000    0.00000000    0.00000000
     atom   25 type  1   force =     0.00000000    0.00000000    0.00000000
     atom   26 type  1   force =     0.00000000    0.00000000    0.00000000
     atom   27 type  1   force =     0.00000000    0.00000000    0.00000000
     atom   28 type  1   force =     0.00000000    0.00000000    0.00000000
     atom   29 type  1   force =     0.00000000    0.00000000    0.00000000
     atom   30 type  1   force =     0.00000000    0.00000000    0.00000000
     atom   31 type  1   force =     0.00000000    0.00000000    0.00000000
     atom   32 type  1   force =     0.00000000    0.00000000    0.00000000
     The SCF correction term to forces
     atom    1 type  1   force =    -0.00000000    0.00000000   -0.00000030
     atom    2 type  1   force =     0.00000002    0.00000002    0.00000010
     atom    3 type  1   force =    -0.00000000    0.00000000   -0.00000001
     atom    4 type  1   force =     0.00000005    0.00000005    0.00000013
     atom    5 type  1   force =     0.00000000   -0.00000000    0.00000030
     atom    6 type  1   force =     0.00000004    0.00000004    0.00000039
     atom    7 type  1   force =     0.00000000    0.00000000    0.00000031
     atom    8 type  1   force =     0.00000001    0.00000001    0.00000077
     atom    9 type  1   force =     0.00000000    0.00000000   -0.00000028
     atom   10 type  1   force =     0.00000002   -0.00000002    0.00000010
     atom   11 type  1   force =    -0.00000000    0.00000000   -0.00000001
     atom   12 type  1   force =     0.00000005   -0.00000005    0.00000013
     atom   13 type  1   force =    -0.00000000    0.00000000    0.00000027
     atom   14 type  1   force =     0.00000004   -0.00000004    0.00000039
     atom   15 type  1   force =     0.00000000   -0.00000000    0.00000033
     atom   16 type  1   force =     0.00000001   -0.00000001    0.00000077
     atom   17 type  1   force =    -0.00000000    0.00000000   -0.00000028
     atom   18 type  1   force =    -0.00000002    0.00000002    0.00000010
     atom   19 type  1   force =    -0.00000000    0.00000000   -0.00000001
     atom   20 type  1   force =    -0.00000005    0.00000005    0.00000013
     atom   21 type  1   force =     0.00000000    0.00000000    0.00000027
     atom   22 type  1   force =    -0.00000004    0.00000004    0.00000039
     atom   23 type  1   force =    -0.00000000   -0.00000000    0.00000033
     atom   24 type  1   force =    -0.00000001    0.00000001    0.00000077
     atom   25 type  1   force =     0.00000000    0.00000000   -0.00000027
     atom   26 type  1   force =    -0.00000002   -0.00000002    0.00000010
     atom   27 type  1   force =     0.00000000    0.00000000   -0.00000003
     atom   28 type  1   force =    -0.00000005   -0.00000005    0.00000013
     atom   29 type  1   force =     0.00000000    0.00000000    0.00000025
     atom   30 type  1   force =    -0.00000004   -0.00000004    0.00000039
     atom   31 type  1   force =    -0.00000000   -0.00000000    0.00000029
     atom   32 type  1   force =    -0.00000001   -0.00000001    0.00000077

     Total force =     0.001061     Total SCF correction =     0.000002
     Energy error            =      6.5E-06 Ry
     Gradient error          =      2.4E-04 Ry/Bohr

     bfgs converged in   3 scf cycles and   2 bfgs steps
     (criteria: energy <  1.0E-05 Ry, force <  3.9E-04 Ry/Bohr)

     End of BFGS Geometry Optimization

     Final energy             =    -481.3888719850 Ry

     File ./Li/Lithium.bfgs deleted, as requested
Begin final coordinates

ATOMIC_POSITIONS (angstrom)
Li              -0.0000000700       -0.0000000700       21.8131013036
Li               1.7175788476        1.7175788476       20.0141280499
Li              -0.0000000700       -0.0000000700       25.2626244603
Li               1.7175770812        1.7175770812       23.5174728801
Li              -0.0000000700       -0.0000000700       28.7235368920
Li               1.7175747795        1.7175747795       26.9768294624
Li              -0.0000000600       -0.0000000600       32.2282505926
Li               1.7175790642        1.7175790642       30.4284682319
Li              -0.0000000700        3.4351561600       21.8131172574
Li               1.7175788476        5.1527334824       20.0141280699
Li              -0.0000000700        3.4351561700       25.2625992441
Li               1.7175770812        5.1527352488       23.5174728701
Li              -0.0000000700        3.4351561800       28.7235925530
Li               1.7175747795        5.1527375605       26.9768294624
Li              -0.0000000600        3.4351561700       32.2282356928
Li               1.7175790642        5.1527332758       30.4284682419
Li               3.4351561600       -0.0000000700       21.8131172574
Li               5.1527334824        1.7175788476       20.0141280699
Li               3.4351561700       -0.0000000700       25.2625992441
Li               5.1527352488        1.7175770812       23.5174728701
Li               3.4351561800       -0.0000000700       28.7235925530
Li               5.1527375605        1.7175747795       26.9768294624
Li               3.4351561700       -0.0000000600       32.2282356928
Li               5.1527332758        1.7175790642       30.4284682419
Li               3.4351561600        3.4351561600       21.8131121234
Li               5.1527334824        5.1527334824       20.0141280799
Li               3.4351561700        3.4351561700       25.2625851866
Li               5.1527352488        5.1527352488       23.5174728701
Li               3.4351561800        3.4351561800       28.7235681235
Li               5.1527375605        5.1527375605       26.9768294624
Li               3.4351561700        3.4351561700       32.2282393024
Li               5.1527332758        5.1527332758       30.4284682419
End final coordinates



     Writing all to output data dir ./Li/Lithium.save/ :
     XML data file
     init_run     :     15.53s CPU     23.08s WALL (       1 calls)
     electrons    :   1525.27s CPU   1883.10s WALL (       3 calls)
     update_pot   :      0.16s CPU      0.18s WALL (       2 calls)
     forces       :     27.24s CPU     29.46s WALL (       3 calls)

     Called by init_run:
     wfcinit      :      2.59s CPU      3.39s WALL (       1 calls)
     wfcinit:wfcr :      2.44s CPU      3.24s WALL (      21 calls)
     potinit      :      0.70s CPU      0.74s WALL (       1 calls)
     hinit0       :      2.47s CPU      2.76s WALL (       1 calls)

     Called by electrons:
     c_bands      :   1216.29s CPU   1501.73s WALL (      72 calls)
     sum_band     :     82.94s CPU    111.85s WALL (      72 calls)
     v_of_rho     :      3.75s CPU      4.46s WALL (      73 calls)
     v_h          :      0.35s CPU      0.42s WALL (      73 calls)
     v_xc         :      3.40s CPU      4.04s WALL (      73 calls)
     newd         :      3.28s CPU      3.40s WALL (      73 calls)
     PAW_pot      :      0.65s CPU      0.82s WALL (      75 calls)
     mix_rho      :     10.82s CPU     13.91s WALL (      72 calls)

     Called by c_bands:
     init_us_2    :     10.00s CPU     10.44s WALL (    3150 calls)
     cegterg      :   1203.13s CPU   1487.16s WALL (    1719 calls)

     Called by sum_band:
     sum_band:wei :      0.11s CPU      0.12s WALL (      72 calls)
     sum_band:loo :     78.77s CPU    107.40s WALL (      72 calls)
     sum_band:buf :      1.01s CPU      1.10s WALL (    1512 calls)
     sum_band:ini :      4.60s CPU      4.64s WALL (    1512 calls)
     sum_band:cal :     11.25s CPU     13.64s WALL (    1554 calls)
     sum_band:bec :      0.24s CPU      0.27s WALL (    1554 calls)
     addusdens    :      3.34s CPU      3.37s WALL (      72 calls)
                                        0.00s GPU  (      72 calls)
     addusd:skk   :      0.81s CPU      0.81s WALL (      72 calls)
                                        0.00s GPU  (      72 calls)

     Called by *egterg:
     cdiaghg      :    327.22s CPU    340.25s WALL (   19834 calls)
     cegterg:over :     71.02s CPU     78.96s WALL (   18311 calls)
     cegterg:upda :     46.56s CPU     48.07s WALL (   18311 calls)
     cegterg:last :     19.46s CPU     19.63s WALL (    2403 calls)
     h_psi        :    663.04s CPU    919.87s WALL (   20051 calls)
     s_psi        :     46.39s CPU     47.31s WALL (   20051 calls)
     g_psi        :      0.81s CPU      0.84s WALL (   18311 calls)

     Called by h_psi:
     h_psi:calbec :     67.79s CPU     82.21s WALL (   20051 calls)
     vloc_psi     :    541.10s CPU    780.87s WALL (   20051 calls)
                                        0.00s GPU  (   20051 calls)
     add_vuspsi   :     51.25s CPU     53.54s WALL (   20051 calls)

     General routines
     calbec       :     80.57s CPU     97.55s WALL (   21857 calls)
     fft          :      4.05s CPU      4.92s WALL (     953 calls)
     ffts         :      8.72s CPU     11.10s WALL (    8386 calls)
     fftw         :    582.61s CPU    840.93s WALL ( 1065848 calls)
     interpolate  :      0.92s CPU      1.02s WALL (      73 calls)

     Parallel routines

     PAW routines
     PAW_pot      :      0.65s CPU      0.82s WALL (      75 calls)
     PAW_symme    :      0.01s CPU      0.02s WALL (     147 calls)

     Environ routines

     PWSCF        :  26m19.14s CPU  32m28.79s WALL


   This run was terminated on:   2:29:42  24Jan2025            

=------------------------------------------------------------------------------=
   JOB DONE.
=------------------------------------------------------------------------------=
