
     Program PWSCF v.7.4 starts on  5Jan2025 at  1:51:38 
        Git branch: develop
        Last git commit: e877ff360aceba4b8d76ffc2fb1c70545fc5dd57
        Last git commit date: Sat Jan 4 12:56:15 2025 +0000
        Last git commit subject: Merge branch 'orthoU' into 'develop'

     This program is part of the open-source Quantum ESPRESSO suite
     for quantum simulation of materials; please cite
         "P. Giannozzi et al., J. Phys.:Condens. Matter 21 395502 (2009);
         "P. Giannozzi et al., J. Phys.:Condens. Matter 29 465901 (2017);
         "P. Giannozzi et al., J. Chem. Phys. 152 154105 (2020);
          URL http://www.quantum-espresso.org", 
     in publications or presentations arising from this work. More details at
     http://www.quantum-espresso.org/quote

     Parallel version (MPI), running on   360 processors

     MPI processes distributed on     9 nodes
     177134 MiB available memory on the printing compute node when the environment starts
 
     Reading input from espresso.pwi
Warning: card &CELL ignored
Warning: card    PRESS_CONV_THR   = 0.1 ignored
Warning: card    CELL_DOFREE      = 'ALL' ignored
Warning: card / ignored
Warning: card &FCP ignored
Warning: card / ignored
Warning: card &RISM ignored
Warning: card / ignored

     Current dimensions of program PWSCF are:
     Max number of different atomic species (ntypx) = 10
     Max number of k-points (npk) =  40000
     Max angular momentum in pseudopotentials (lmaxx) =  4

     IMPORTANT: XC functional enforced from input :
     Exchange-correlation= PBE
                           (   1   4   3   4   0   0   0)
     Any further DFT definition will be discarded
     Please, verify this is what you really want

 
     Reading input from environ.in:
     * using ionic solvent mode
     * setting boundary derivatives method to SSCS default
     * setting electrolyte-boundary derivatives method to SSCS default

Environ Warning (1001): card EOF ignored

     
 
     K-points division:     npool     =       2
     R & G space division:  proc/nbgrp/npool/nimage =     180
     Subspace diagonalization in iterative solution of the eigenvalue problem:
     a serial algorithm will be used

 
     Parallelization info
     --------------------
     sticks:   dense  smooth     PW     G-vecs:    dense   smooth      PW
     Min          47      18      5                26681     6698     959
     Max          48      19      6                26720     6787     997
     Sum        8497    3389    941              4805333  1215433  176195
 
     Using Slab Decomposition
 


     bravais-lattice index     =           12
     lattice parameter (alat)  =      12.9830  a.u.
     unit-cell volume          =   12574.0527 (a.u.)^3
     number of atoms/cell      =           20
     number of atomic types    =            1
     number of electrons       =        60.00
     number of Kohn-Sham states=           45
     kinetic-energy cutoff     =      80.0000  Ry
     charge density cutoff     =     800.0000  Ry
     scf convergence threshold =      1.0E-06
     mixing beta               =       0.2000
     number of iterations used =            8  local-TF  mixing
     energy convergence thresh.=      1.0E-05
     force convergence thresh. =      3.9E-04
     Exchange-correlation= PBE
                           (   1   4   3   4   0   0   0)
     nstep                     =          999


     ================================================================================
 
                                  Environ Setup Summary

     ================================================================================
 
     Please cite

          O. Andreussi, I. Dabo and N. Marzari, J. Chem. Phys. 136, 064102 (2012)
          F. Nattino, M. Truscott, N. Marzari, and O. Andreussi, J. Chem. Phys. 150, 041722 (2019)

     in publications or presentations arising from this work.

     ================================================================================
 
     Parameters
     ==========

     compensation onset threshold      =               0.1000E+00
     static permittivity               =                    89.90
     surface tension in input (dyn/cm) =                    37.30
     surface tension in internal units =               0.4792E-04

     Solvent Boundary
     ================

     solvent mode                      =                    ionic
     derivatives method                =                   lowmem
     electrolyte derivatives method    =                   lowmem
     numerical core for derivatives    =                      fft
     switching function adopted        =                     SCCS
     density limit for vacuum region   =               0.5000E-02
     density limit for bulk solvent    =               0.1000E-03
     soft-sphere radius mode           =                    bondi
     soft-sphere softness              =                     0.50
     alpha                             =                     1.32

     Electrostatic Setup
     ===================

     electrostatic problem to solve    =                    modpb
     numerical solver adopted          =                   newton
     type of auxiliary density adopted =                     none
     numerical core for poisson        =                      fft
     adopting a nested solver scheme
     inner solver                      =                       cg
     inner core                        =                      fft
     type of pbc corrections           =                parabolic
     numerical core for corrections    =                      1da

     ================================================================================
 

     >>>>> Grand-Canonical SCF is activated <<<<<
     Initial Total Charge  =     0.000000 e
     Target Fermi Energy   =    -3.904000 eV
     Thr. of Fermi Energy  =     0.001000 eV
     Wave-shift of Kerker  =     0.400000 bohr^-1
     Wave-shift of Hartree =     1.500000 bohr^-1
     Mixing Rate of Fermi  =     0.050000

     celldm(1)=  12.983009  celldm(2)=   0.829156  celldm(3)=   7.267908
     celldm(4)=  -0.301511  celldm(5)=   0.000000  celldm(6)=   0.000000

     crystal axes: (cart. coord. in units of alat)
               a(1) = (   1.000000   0.000000   0.000000 )  
               a(2) = (  -0.250000   0.790569   0.000000 )  
               a(3) = (   0.000000   0.000000   7.267908 )  

     reciprocal axes: (cart. coord. in units 2 pi/alat)
               b(1) = (  1.000000  0.316228  0.000000 )  
               b(2) = (  0.000000  1.264912  0.000000 )  
               b(3) = (  0.000000  0.000000  0.137591 )  


     PseudoPot. # 1 for Li read from file:
     /home/mmm1182/Repos/Pseudopotentials/pslibrary/Li.pbe-sl-kjpaw_psl.1.0.0.UPF
     MD5 check sum: f40bb4162937df3f7c561f1969c76545
     Pseudo is Projector augmented-wave, Zval =  3.0
     Generated using 'atomic' code by A. Dal Corso  v.7.3.1
     Shape of augmentation charge: PSQ
     Using radial grid of 1017 points,  4 beta functions with: 
                l(1) =   0
                l(2) =   0
                l(3) =   1
                l(4) =   1
     Q(r) pseudized with 0 coefficients 


     atomic species   valence    mass     pseudopotential
     Li                3.00     6.94000     Li( 1.00)

     No symmetry found


                                    s                        frac. trans.

      isym =  1     identity                                     

 cryst.   s( 1) = (     1          0          0      )
                  (     0          1          0      )
                  (     0          0          1      )

 cart.    s( 1) = (  1.0000000 -0.0000000  0.0000000 )
                  (  0.0000000  1.0000000  0.0000000 )
                  (  0.0000000  0.0000000  1.0000000 )


     point group C_1 (1)    
     there are  1 classes
     the character table:

       E    
A      1.00

     the symmetry operations in each class and the name of the first element:

     E        1
          identity                                               

   Cartesian axes

     site n.     atom                  positions (alat units)
         1        Li     tau(   1) = (   0.2502963   0.3204171   3.0702267  )
         2        Li     tau(   2) = (   0.0002863   0.6453842   3.2428198  )
         3        Li     tau(   3) = (   0.0001726   0.1676813   3.3840503  )
         4        Li     tau(   4) = (   0.2500940   0.4722733   3.5608164  )
         5        Li     tau(   5) = (   0.2499021   0.0020099   3.7071725  )
         6        Li     tau(   6) = (  -0.0001739   0.3066287   3.8838669  )
         7        Li     tau(   7) = (   0.2497029   0.6195145   4.0251277  )
         8        Li     tau(   8) = (   0.2497012   0.1539788   4.1976142  )
         9        Li     tau(   9) = (  -0.0003886   0.5081047   4.3736774  )
        10        Li     tau(  10) = (   0.5003892  -0.0336773   2.8941273  )
        11        Li     tau(  11) = (   0.7502940   0.3204038   3.0702134  )
        12        Li     tau(  12) = (   0.5002964   0.6453656   3.2428227  )
        13        Li     tau(  13) = (   0.5001769   0.1676683   3.3840466  )
        14        Li     tau(  14) = (   0.7500956   0.4722692   3.5608308  )
        15        Li     tau(  15) = (   0.7499095   0.0020088   3.7071934  )
        16        Li     tau(  16) = (   0.4998228   0.3066383   3.8838760  )
        17        Li     tau(  17) = (   0.7497150   0.6194915   4.0251313  )
        18        Li     tau(  18) = (   0.7497038   0.1539722   4.1976111  )
        19        Li     tau(  19) = (   0.4996101   0.5081094   4.3736997  )
        20        Li     tau(  20) = (   1.0003942  -0.0336858   2.8941505  )

   Crystallographic axes

     site n.     atom                  positions (cryst. coord.)
         1        Li     tau(   1) = (  0.3516211  0.4052993  0.4224361  )
         2        Li     tau(   2) = (  0.2043749  0.8163541  0.4461834  )
         3        Li     tau(   3) = (  0.0531981  0.2121020  0.4656155  )
         4        Li     tau(   4) = (  0.3994400  0.5973840  0.4899369  )
         5        Li     tau(   5) = (  0.2505377  0.0025424  0.5100742  )
         6        Li     tau(   6) = (  0.0967907  0.3878583  0.5343858  )
         7        Li     tau(   7) = (  0.4456107  0.7836311  0.5538220  )
         8        Li     tau(   8) = (  0.2983936  0.1947695  0.5775547  )
         9        Li     tau(   9) = (  0.1602884  0.6427076  0.6017794  )
        10        Li     tau(  10) = (  0.4897395 -0.0425988  0.3982064  )
        11        Li     tau(  11) = (  0.8516147  0.4052826  0.4224343  )
        12        Li     tau(  12) = (  0.7043790  0.8163305  0.4461838  )
        13        Li     tau(  13) = (  0.5531983  0.2120856  0.4656149  )
        14        Li     tau(  14) = (  0.8994403  0.5973788  0.4899389  )
        15        Li     tau(  15) = (  0.7505447  0.0025409  0.5100771  )
        16        Li     tau(  16) = (  0.5967904  0.3878704  0.5343871  )
        17        Li     tau(  17) = (  0.9456155  0.7836020  0.5538226  )
        18        Li     tau(  18) = (  0.7983941  0.1947612  0.5775542  )
        19        Li     tau(  19) = (  0.6602884  0.6427135  0.6017825  )
        20        Li     tau(  20) = (  0.9897418 -0.0426096  0.3982096  )

     number of k points=    62  Marzari-Vanderbilt smearing, width (Ry)=  0.0100
                       cart. coord. in units 2pi/alat
        k(    1) = (   0.0000000   0.0000000   0.0000000), wk =   0.0166667
        k(    2) = (   0.0000000   0.1054093   0.0000000), wk =   0.0333333
        k(    3) = (   0.0000000   0.2108186   0.0000000), wk =   0.0333333
        k(    4) = (   0.0000000   0.3162279   0.0000000), wk =   0.0333333
        k(    5) = (   0.0000000   0.4216372   0.0000000), wk =   0.0333333
        k(    6) = (   0.0000000   0.5270466   0.0000000), wk =   0.0333333
        k(    7) = (   0.0000000  -0.6324559   0.0000000), wk =   0.0166667
        k(    8) = (   0.1000000   0.0316228   0.0000000), wk =   0.0333333
        k(    9) = (   0.1000000   0.1370321   0.0000000), wk =   0.0333333
        k(   10) = (   0.1000000   0.2424414   0.0000000), wk =   0.0333333
        k(   11) = (   0.1000000   0.3478507   0.0000000), wk =   0.0333333
        k(   12) = (   0.1000000   0.4532600   0.0000000), wk =   0.0333333
        k(   13) = (   0.1000000   0.5586693   0.0000000), wk =   0.0333333
        k(   14) = (   0.1000000  -0.6008331   0.0000000), wk =   0.0333333
        k(   15) = (   0.1000000  -0.4954238   0.0000000), wk =   0.0333333
        k(   16) = (   0.1000000  -0.3900144   0.0000000), wk =   0.0333333
        k(   17) = (   0.1000000  -0.2846051   0.0000000), wk =   0.0333333
        k(   18) = (   0.1000000  -0.1791958   0.0000000), wk =   0.0333333
        k(   19) = (   0.1000000  -0.0737865   0.0000000), wk =   0.0333333
        k(   20) = (   0.2000000   0.0632456   0.0000000), wk =   0.0333333
        k(   21) = (   0.2000000   0.1686549   0.0000000), wk =   0.0333333
        k(   22) = (   0.2000000   0.2740642   0.0000000), wk =   0.0333333
        k(   23) = (   0.2000000   0.3794735   0.0000000), wk =   0.0333333
        k(   24) = (   0.2000000   0.4848828   0.0000000), wk =   0.0333333
        k(   25) = (   0.2000000   0.5902921   0.0000000), wk =   0.0333333
        k(   26) = (   0.2000000  -0.5692103   0.0000000), wk =   0.0333333
        k(   27) = (   0.2000000  -0.4638010   0.0000000), wk =   0.0333333
        k(   28) = (   0.2000000  -0.3583917   0.0000000), wk =   0.0333333
        k(   29) = (   0.2000000  -0.2529823   0.0000000), wk =   0.0333333
        k(   30) = (   0.2000000  -0.1475730   0.0000000), wk =   0.0333333
        k(   31) = (   0.2000000  -0.0421637   0.0000000), wk =   0.0333333
        k(   32) = (   0.3000000   0.0948684   0.0000000), wk =   0.0333333
        k(   33) = (   0.3000000   0.2002777   0.0000000), wk =   0.0333333
        k(   34) = (   0.3000000   0.3056870   0.0000000), wk =   0.0333333
        k(   35) = (   0.3000000   0.4110963   0.0000000), wk =   0.0333333
        k(   36) = (   0.3000000   0.5165056   0.0000000), wk =   0.0333333
        k(   37) = (   0.3000000   0.6219149   0.0000000), wk =   0.0333333
        k(   38) = (   0.3000000  -0.5375875   0.0000000), wk =   0.0333333
        k(   39) = (   0.3000000  -0.4321782   0.0000000), wk =   0.0333333
        k(   40) = (   0.3000000  -0.3267689   0.0000000), wk =   0.0333333
        k(   41) = (   0.3000000  -0.2213596   0.0000000), wk =   0.0333333
        k(   42) = (   0.3000000  -0.1159502   0.0000000), wk =   0.0333333
        k(   43) = (   0.3000000  -0.0105409   0.0000000), wk =   0.0333333
        k(   44) = (   0.4000000   0.1264912   0.0000000), wk =   0.0333333
        k(   45) = (   0.4000000   0.2319005   0.0000000), wk =   0.0333333
        k(   46) = (   0.4000000   0.3373098   0.0000000), wk =   0.0333333
        k(   47) = (   0.4000000   0.4427191   0.0000000), wk =   0.0333333
        k(   48) = (   0.4000000   0.5481284   0.0000000), wk =   0.0333333
        k(   49) = (   0.4000000   0.6535377   0.0000000), wk =   0.0333333
        k(   50) = (   0.4000000  -0.5059647   0.0000000), wk =   0.0333333
        k(   51) = (   0.4000000  -0.4005554   0.0000000), wk =   0.0333333
        k(   52) = (   0.4000000  -0.2951461   0.0000000), wk =   0.0333333
        k(   53) = (   0.4000000  -0.1897368   0.0000000), wk =   0.0333333
        k(   54) = (   0.4000000  -0.0843274   0.0000000), wk =   0.0333333
        k(   55) = (   0.4000000   0.0210819   0.0000000), wk =   0.0333333
        k(   56) = (  -0.5000000  -0.1581140   0.0000000), wk =   0.0166667
        k(   57) = (  -0.5000000  -0.0527047   0.0000000), wk =   0.0333333
        k(   58) = (  -0.5000000   0.0527047   0.0000000), wk =   0.0333333
        k(   59) = (  -0.5000000   0.1581140   0.0000000), wk =   0.0333333
        k(   60) = (  -0.5000000   0.2635233   0.0000000), wk =   0.0333333
        k(   61) = (  -0.5000000   0.3689326   0.0000000), wk =   0.0333333
        k(   62) = (  -0.5000000  -0.7905698   0.0000000), wk =   0.0166667

                       cryst. coord.
        k(    1) = (   0.0000000   0.0000000   0.0000000), wk =   0.0166667
        k(    2) = (   0.0000000   0.0833333   0.0000000), wk =   0.0333333
        k(    3) = (   0.0000000   0.1666667   0.0000000), wk =   0.0333333
        k(    4) = (   0.0000000   0.2500000   0.0000000), wk =   0.0333333
        k(    5) = (   0.0000000   0.3333333   0.0000000), wk =   0.0333333
        k(    6) = (   0.0000000   0.4166667   0.0000000), wk =   0.0333333
        k(    7) = (   0.0000000  -0.5000000   0.0000000), wk =   0.0166667
        k(    8) = (   0.1000000  -0.0000000   0.0000000), wk =   0.0333333
        k(    9) = (   0.1000000   0.0833333   0.0000000), wk =   0.0333333
        k(   10) = (   0.1000000   0.1666667   0.0000000), wk =   0.0333333
        k(   11) = (   0.1000000   0.2500000   0.0000000), wk =   0.0333333
        k(   12) = (   0.1000000   0.3333333   0.0000000), wk =   0.0333333
        k(   13) = (   0.1000000   0.4166667   0.0000000), wk =   0.0333333
        k(   14) = (   0.1000000  -0.5000000   0.0000000), wk =   0.0333333
        k(   15) = (   0.1000000  -0.4166667   0.0000000), wk =   0.0333333
        k(   16) = (   0.1000000  -0.3333333   0.0000000), wk =   0.0333333
        k(   17) = (   0.1000000  -0.2500000   0.0000000), wk =   0.0333333
        k(   18) = (   0.1000000  -0.1666667   0.0000000), wk =   0.0333333
        k(   19) = (   0.1000000  -0.0833333   0.0000000), wk =   0.0333333
        k(   20) = (   0.2000000  -0.0000000   0.0000000), wk =   0.0333333
        k(   21) = (   0.2000000   0.0833333   0.0000000), wk =   0.0333333
        k(   22) = (   0.2000000   0.1666667   0.0000000), wk =   0.0333333
        k(   23) = (   0.2000000   0.2500000   0.0000000), wk =   0.0333333
        k(   24) = (   0.2000000   0.3333333   0.0000000), wk =   0.0333333
        k(   25) = (   0.2000000   0.4166667   0.0000000), wk =   0.0333333
        k(   26) = (   0.2000000  -0.5000000   0.0000000), wk =   0.0333333
        k(   27) = (   0.2000000  -0.4166667   0.0000000), wk =   0.0333333
        k(   28) = (   0.2000000  -0.3333333   0.0000000), wk =   0.0333333
        k(   29) = (   0.2000000  -0.2500000   0.0000000), wk =   0.0333333
        k(   30) = (   0.2000000  -0.1666667   0.0000000), wk =   0.0333333
        k(   31) = (   0.2000000  -0.0833333   0.0000000), wk =   0.0333333
        k(   32) = (   0.3000000  -0.0000000   0.0000000), wk =   0.0333333
        k(   33) = (   0.3000000   0.0833333   0.0000000), wk =   0.0333333
        k(   34) = (   0.3000000   0.1666667   0.0000000), wk =   0.0333333
        k(   35) = (   0.3000000   0.2500000   0.0000000), wk =   0.0333333
        k(   36) = (   0.3000000   0.3333333   0.0000000), wk =   0.0333333
        k(   37) = (   0.3000000   0.4166667   0.0000000), wk =   0.0333333
        k(   38) = (   0.3000000  -0.5000000   0.0000000), wk =   0.0333333
        k(   39) = (   0.3000000  -0.4166667   0.0000000), wk =   0.0333333
        k(   40) = (   0.3000000  -0.3333333   0.0000000), wk =   0.0333333
        k(   41) = (   0.3000000  -0.2500000   0.0000000), wk =   0.0333333
        k(   42) = (   0.3000000  -0.1666667   0.0000000), wk =   0.0333333
        k(   43) = (   0.3000000  -0.0833333   0.0000000), wk =   0.0333333
        k(   44) = (   0.4000000  -0.0000000   0.0000000), wk =   0.0333333
        k(   45) = (   0.4000000   0.0833333   0.0000000), wk =   0.0333333
        k(   46) = (   0.4000000   0.1666667   0.0000000), wk =   0.0333333
        k(   47) = (   0.4000000   0.2500000   0.0000000), wk =   0.0333333
        k(   48) = (   0.4000000   0.3333333   0.0000000), wk =   0.0333333
        k(   49) = (   0.4000000   0.4166667   0.0000000), wk =   0.0333333
        k(   50) = (   0.4000000  -0.5000000   0.0000000), wk =   0.0333333
        k(   51) = (   0.4000000  -0.4166667   0.0000000), wk =   0.0333333
        k(   52) = (   0.4000000  -0.3333333   0.0000000), wk =   0.0333333
        k(   53) = (   0.4000000  -0.2500000   0.0000000), wk =   0.0333333
        k(   54) = (   0.4000000  -0.1666667   0.0000000), wk =   0.0333333
        k(   55) = (   0.4000000  -0.0833333   0.0000000), wk =   0.0333333
        k(   56) = (  -0.5000000   0.0000000   0.0000000), wk =   0.0166667
        k(   57) = (  -0.5000000   0.0833333   0.0000000), wk =   0.0333333
        k(   58) = (  -0.5000000   0.1666667   0.0000000), wk =   0.0333333
        k(   59) = (  -0.5000000   0.2500000   0.0000000), wk =   0.0333333
        k(   60) = (  -0.5000000   0.3333333   0.0000000), wk =   0.0333333
        k(   61) = (  -0.5000000   0.4166667   0.0000000), wk =   0.0333333
        k(   62) = (  -0.5000000  -0.5000000   0.0000000), wk =   0.0166667

     Dense  grid:  4805333 G-vectors     FFT dimensions: ( 120, 100, 864)

     Smooth grid:  1215433 G-vectors     FFT dimensions: (  75,  64, 540)

     Dynamical RAM for                 wfc:       0.58 MB

     Dynamical RAM for     wfc (w. buffer):      18.54 MB

     Dynamical RAM for           str. fact:       0.41 MB

     Dynamical RAM for           local pot:       0.00 MB

     Dynamical RAM for          nlocal pot:       2.06 MB

     Dynamical RAM for                qrad:       0.65 MB

     Dynamical RAM for          rho,v,vnew:       2.60 MB

     Dynamical RAM for               rhoin:       0.87 MB

     Dynamical RAM for            rho*nmix:       6.52 MB

     Dynamical RAM for           G-vectors:       1.58 MB

     Dynamical RAM for          h,s,v(r/c):       1.48 MB

     Dynamical RAM for          <psi|beta>:       0.11 MB

     Dynamical RAM for                 psi:       2.32 MB

     Dynamical RAM for                hpsi:       2.32 MB

     Dynamical RAM for                spsi:       2.32 MB

     Dynamical RAM for      wfcinit/wfcrot:       1.21 MB

     Dynamical RAM for           addusdens:      13.04 MB

     Dynamical RAM for          addusforce:      20.81 MB

     Estimated static dynamical RAM per process >      29.81 MB

     Estimated max dynamical RAM per process >      73.32 MB

     Estimated total dynamical RAM >      18.94 GB

     Initial potential from superposition of free atoms

     starting charge      59.9078, renormalised to      60.0000

     negative rho (up, down):  2.054E-03 0.000E+00
     Starting wfcs are random
     Checking if some PAW data can be deallocated... 

     total cpu time spent up to now is        7.3 secs

     per-process dynamical memory:   102.0 Mb

     Self-consistent Calculation

     iteration #  1     ecut=    80.00 Ry     beta= 0.20
     Davidson diagonalization with overlap

---- Real-time Memory Report at c_bands before calling an iterative solver
           281 MiB given to the printing process from OS
            99 MiB allocation reported by mallinfo(arena+hblkhd)
        173708 MiB available memory on the node where the printing process lives
------------------
     ethr =  1.00E-12,  avg # of iterations =101.7

     negative rho (up, down):  1.527E-03 0.000E+00

     add environment contribution to local potential

     total cpu time spent up to now is      132.2 secs

     total energy              =    -300.69708405 Ry
     estimated scf accuracy    <       0.07485372 Ry

     total charge of GC-SCF    =       0.03571731 e
     the Fermi energy          =      -4.51187389 eV
                        (error :       0.60787389 eV)
     electrostatic embedding   =       0.00000000 Ry
     cavitation energy         =       0.01593170 Ry
     electrolyte free energy   =       0.00541203 Ry
     correction to one-el term =       0.00000000 Ry

     iteration #  2     ecut=    80.00 Ry     beta= 0.20
     Davidson diagonalization with overlap

---- Real-time Memory Report at c_bands before calling an iterative solver
           281 MiB given to the printing process from OS
           135 MiB allocation reported by mallinfo(arena+hblkhd)
        172869 MiB available memory on the node where the printing process lives
------------------
     ethr =  1.00E-05,  avg # of iterations = 13.9

     negative rho (up, down):  1.167E-03 0.000E+00

     add environment contribution to local potential

     total cpu time spent up to now is      151.9 secs

     total energy              =    -300.72430888 Ry
     estimated scf accuracy    <       0.01629060 Ry

     total charge of GC-SCF    =       0.06992088 e
     the Fermi energy          =      -3.56276466 eV
                        (error :       0.34123534 eV)
     electrostatic embedding   =      -0.01947954 Ry
     cavitation energy         =       0.01593170 Ry
     electrolyte free energy   =      -0.00359935 Ry
     correction to one-el term =      -1.36746890 Ry

     iteration #  3     ecut=    80.00 Ry     beta= 0.20
     Davidson diagonalization with overlap

---- Real-time Memory Report at c_bands before calling an iterative solver
           281 MiB given to the printing process from OS
           135 MiB allocation reported by mallinfo(arena+hblkhd)
        172859 MiB available memory on the node where the printing process lives
------------------
     ethr =  1.00E-05,  avg # of iterations =  9.4

     negative rho (up, down):  8.733E-04 0.000E+00

     add environment contribution to local potential

     total cpu time spent up to now is      167.5 secs

     total energy              =    -300.70989191 Ry
     estimated scf accuracy    <       0.00984844 Ry

     total charge of GC-SCF    =       0.18850714 e
     the Fermi energy          =      -3.29674713 eV
                        (error :       0.60725287 eV)
     electrostatic embedding   =      -0.01781531 Ry
     cavitation energy         =       0.01593170 Ry
     electrolyte free energy   =      -0.00320334 Ry
     correction to one-el term =      -2.34651037 Ry

     iteration #  4     ecut=    80.00 Ry     beta= 0.20
     Davidson diagonalization with overlap

---- Real-time Memory Report at c_bands before calling an iterative solver
           281 MiB given to the printing process from OS
           135 MiB allocation reported by mallinfo(arena+hblkhd)
        172864 MiB available memory on the node where the printing process lives
------------------
     ethr =  1.00E-05,  avg # of iterations = 11.2

     negative rho (up, down):  7.121E-04 0.000E+00

     add environment contribution to local potential

     total cpu time spent up to now is      184.9 secs

     total energy              =    -300.72898040 Ry
     estimated scf accuracy    <       0.00212907 Ry

     total charge of GC-SCF    =       0.38246315 e
     the Fermi energy          =      -2.99529364 eV
                        (error :       0.90870636 eV)
     electrostatic embedding   =      -0.02015271 Ry
     cavitation energy         =       0.01593170 Ry
     electrolyte free energy   =      -0.00217202 Ry
     correction to one-el term =      -5.24483663 Ry

     iteration #  5     ecut=    80.00 Ry     beta= 0.20
     Davidson diagonalization with overlap

---- Real-time Memory Report at c_bands before calling an iterative solver
           281 MiB given to the printing process from OS
           135 MiB allocation reported by mallinfo(arena+hblkhd)
        172865 MiB available memory on the node where the printing process lives
------------------
     ethr =  3.57E-06,  avg # of iterations = 11.7

     negative rho (up, down):  6.083E-04 0.000E+00

     add environment contribution to local potential

     total cpu time spent up to now is      204.1 secs

     total energy              =    -300.75159069 Ry
     estimated scf accuracy    <       0.00168776 Ry

     total charge of GC-SCF    =       0.49889153 e
     the Fermi energy          =      -2.97970152 eV
                        (error :       0.92429848 eV)
     electrostatic embedding   =      -0.04260890 Ry
     cavitation energy         =       0.01593170 Ry
     electrolyte free energy   =      -0.00215577 Ry
     correction to one-el term =      -9.97509191 Ry

     iteration #  6     ecut=    80.00 Ry     beta= 0.20
     Davidson diagonalization with overlap

---- Real-time Memory Report at c_bands before calling an iterative solver
           281 MiB given to the printing process from OS
           135 MiB allocation reported by mallinfo(arena+hblkhd)
        172860 MiB available memory on the node where the printing process lives
------------------
     ethr =  2.84E-06,  avg # of iterations =  9.2

     negative rho (up, down):  5.466E-04 0.000E+00

     add environment contribution to local potential

     total cpu time spent up to now is      219.4 secs

     total energy              =    -300.75096799 Ry
     estimated scf accuracy    <       0.00090500 Ry

     total charge of GC-SCF    =       0.63501918 e
     the Fermi energy          =      -3.01520387 eV
                        (error :       0.88879613 eV)
     electrostatic embedding   =      -0.06531753 Ry
     cavitation energy         =       0.01593170 Ry
     electrolyte free energy   =      -0.00246800 Ry
     correction to one-el term =     -13.13624573 Ry

     iteration #  7     ecut=    80.00 Ry     beta= 0.20
     Davidson diagonalization with overlap

---- Real-time Memory Report at c_bands before calling an iterative solver
           281 MiB given to the printing process from OS
           135 MiB allocation reported by mallinfo(arena+hblkhd)
        172862 MiB available memory on the node where the printing process lives
------------------
     ethr =  1.52E-06,  avg # of iterations = 12.0

     negative rho (up, down):  5.076E-04 0.000E+00

     add environment contribution to local potential

     total cpu time spent up to now is      238.2 secs

     total energy              =    -300.75467014 Ry
     estimated scf accuracy    <       0.00108532 Ry

     total charge of GC-SCF    =       0.80889810 e
     the Fermi energy          =      -3.21118391 eV
                        (error :       0.69281609 eV)
     electrostatic embedding   =      -0.09980258 Ry
     cavitation energy         =       0.01593170 Ry
     electrolyte free energy   =      -0.00346716 Ry
     correction to one-el term =     -17.33810003 Ry

     iteration #  8     ecut=    80.00 Ry     beta= 0.20
     Davidson diagonalization with overlap

---- Real-time Memory Report at c_bands before calling an iterative solver
           281 MiB given to the printing process from OS
           135 MiB allocation reported by mallinfo(arena+hblkhd)
        172859 MiB available memory on the node where the printing process lives
------------------
     ethr =  1.52E-06,  avg # of iterations = 14.2

     negative rho (up, down):  6.473E-04 0.000E+00

     add environment contribution to local potential

     total cpu time spent up to now is      257.5 secs

     total energy              =    -300.75785157 Ry
     estimated scf accuracy    <       0.00049089 Ry

     total charge of GC-SCF    =       1.05499493 e
     the Fermi energy          =      -3.22854788 eV
                        (error :       0.67545212 eV)
     electrostatic embedding   =      -0.16170593 Ry
     cavitation energy         =       0.01593170 Ry
     electrolyte free energy   =      -0.00413232 Ry
     correction to one-el term =     -22.63948969 Ry

     iteration #  9     ecut=    80.00 Ry     beta= 0.20
     Davidson diagonalization with overlap

---- Real-time Memory Report at c_bands before calling an iterative solver
           281 MiB given to the printing process from OS
           135 MiB allocation reported by mallinfo(arena+hblkhd)
        172855 MiB available memory on the node where the printing process lives
------------------
     ethr =  8.33E-07,  avg # of iterations = 18.4

     negative rho (up, down):  7.991E-04 0.000E+00

     add environment contribution to local potential

     total cpu time spent up to now is      281.4 secs

     total energy              =    -300.77598010 Ry
     estimated scf accuracy    <       0.00020924 Ry

     total charge of GC-SCF    =       1.20800828 e
     the Fermi energy          =      -3.33245829 eV
                        (error :       0.57154171 eV)
     electrostatic embedding   =      -0.27982120 Ry
     cavitation energy         =       0.01593170 Ry
     electrolyte free energy   =      -0.00575656 Ry
     correction to one-el term =     -30.48671715 Ry

     iteration # 10     ecut=    80.00 Ry     beta= 0.20
     Davidson diagonalization with overlap

---- Real-time Memory Report at c_bands before calling an iterative solver
           281 MiB given to the printing process from OS
           135 MiB allocation reported by mallinfo(arena+hblkhd)
        172849 MiB available memory on the node where the printing process lives
------------------
     ethr =  3.56E-07,  avg # of iterations = 22.6

     negative rho (up, down):  5.012E-04 0.000E+00

     add environment contribution to local potential

     total cpu time spent up to now is      307.2 secs

     total energy              =    -300.79217223 Ry
     estimated scf accuracy    <       0.00009651 Ry

     total charge of GC-SCF    =       1.24310908 e
     the Fermi energy          =      -3.55527874 eV
                        (error :       0.34872126 eV)
     electrostatic embedding   =      -0.37201209 Ry
     cavitation energy         =       0.01593170 Ry
     electrolyte free energy   =      -0.00746154 Ry
     correction to one-el term =     -35.59642275 Ry

     iteration # 11     ecut=    80.00 Ry     beta= 0.20
     Davidson diagonalization with overlap

---- Real-time Memory Report at c_bands before calling an iterative solver
           281 MiB given to the printing process from OS
           135 MiB allocation reported by mallinfo(arena+hblkhd)
        172837 MiB available memory on the node where the printing process lives
------------------
     ethr =  1.64E-07,  avg # of iterations = 11.6

     negative rho (up, down):  3.444E-04 0.000E+00

     add environment contribution to local potential

     total cpu time spent up to now is      326.1 secs

     total energy              =    -300.78907204 Ry
     estimated scf accuracy    <       0.00008291 Ry

     total charge of GC-SCF    =       1.38075607 e
     the Fermi energy          =      -3.59881444 eV
                        (error :       0.30518556 eV)
     electrostatic embedding   =      -0.39543125 Ry
     cavitation energy         =       0.01593170 Ry
     electrolyte free energy   =      -0.00780644 Ry
     correction to one-el term =     -36.71799370 Ry

     iteration # 12     ecut=    80.00 Ry     beta= 0.20
     Davidson diagonalization with overlap

---- Real-time Memory Report at c_bands before calling an iterative solver
           281 MiB given to the printing process from OS
           135 MiB allocation reported by mallinfo(arena+hblkhd)
        172846 MiB available memory on the node where the printing process lives
------------------
     ethr =  1.41E-07,  avg # of iterations = 20.0

     negative rho (up, down):  3.214E-04 0.000E+00

     add environment contribution to local potential

     total cpu time spent up to now is      349.5 secs

     total energy              =    -300.79762934 Ry
     estimated scf accuracy    <       0.00003078 Ry

     total charge of GC-SCF    =       1.59962563 e
     the Fermi energy          =      -3.68914919 eV
                        (error :       0.21485081 eV)
     electrostatic embedding   =      -0.49435047 Ry
     cavitation energy         =       0.01593170 Ry
     electrolyte free energy   =      -0.00912380 Ry
     correction to one-el term =     -41.07166296 Ry

     iteration # 13     ecut=    80.00 Ry     beta= 0.20
     Davidson diagonalization with overlap

---- Real-time Memory Report at c_bands before calling an iterative solver
           281 MiB given to the printing process from OS
           135 MiB allocation reported by mallinfo(arena+hblkhd)
        172843 MiB available memory on the node where the printing process lives
------------------
     ethr =  5.27E-08,  avg # of iterations = 24.0

     negative rho (up, down):  3.011E-04 0.000E+00

     add environment contribution to local potential

     total cpu time spent up to now is      377.9 secs

     total energy              =    -300.79736912 Ry
     estimated scf accuracy    <       0.00001444 Ry

     total charge of GC-SCF    =       1.56401142 e
     the Fermi energy          =      -3.86275700 eV
                        (error :       0.04124300 eV)
     electrostatic embedding   =      -0.67082490 Ry
     cavitation energy         =       0.01593170 Ry
     electrolyte free energy   =      -0.01154003 Ry
     correction to one-el term =     -47.75101060 Ry

     iteration # 14     ecut=    80.00 Ry     beta= 0.20
     Davidson diagonalization with overlap

---- Real-time Memory Report at c_bands before calling an iterative solver
           281 MiB given to the printing process from OS
           135 MiB allocation reported by mallinfo(arena+hblkhd)
        172846 MiB available memory on the node where the printing process lives
------------------
     ethr =  2.47E-08,  avg # of iterations = 12.1

     negative rho (up, down):  2.850E-04 0.000E+00

     add environment contribution to local potential

     total cpu time spent up to now is      395.1 secs

     total energy              =    -300.79672234 Ry
     estimated scf accuracy    <       0.00000489 Ry

     total charge of GC-SCF    =       1.56141129 e
     the Fermi energy          =      -3.85906026 eV
                        (error :       0.04493974 eV)
     electrostatic embedding   =      -0.64009912 Ry
     cavitation energy         =       0.01593170 Ry
     electrolyte free energy   =      -0.01113894 Ry
     correction to one-el term =     -46.68477007 Ry

     iteration # 15     ecut=    80.00 Ry     beta= 0.20
     Davidson diagonalization with overlap

---- Real-time Memory Report at c_bands before calling an iterative solver
           281 MiB given to the printing process from OS
           135 MiB allocation reported by mallinfo(arena+hblkhd)
        172843 MiB available memory on the node where the printing process lives
------------------
     ethr =  8.36E-09,  avg # of iterations =  9.9

     negative rho (up, down):  3.085E-04 0.000E+00

     add environment contribution to local potential

     total cpu time spent up to now is      409.5 secs

     total energy              =    -300.79672993 Ry
     estimated scf accuracy    <       0.00000361 Ry

     total charge of GC-SCF    =       1.60412959 e
     the Fermi energy          =      -3.86008767 eV
                        (error :       0.04391233 eV)
     electrostatic embedding   =      -0.63765772 Ry
     cavitation energy         =       0.01593170 Ry
     electrolyte free energy   =      -0.01110885 Ry
     correction to one-el term =     -46.59127625 Ry

     iteration # 16     ecut=    80.00 Ry     beta= 0.20
     Davidson diagonalization with overlap

---- Real-time Memory Report at c_bands before calling an iterative solver
           281 MiB given to the printing process from OS
           135 MiB allocation reported by mallinfo(arena+hblkhd)
        172843 MiB available memory on the node where the printing process lives
------------------
     ethr =  6.18E-09,  avg # of iterations = 23.4

     negative rho (up, down):  3.425E-04 0.000E+00

     add environment contribution to local potential

     total cpu time spent up to now is      434.9 secs

     total energy              =    -300.79655303 Ry
     estimated scf accuracy    <       0.00000080 Ry

     total charge of GC-SCF    =       1.60247956 e
     the Fermi energy          =      -3.89705032 eV
                        (error :       0.00694968 eV)
     electrostatic embedding   =      -0.67342770 Ry
     cavitation energy         =       0.01593170 Ry
     electrolyte free energy   =      -0.01160742 Ry
     correction to one-el term =     -47.83305337 Ry

     iteration # 17     ecut=    80.00 Ry     beta= 0.20
     Davidson diagonalization with overlap

---- Real-time Memory Report at c_bands before calling an iterative solver
           281 MiB given to the printing process from OS
           135 MiB allocation reported by mallinfo(arena+hblkhd)
        172841 MiB available memory on the node where the printing process lives
------------------
     c_bands:  1 eigenvalues not converged
     ethr =  1.36E-09,  avg # of iterations = 16.7

     negative rho (up, down):  3.204E-04 0.000E+00

     add environment contribution to local potential

     total cpu time spent up to now is      455.3 secs

     total energy              =    -300.79652882 Ry
     estimated scf accuracy    <       0.00000026 Ry

     total charge of GC-SCF    =       1.60713198 e
     the Fermi energy          =      -3.90527200 eV
                        (error :       0.00127200 eV)
     electrostatic embedding   =      -0.67163842 Ry
     cavitation energy         =       0.01593170 Ry
     electrolyte free energy   =      -0.01159140 Ry
     correction to one-el term =     -47.76992562 Ry

     iteration # 18     ecut=    80.00 Ry     beta= 0.20
     Davidson diagonalization with overlap

---- Real-time Memory Report at c_bands before calling an iterative solver
           281 MiB given to the printing process from OS
           135 MiB allocation reported by mallinfo(arena+hblkhd)
        172840 MiB available memory on the node where the printing process lives
------------------
     ethr =  4.53E-10,  avg # of iterations = 13.5

     negative rho (up, down):  3.054E-04 0.000E+00

     add environment contribution to local potential

     total cpu time spent up to now is      474.6 secs

     total energy              =    -300.79651584 Ry
     estimated scf accuracy    <       0.00000013 Ry

     total charge of GC-SCF    =       1.60416721 e
     the Fermi energy          =      -3.90638468 eV
                        (error :       0.00238468 eV)
     electrostatic embedding   =      -0.67576260 Ry
     cavitation energy         =       0.01593170 Ry
     electrolyte free energy   =      -0.01164560 Ry
     correction to one-el term =     -47.91080159 Ry

     iteration # 19     ecut=    80.00 Ry     beta= 0.20
     Davidson diagonalization with overlap

---- Real-time Memory Report at c_bands before calling an iterative solver
           281 MiB given to the printing process from OS
           135 MiB allocation reported by mallinfo(arena+hblkhd)
        172840 MiB available memory on the node where the printing process lives
------------------
     ethr =  2.20E-10,  avg # of iterations = 13.6

     negative rho (up, down):  2.638E-04 0.000E+00

     total cpu time spent up to now is      489.5 secs

     End of self-consistent calculation

          k = 0.0000 0.0000 0.0000 (152015 PWs)   bands (ev):

   -51.6517 -51.6510 -51.6504 -51.6496 -51.0074 -51.0063 -51.0059 -51.0048
   -50.4745 -50.4723 -50.4712 -50.4700 -50.4288 -50.4237 -50.4227 -50.4221
   -50.4182 -50.4178 -50.4169 -50.4162  -7.2791  -6.7328  -5.8055  -4.6518
    -4.6384  -4.5744  -4.1547  -4.1336  -3.6107  -3.5757  -3.5659  -3.4491
    -3.3107  -3.1050  -3.0469  -2.8809  -2.6448  -2.3863  -2.2310  -1.9776
    -1.8312  -0.7716  -0.7215  -0.5341  -0.4669

     occupation numbers 
     1.0000   1.0000   1.0000   1.0000   1.0000   1.0000   1.0000   1.0000
     1.0000   1.0000   1.0000   1.0000   1.0000   1.0000   1.0000   1.0000
     1.0000   1.0000   1.0000   1.0000   1.0000   1.0000   1.0000   1.0000
     1.0000   1.0000   1.0563   1.0703   0.0001   0.0000   0.0000   0.0000
     0.0000   0.0000   0.0000   0.0000   0.0000   0.0000   0.0000   0.0000
     0.0000   0.0000   0.0000   0.0000   0.0000

          k = 0.0000 0.1054 0.0000 (152006 PWs)   bands (ev):

   -51.6517 -51.6510 -51.6504 -51.6496 -51.0074 -51.0063 -51.0059 -51.0048
   -50.4744 -50.4723 -50.4712 -50.4700 -50.4288 -50.4237 -50.4227 -50.4222
   -50.4182 -50.4178 -50.4169 -50.4162  -7.2527  -6.7064  -5.7799  -4.7657
    -4.5569  -4.4812  -4.2576  -4.0769  -3.9849  -3.6904  -3.5777  -3.5342
    -3.1724  -3.0512  -3.0507  -2.9799  -2.5439  -2.4720  -1.9920  -1.9479
    -1.6948  -0.7764  -0.6836  -0.5333  -0.4672

     occupation numbers 
     1.0000   1.0000   1.0000   1.0000   1.0000   1.0000   1.0000   1.0000
     1.0000   1.0000   1.0000   1.0000   1.0000   1.0000   1.0000   1.0000
     1.0000   1.0000   1.0000   1.0000   1.0000   1.0000   1.0000   1.0000
     1.0000   1.0000   1.0076   1.0771   0.8268   0.0028   0.0000   0.0000
     0.0000   0.0000   0.0000   0.0000   0.0000   0.0000   0.0000   0.0000
     0.0000   0.0000   0.0000   0.0000   0.0000

          k = 0.0000 0.2108 0.0000 (151950 PWs)   bands (ev):

   -51.6517 -51.6510 -51.6504 -51.6496 -51.0074 -51.0063 -51.0059 -51.0048
   -50.4743 -50.4722 -50.4712 -50.4700 -50.4290 -50.4237 -50.4227 -50.4223
   -50.4182 -50.4177 -50.4169 -50.4161  -7.1732  -6.6273  -5.7033  -4.8388
    -4.6507  -4.4528  -4.3511  -4.2500  -4.1212  -3.8094  -3.7425  -3.5725
    -3.3199  -3.2451  -3.0124  -2.9839  -2.4790  -2.3609  -1.7848  -1.7084
    -1.4048  -0.7393  -0.6568  -0.4754  -0.3329

     occupation numbers 
     1.0000   1.0000   1.0000   1.0000   1.0000   1.0000   1.0000   1.0000
     1.0000   1.0000   1.0000   1.0000   1.0000   1.0000   1.0000   1.0000
     1.0000   1.0000   1.0000   1.0000   1.0000   1.0000   1.0000   1.0000
     1.0000   1.0000   1.0004   1.0092   1.0770   0.0781   0.0144   0.0000
     0.0000   0.0000   0.0000   0.0000   0.0000   0.0000   0.0000   0.0000
     0.0000   0.0000   0.0000   0.0000   0.0000

          k = 0.0000 0.3162 0.0000 (151992 PWs)   bands (ev):

   -51.6517 -51.6510 -51.6504 -51.6496 -51.0074 -51.0063 -51.0059 -51.0048
   -50.4741 -50.4722 -50.4712 -50.4700 -50.4293 -50.4237 -50.4227 -50.4225
   -50.4182 -50.4176 -50.4169 -50.4159  -7.0407  -6.4955  -5.5785  -5.1244
    -4.8633  -4.5934  -4.3727  -4.3641  -4.0370  -4.0049  -3.6414  -3.6384
    -3.5261  -3.4626  -2.9999  -2.9306  -2.4751  -2.4154  -1.5972  -1.5939
    -1.0884  -0.6755  -0.5589  -0.4096  -0.3610

     occupation numbers 
     1.0000   1.0000   1.0000   1.0000   1.0000   1.0000   1.0000   1.0000
     1.0000   1.0000   1.0000   1.0000   1.0000   1.0000   1.0000   1.0000
     1.0000   1.0000   1.0000   1.0000   1.0000   1.0000   1.0000   1.0000
     1.0000   1.0000   1.0002   1.0002   1.0179   0.9149   0.0005   0.0004
     0.0000   0.0000   0.0000   0.0000   0.0000   0.0000   0.0000   0.0000
     0.0000   0.0000   0.0000   0.0000   0.0000

          k = 0.0000 0.4216 0.0000 (151948 PWs)   bands (ev):

   -51.6517 -51.6510 -51.6504 -51.6496 -51.0074 -51.0063 -51.0059 -51.0048
   -50.4740 -50.4721 -50.4712 -50.4700 -50.4295 -50.4237 -50.4228 -50.4226
   -50.4182 -50.4175 -50.4169 -50.4158  -6.8548  -6.3118  -5.5744  -5.4176
    -4.9997  -4.8388  -4.3593  -4.3512  -4.2499  -3.8837  -3.8104  -3.7433
    -3.5723  -3.2447  -3.0113  -2.9728  -2.5011  -2.4785  -1.7073  -1.5272
    -0.9914  -0.7394  -0.6557  -0.3414  -0.1575

     occupation numbers 
     1.0000   1.0000   1.0000   1.0000   1.0000   1.0000   1.0000   1.0000
     1.0000   1.0000   1.0000   1.0000   1.0000   1.0000   1.0000   1.0000
     1.0000   1.0000   1.0000   1.0000   1.0000   1.0000   1.0000   1.0000
     1.0000   1.0000   1.0003   1.0004   1.0092   0.3012   0.0798   0.0147
     0.0000   0.0000   0.0000   0.0000   0.0000   0.0000   0.0000   0.0000
     0.0000   0.0000   0.0000   0.0000   0.0000

          k = 0.0000 0.5270 0.0000 (152033 PWs)   bands (ev):

   -51.6517 -51.6510 -51.6504 -51.6496 -51.0074 -51.0063 -51.0059 -51.0048
   -50.4739 -50.4721 -50.4712 -50.4700 -50.4297 -50.4237 -50.4229 -50.4227
   -50.4182 -50.4174 -50.4169 -50.4157  -6.6157  -6.0867  -5.9613  -5.4716
    -5.1090  -4.7657  -4.5711  -4.4811  -4.2580  -3.9855  -3.8512  -3.5781
    -3.5355  -3.1728  -3.0501  -2.9788  -2.4706  -2.4324  -1.9902  -1.5925
    -0.9495  -0.7768  -0.6826  -0.5349  -0.0789

     occupation numbers 
     1.0000   1.0000   1.0000   1.0000   1.0000   1.0000   1.0000   1.0000
     1.0000   1.0000   1.0000   1.0000   1.0000   1.0000   1.0000   1.0000
     1.0000   1.0000   1.0000   1.0000   1.0000   1.0000   1.0000   1.0000
     1.0000   1.0000   1.0000   1.0000   1.0075   0.8298   0.1783   0.0000
     0.0000   0.0000   0.0000   0.0000   0.0000   0.0000   0.0000   0.0000
     0.0000   0.0000   0.0000   0.0000   0.0000

          k = 0.0000-0.6325 0.0000 (151994 PWs)   bands (ev):

   -51.6517 -51.6510 -51.6504 -51.6496 -51.0074 -51.0063 -51.0059 -51.0048
   -50.4738 -50.4721 -50.4712 -50.4700 -50.4298 -50.4237 -50.4229 -50.4227
   -50.4182 -50.4174 -50.4169 -50.4157  -6.3264  -6.3214  -5.8001  -5.7696
    -4.9026  -4.8221  -4.6519  -4.6382  -4.1563  -4.1330  -3.7657  -3.5666
    -3.4506  -3.3041  -3.0450  -2.8808  -2.3839  -2.3723  -2.2292  -1.6617
    -0.8926  -0.7722  -0.7211  -0.5353  -0.1975

     occupation numbers 
     1.0000   1.0000   1.0000   1.0000   1.0000   1.0000   1.0000   1.0000
     1.0000   1.0000   1.0000   1.0000   1.0000   1.0000   1.0000   1.0000
     1.0000   1.0000   1.0000   1.0000   1.0000   1.0000   1.0000   1.0000
     1.0000   1.0000   1.0000   1.0000   1.0552   1.0706   0.0273   0.0000
     0.0000   0.0000   0.0000   0.0000   0.0000   0.0000   0.0000   0.0000
     0.0000   0.0000   0.0000   0.0000   0.0000

          k = 0.1000 0.0316 0.0000 (152067 PWs)   bands (ev):

   -51.6517 -51.6509 -51.6504 -51.6497 -51.0074 -51.0062 -51.0060 -51.0048
   -50.4744 -50.4722 -50.4713 -50.4701 -50.4287 -50.4242 -50.4224 -50.4221
   -50.4182 -50.4178 -50.4169 -50.4162  -7.2529  -6.7065  -5.7791  -5.1426
    -4.6216  -4.5487  -4.0930  -3.8401  -3.6938  -3.6183  -3.5047  -3.4725
    -3.2581  -3.0787  -2.9371  -2.9054  -2.6121  -2.3569  -2.2028  -1.9511
    -1.7947  -0.8155  -0.7073  -0.5156  -0.4547

     occupation numbers 
     1.0000   1.0000   1.0000   1.0000   1.0000   1.0000   1.0000   1.0000
     1.0000   1.0000   1.0000   1.0000   1.0000   1.0000   1.0000   1.0000
     1.0000   1.0000   1.0000   1.0000   1.0000   1.0000   1.0000   1.0000
     1.0000   1.0000   1.0831   0.1457   0.0031   0.0002   0.0000   0.0000
     0.0000   0.0000   0.0000   0.0000   0.0000   0.0000   0.0000   0.0000
     0.0000   0.0000   0.0000   0.0000   0.0000

          k = 0.1000 0.1370 0.0000 (152026 PWs)   bands (ev):

   -51.6517 -51.6509 -51.6504 -51.6497 -51.0074 -51.0062 -51.0060 -51.0048
   -50.4743 -50.4722 -50.4713 -50.4701 -50.4288 -50.4243 -50.4222 -50.4221
   -50.4182 -50.4177 -50.4169 -50.4162  -7.2106  -6.6643  -5.7381  -5.2531
    -4.7306  -4.5241  -4.2075  -3.9263  -3.9090  -3.7842  -3.4947  -3.3634
    -3.1588  -2.9936  -2.9423  -2.8323  -2.4571  -2.3608  -1.9656  -1.8916
    -1.5925  -0.8435  -0.6256  -0.5373  -0.4490

     occupation numbers 
     1.0000   1.0000   1.0000   1.0000   1.0000   1.0000   1.0000   1.0000
     1.0000   1.0000   1.0000   1.0000   1.0000   1.0000   1.0000   1.0000
     1.0000   1.0000   1.0000   1.0000   1.0000   1.0000   1.0000   1.0000
     1.0000   1.0000   1.0239   0.5137   0.4217   0.0436   0.0000   0.0000
     0.0000   0.0000   0.0000   0.0000   0.0000   0.0000   0.0000   0.0000
     0.0000   0.0000   0.0000   0.0000   0.0000

          k = 0.1000 0.2424 0.0000 (151998 PWs)   bands (ev):

   -51.6517 -51.6509 -51.6504 -51.6497 -51.0074 -51.0062 -51.0060 -51.0048
   -50.4742 -50.4722 -50.4713 -50.4701 -50.4290 -50.4244 -50.4224 -50.4221
   -50.4182 -50.4177 -50.4169 -50.4160  -7.1152  -6.5693  -5.6465  -5.3136
    -4.7904  -4.7653  -4.4234  -4.2301  -3.9536  -3.7304  -3.4653  -3.3815
    -3.3180  -3.0200  -2.9417  -2.8952  -2.3253  -2.2561  -1.6943  -1.6358
    -1.2890  -0.8979  -0.6100  -0.5134  -0.4415

     occupation numbers 
     1.0000   1.0000   1.0000   1.0000   1.0000   1.0000   1.0000   1.0000
     1.0000   1.0000   1.0000   1.0000   1.0000   1.0000   1.0000   1.0000
     1.0000   1.0000   1.0000   1.0000   1.0000   1.0000   1.0000   1.0000
     1.0000   1.0000   1.0000   1.0148   0.6643   0.0101   0.0000   0.0000
     0.0000   0.0000   0.0000   0.0000   0.0000   0.0000   0.0000   0.0000
     0.0000   0.0000   0.0000   0.0000   0.0000

          k = 0.1000 0.3479 0.0000 (151987 PWs)   bands (ev):

   -51.6517 -51.6509 -51.6504 -51.6497 -51.0074 -51.0062 -51.0060 -51.0048
   -50.4740 -50.4721 -50.4713 -50.4701 -50.4293 -50.4244 -50.4225 -50.4221
   -50.4182 -50.4176 -50.4169 -50.4159  -6.9667  -6.4218  -5.5087  -5.3237
    -5.2396  -4.8004  -4.6963  -4.3302  -3.9613  -3.7065  -3.6501  -3.5292
    -3.2639  -3.0770  -2.8966  -2.8958  -2.4310  -2.2265  -1.5489  -1.5405
    -1.0036  -0.9282  -0.6296  -0.4517  -0.3387

     occupation numbers 
     1.0000   1.0000   1.0000   1.0000   1.0000   1.0000   1.0000   1.0000
     1.0000   1.0000   1.0000   1.0000   1.0000   1.0000   1.0000   1.0000
     1.0000   1.0000   1.0000   1.0000   1.0000   1.0000   1.0000   1.0000
     1.0000   1.0000   1.0000   1.0008   0.7064   0.0048   0.0006   0.0000
     0.0000   0.0000   0.0000   0.0000   0.0000   0.0000   0.0000   0.0000
     0.0000   0.0000   0.0000   0.0000   0.0000

          k = 0.1000 0.4533 0.0000 (151932 PWs)   bands (ev):

   -51.6517 -51.6509 -51.6504 -51.6497 -51.0074 -51.0062 -51.0060 -51.0048
   -50.4739 -50.4721 -50.4713 -50.4701 -50.4295 -50.4244 -50.4227 -50.4221
   -50.4182 -50.4175 -50.4169 -50.4158  -6.7649  -6.2229  -5.6744  -5.3565
    -5.2833  -5.0711  -4.7606  -4.3751  -3.9316  -3.8763  -3.8498  -3.4440
    -3.3687  -2.9964  -2.9503  -2.8679  -2.4699  -2.3232  -1.8251  -1.5117
    -0.9648  -0.8576  -0.5898  -0.5648  -0.3195

     occupation numbers 
     1.0000   1.0000   1.0000   1.0000   1.0000   1.0000   1.0000   1.0000
     1.0000   1.0000   1.0000   1.0000   1.0000   1.0000   1.0000   1.0000
     1.0000   1.0000   1.0000   1.0000   1.0000   1.0000   1.0000   1.0000
     1.0000   1.0000   1.0000   1.0002   0.5428   0.2697   0.1741   0.0000
     0.0000   0.0000   0.0000   0.0000   0.0000   0.0000   0.0000   0.0000
     0.0000   0.0000   0.0000   0.0000   0.0000

          k = 0.1000 0.5587 0.0000 (151966 PWs)   bands (ev):

   -51.6517 -51.6509 -51.6504 -51.6497 -51.0074 -51.0062 -51.0060 -51.0048
   -50.4738 -50.4720 -50.4713 -50.4701 -50.4296 -50.4242 -50.4228 -50.4223
   -50.4182 -50.4174 -50.4169 -50.4157  -6.5099  -6.0744  -5.9547  -5.5397
    -5.1928  -5.0234  -4.6712  -4.6311  -4.0306  -3.8698  -3.7902  -3.5746
    -3.4078  -3.2073  -2.9370  -2.8421  -2.3812  -2.3520  -2.1515  -1.6053
    -0.9032  -0.8247  -0.6762  -0.5266  -0.2776

     occupation numbers 
     1.0000   1.0000   1.0000   1.0000   1.0000   1.0000   1.0000   1.0000
     1.0000   1.0000   1.0000   1.0000   1.0000   1.0000   1.0000   1.0000
     1.0000   1.0000   1.0000   1.0000   1.0000   1.0000   1.0000   1.0000
     1.0000   1.0000   1.0000   1.0000   1.0013   0.2436   0.0504   0.0000
     0.0000   0.0000   0.0000   0.0000   0.0000   0.0000   0.0000   0.0000
     0.0000   0.0000   0.0000   0.0000   0.0000

          k = 0.1000-0.6008 0.0000 (151997 PWs)   bands (ev):

   -51.6517 -51.6509 -51.6504 -51.6497 -51.0074 -51.0062 -51.0060 -51.0048
   -50.4738 -50.4720 -50.4713 -50.4701 -50.4297 -50.4241 -50.4228 -50.4224
   -50.4182 -50.4174 -50.4169 -50.4157  -6.3931  -6.2033  -5.8509  -5.6664
    -5.0527  -4.9286  -4.7427  -4.5337  -4.1740  -3.8147  -3.7508  -3.6565
    -3.6070  -3.2650  -3.0531  -2.9397  -2.4723  -2.3545  -2.0950  -1.6365
    -0.8774  -0.8266  -0.7247  -0.4545  -0.1849

     occupation numbers 
     1.0000   1.0000   1.0000   1.0000   1.0000   1.0000   1.0000   1.0000
     1.0000   1.0000   1.0000   1.0000   1.0000   1.0000   1.0000   1.0000
     1.0000   1.0000   1.0000   1.0000   1.0000   1.0000   1.0000   1.0000
     1.0000   1.0000   1.0000   1.0000   1.0432   0.0875   0.0182   0.0008
     0.0001   0.0000   0.0000   0.0000   0.0000   0.0000   0.0000   0.0000
     0.0000   0.0000   0.0000   0.0000   0.0000

          k = 0.1000-0.4954 0.0000 (151985 PWs)   bands (ev):

   -51.6517 -51.6509 -51.6504 -51.6497 -51.0074 -51.0062 -51.0060 -51.0048
   -50.4738 -50.4721 -50.4712 -50.4701 -50.4296 -50.4239 -50.4228 -50.4226
   -50.4182 -50.4175 -50.4169 -50.4158  -6.6692  -6.1307  -5.8316  -5.3730
    -5.1198  -4.8645  -4.4644  -4.3619  -4.2619  -3.9354  -3.8579  -3.8201
    -3.5801  -3.3439  -3.0812  -2.9915  -2.6435  -2.4386  -1.8676  -1.5415
    -0.9489  -0.9140  -0.6293  -0.2621  -0.0965

     occupation numbers 
     1.0000   1.0000   1.0000   1.0000   1.0000   1.0000   1.0000   1.0000
     1.0000   1.0000   1.0000   1.0000   1.0000   1.0000   1.0000   1.0000
     1.0000   1.0000   1.0000   1.0000   1.0000   1.0000   1.0000   1.0000
     1.0000   1.0000   1.0000   1.0003   1.0067   0.5639   0.2004   0.0981
     0.0000   0.0000   0.0000   0.0000   0.0000   0.0000   0.0000   0.0000
     0.0000   0.0000   0.0000   0.0000   0.0000

          k = 0.1000-0.3900 0.0000 (151942 PWs)   bands (ev):

   -51.6517 -51.6509 -51.6504 -51.6497 -51.0074 -51.0062 -51.0060 -51.0048
   -50.4740 -50.4721 -50.4712 -50.4701 -50.4294 -50.4237 -50.4229 -50.4226
   -50.4182 -50.4175 -50.4169 -50.4159  -6.8924  -6.3483  -5.4510  -5.4117
    -4.8612  -4.6314  -4.3449  -4.3192  -4.2474  -4.0892  -3.8675  -3.8102
    -3.7094  -3.3807  -3.1116  -2.9108  -2.7276  -2.4705  -1.7149  -1.5121
    -1.0029  -0.9711  -0.4555  -0.1385  -0.1377

     occupation numbers 
     1.0000   1.0000   1.0000   1.0000   1.0000   1.0000   1.0000   1.0000
     1.0000   1.0000   1.0000   1.0000   1.0000   1.0000   1.0000   1.0000
     1.0000   1.0000   1.0000   1.0000   1.0000   1.0000   1.0000   1.0000
     1.0000   1.0000   1.0005   1.0012   1.0098   1.0824   0.2348   0.0795
     0.0053   0.0000   0.0000   0.0000   0.0000   0.0000   0.0000   0.0000
     0.0000   0.0000   0.0000   0.0000   0.0000

          k = 0.1000-0.2846 0.0000 (151938 PWs)   bands (ev):

   -51.6517 -51.6509 -51.6504 -51.6497 -51.0074 -51.0062 -51.0060 -51.0048
   -50.4741 -50.4722 -50.4712 -50.4701 -50.4291 -50.4236 -50.4229 -50.4224
   -50.4182 -50.4176 -50.4169 -50.4160  -7.0622  -6.5166  -5.5964  -4.9582
    -4.5272  -4.4527  -4.3622  -4.3542  -4.3497  -3.9916  -3.8776  -3.8203
    -3.5126  -3.3301  -3.1647  -2.9183  -2.7397  -2.3527  -1.6872  -1.6171
    -1.1552  -1.0218  -0.4205  -0.4013  -0.0921

     occupation numbers 
     1.0000   1.0000   1.0000   1.0000   1.0000   1.0000   1.0000   1.0000
     1.0000   1.0000   1.0000   1.0000   1.0000   1.0000   1.0000   1.0000
     1.0000   1.0000   1.0000   1.0000   1.0000   1.0000   1.0000   1.0000
     1.0000   1.0000   1.0003   1.0004   1.0004   0.8581   0.2749   0.0985
     0.0000   0.0000   0.0000   0.0000   0.0000   0.0000   0.0000   0.0000
     0.0000   0.0000   0.0000   0.0000   0.0000

          k = 0.1000-0.1792 0.0000 (151999 PWs)   bands (ev):

   -51.6517 -51.6509 -51.6504 -51.6497 -51.0074 -51.0062 -51.0060 -51.0048
   -50.4743 -50.4722 -50.4712 -50.4701 -50.4289 -50.4238 -50.4228 -50.4222
   -50.4182 -50.4177 -50.4169 -50.4161  -7.1788  -6.6326  -5.7074  -4.7765
    -4.5354  -4.3846  -4.3302  -4.2370  -4.0487  -3.9600  -3.8442  -3.5748
    -3.4202  -3.2193  -3.0345  -2.9720  -2.6878  -2.3725  -1.8264  -1.7951
    -1.4754  -0.9531  -0.5594  -0.4696  -0.3813

     occupation numbers 
     1.0000   1.0000   1.0000   1.0000   1.0000   1.0000   1.0000   1.0000
     1.0000   1.0000   1.0000   1.0000   1.0000   1.0000   1.0000   1.0000
     1.0000   1.0000   1.0000   1.0000   1.0000   1.0000   1.0000   1.0000
     1.0000   1.0001   1.0008   1.0126   1.0427   0.6993   0.1573   0.0000
     0.0000   0.0000   0.0000   0.0000   0.0000   0.0000   0.0000   0.0000
     0.0000   0.0000   0.0000   0.0000   0.0000

          k = 0.1000-0.0738 0.0000 (152043 PWs)   bands (ev):

   -51.6517 -51.6509 -51.6504 -51.6497 -51.0074 -51.0062 -51.0060 -51.0048
   -50.4744 -50.4722 -50.4713 -50.4701 -50.4287 -50.4240 -50.4226 -50.4221
   -50.4182 -50.4178 -50.4169 -50.4162  -7.2423  -6.6960  -5.7689  -4.9831
    -4.5414  -4.4663  -4.2182  -3.8952  -3.8245  -3.7244  -3.6295  -3.5644
    -3.1694  -3.1686  -3.0623  -2.9542  -2.5704  -2.5518  -2.0019  -1.9427
    -1.7379  -0.8553  -0.7067  -0.4569  -0.3789

     occupation numbers 
     1.0000   1.0000   1.0000   1.0000   1.0000   1.0000   1.0000   1.0000
     1.0000   1.0000   1.0000   1.0000   1.0000   1.0000   1.0000   1.0000
     1.0000   1.0000   1.0000   1.0000   1.0000   1.0000   1.0000   1.0000
     1.0000   1.0000   1.0192   0.3535   0.1073   0.0084   0.0003   0.0000
     0.0000   0.0000   0.0000   0.0000   0.0000   0.0000   0.0000   0.0000
     0.0000   0.0000   0.0000   0.0000   0.0000

          k = 0.2000 0.0632 0.0000 (151969 PWs)   bands (ev):

   -51.6516 -51.6508 -51.6505 -51.6497 -51.0073 -51.0061 -51.0061 -51.0049
   -50.4741 -50.4721 -50.4715 -50.4703 -50.4285 -50.4250 -50.4220 -50.4218
   -50.4182 -50.4178 -50.4168 -50.4163  -7.1743  -6.6276  -5.7000  -5.5913
    -5.0559  -4.4722  -4.1825  -3.7686  -3.5711  -3.5097  -3.4571  -3.2957
    -3.1130  -2.9959  -2.9912  -2.8195  -2.5186  -2.2073  -2.1152  -1.8722
    -1.6902  -0.9214  -0.8545  -0.4373  -0.4154

     occupation numbers 
     1.0000   1.0000   1.0000   1.0000   1.0000   1.0000   1.0000   1.0000
     1.0000   1.0000   1.0000   1.0000   1.0000   1.0000   1.0000   1.0000
     1.0000   1.0000   1.0000   1.0000   1.0000   1.0000   1.0000   1.0000
     1.0000   1.0000   1.0377   0.0294   0.0000   0.0000   0.0000   0.0000
     0.0000   0.0000   0.0000   0.0000   0.0000   0.0000   0.0000   0.0000
     0.0000   0.0000   0.0000   0.0000   0.0000

          k = 0.2000 0.1687 0.0000 (151968 PWs)   bands (ev):

   -51.6516 -51.6508 -51.6505 -51.6497 -51.0073 -51.0061 -51.0061 -51.0049
   -50.4740 -50.4721 -50.4715 -50.4703 -50.4287 -50.4251 -50.4221 -50.4217
   -50.4182 -50.4177 -50.4168 -50.4162  -7.1160  -6.5695  -5.6887  -5.6436
    -5.1536  -4.4535  -4.2774  -4.2729  -3.8390  -3.3638  -3.3181  -3.2386
    -3.1173  -2.8991  -2.8097  -2.6953  -2.3172  -2.2185  -1.8518  -1.7797
    -1.4435  -1.0930  -0.7549  -0.5127  -0.4477

     occupation numbers 
     1.0000   1.0000   1.0000   1.0000   1.0000   1.0000   1.0000   1.0000
     1.0000   1.0000   1.0000   1.0000   1.0000   1.0000   1.0000   1.0000
     1.0000   1.0000   1.0000   1.0000   1.0000   1.0000   1.0000   1.0000
     1.0000   1.0000   1.0044   1.0050   0.1428   0.0000   0.0000   0.0000
     0.0000   0.0000   0.0000   0.0000   0.0000   0.0000   0.0000   0.0000
     0.0000   0.0000   0.0000   0.0000   0.0000

          k = 0.2000 0.2741 0.0000 (152020 PWs)   bands (ev):

   -51.6516 -51.6508 -51.6505 -51.6497 -51.0073 -51.0061 -51.0061 -51.0049
   -50.4739 -50.4720 -50.4715 -50.4703 -50.4289 -50.4252 -50.4223 -50.4216
   -50.4182 -50.4176 -50.4168 -50.4161  -7.0048  -6.4586  -5.7350  -5.5371
    -5.1999  -4.8394  -4.3568  -4.3161  -4.2664  -3.3996  -3.3001  -3.2201
    -3.1438  -2.8461  -2.7404  -2.6636  -2.2636  -2.1541  -1.5658  -1.5575
    -1.3037  -1.1338  -0.6790  -0.5626  -0.3915

     occupation numbers 
     1.0000   1.0000   1.0000   1.0000   1.0000   1.0000   1.0000   1.0000
     1.0000   1.0000   1.0000   1.0000   1.0000   1.0000   1.0000   1.0000
     1.0000   1.0000   1.0000   1.0000   1.0000   1.0000   1.0000   1.0000
     1.0000   1.0000   1.0003   1.0013   1.0060   0.0000   0.0000   0.0000
     0.0000   0.0000   0.0000   0.0000   0.0000   0.0000   0.0000   0.0000
     0.0000   0.0000   0.0000   0.0000   0.0000

          k = 0.2000 0.3795 0.0000 (151962 PWs)   bands (ev):

   -51.6516 -51.6508 -51.6505 -51.6497 -51.0073 -51.0061 -51.0061 -51.0049
   -50.4738 -50.4720 -50.4715 -50.4703 -50.4291 -50.4252 -50.4225 -50.4216
   -50.4182 -50.4175 -50.4168 -50.4160  -6.8404  -6.2954  -5.7299  -5.3894
    -5.3021  -5.1948  -4.7482  -4.3114  -4.2444  -3.7129  -3.3017  -3.2419
    -3.1513  -2.8204  -2.7480  -2.6618  -2.3972  -2.1706  -1.6025  -1.4512
    -1.2677  -0.9012  -0.6949  -0.5356  -0.3781

     occupation numbers 
     1.0000   1.0000   1.0000   1.0000   1.0000   1.0000   1.0000   1.0000
     1.0000   1.0000   1.0000   1.0000   1.0000   1.0000   1.0000   1.0000
     1.0000   1.0000   1.0000   1.0000   1.0000   1.0000   1.0000   1.0000
     1.0000   1.0000   1.0000   1.0016   1.0106   0.0059   0.0000   0.0000
     0.0000   0.0000   0.0000   0.0000   0.0000   0.0000   0.0000   0.0000
     0.0000   0.0000   0.0000   0.0000   0.0000

          k = 0.2000 0.4849 0.0000 (151925 PWs)   bands (ev):

   -51.6516 -51.6508 -51.6505 -51.6497 -51.0073 -51.0061 -51.0061 -51.0049
   -50.4736 -50.4719 -50.4715 -50.4703 -50.4293 -50.4251 -50.4226 -50.4217
   -50.4182 -50.4175 -50.4168 -50.4159  -6.6227  -6.0821  -5.7225  -5.6733
    -5.2849  -5.1382  -5.0473  -4.3629  -4.2588  -3.7930  -3.3956  -3.3438
    -3.2628  -2.9796  -2.8293  -2.7219  -2.3820  -2.2091  -1.9194  -1.4736
    -1.0503  -0.8930  -0.7721  -0.5097  -0.2525

     occupation numbers 
     1.0000   1.0000   1.0000   1.0000   1.0000   1.0000   1.0000   1.0000
     1.0000   1.0000   1.0000   1.0000   1.0000   1.0000   1.0000   1.0000
     1.0000   1.0000   1.0000   1.0000   1.0000   1.0000   1.0000   1.0000
     1.0000   1.0000   1.0000   1.0003   1.0073   0.0538   0.0000   0.0000
     0.0000   0.0000   0.0000   0.0000   0.0000   0.0000   0.0000   0.0000
     0.0000   0.0000   0.0000   0.0000   0.0000

          k = 0.2000 0.5903 0.0000 (151971 PWs)   bands (ev):

   -51.6516 -51.6508 -51.6505 -51.6497 -51.0073 -51.0061 -51.0061 -51.0049
   -50.4736 -50.4719 -50.4715 -50.4703 -50.4294 -50.4250 -50.4227 -50.4219
   -50.4182 -50.4174 -50.4168 -50.4158  -6.3519  -6.0993  -5.8066  -5.5656
    -5.5625  -5.0303  -4.8792  -4.6404  -4.1594  -3.6828  -3.6395  -3.5399
    -3.3030  -3.1813  -3.0524  -2.8278  -2.2880  -2.2780  -2.0832  -1.5813
    -0.9124  -0.8599  -0.8244  -0.4067  -0.1470

     occupation numbers 
     1.0000   1.0000   1.0000   1.0000   1.0000   1.0000   1.0000   1.0000
     1.0000   1.0000   1.0000   1.0000   1.0000   1.0000   1.0000   1.0000
     1.0000   1.0000   1.0000   1.0000   1.0000   1.0000   1.0000   1.0000
     1.0000   1.0000   1.0000   1.0000   1.0531   0.0022   0.0004   0.0000
     0.0000   0.0000   0.0000   0.0000   0.0000   0.0000   0.0000   0.0000
     0.0000   0.0000   0.0000   0.0000   0.0000

          k = 0.2000-0.5692 0.0000 (151945 PWs)   bands (ev):

   -51.6516 -51.6508 -51.6505 -51.6497 -51.0073 -51.0061 -51.0061 -51.0049
   -50.4736 -50.4719 -50.4714 -50.4702 -50.4293 -50.4248 -50.4227 -50.4221
   -50.4182 -50.4174 -50.4168 -50.4158  -6.4102  -6.0339  -5.8597  -5.4989
    -5.4072  -4.9271  -4.8718  -4.5841  -4.0269  -3.9935  -3.7036  -3.6650
    -3.4449  -3.2888  -3.1510  -2.8373  -2.6372  -2.3025  -1.9475  -1.5641
    -1.0540  -0.8372  -0.7041  -0.2079  -0.0332

     occupation numbers 
     1.0000   1.0000   1.0000   1.0000   1.0000   1.0000   1.0000   1.0000
     1.0000   1.0000   1.0000   1.0000   1.0000   1.0000   1.0000   1.0000
     1.0000   1.0000   1.0000   1.0000   1.0000   1.0000   1.0000   1.0000
     1.0000   1.0000   1.0000   1.0000   0.9908   0.8666   0.0043   0.0011
     0.0000   0.0000   0.0000   0.0000   0.0000   0.0000   0.0000   0.0000
     0.0000   0.0000   0.0000   0.0000   0.0000

          k = 0.2000-0.4638 0.0000 (151886 PWs)   bands (ev):

   -51.6516 -51.6508 -51.6505 -51.6497 -51.0073 -51.0061 -51.0061 -51.0049
   -50.4737 -50.4719 -50.4714 -50.4702 -50.4292 -50.4246 -50.4226 -50.4223
   -50.4182 -50.4175 -50.4168 -50.4159  -6.6704  -6.1284  -5.6439  -5.2773
    -5.1989  -5.0224  -4.6660  -4.3643  -4.3177  -3.9021  -3.8028  -3.7597
    -3.7049  -3.3306  -2.9781  -2.9353  -2.8146  -2.3989  -1.8671  -1.4565
    -1.2002  -0.8990  -0.4724  -0.0977   0.1168

     occupation numbers 
     1.0000   1.0000   1.0000   1.0000   1.0000   1.0000   1.0000   1.0000
     1.0000   1.0000   1.0000   1.0000   1.0000   1.0000   1.0000   1.0000
     1.0000   1.0000   1.0000   1.0000   1.0000   1.0000   1.0000   1.0000
     1.0000   1.0000   1.0000   1.0002   1.0013   0.3870   0.0675   0.0232
     0.0045   0.0000   0.0000   0.0000   0.0000   0.0000   0.0000   0.0000
     0.0000   0.0000   0.0000   0.0000   0.0000

          k = 0.2000-0.3584 0.0000 (151888 PWs)   bands (ev):

   -51.6516 -51.6508 -51.6505 -51.6497 -51.0073 -51.0061 -51.0061 -51.0049
   -50.4738 -50.4720 -50.4714 -50.4702 -50.4290 -50.4245 -50.4225 -50.4224
   -50.4182 -50.4176 -50.4168 -50.4160  -6.8775  -6.3322  -5.4203  -5.2143
    -4.9429  -4.7074  -4.6655  -4.4003  -4.2510  -4.1671  -3.7748  -3.6597
    -3.5852  -3.3586  -3.2511  -2.8145  -2.7961  -2.3747  -1.8343  -1.4645
    -1.2854  -0.9167  -0.2682  -0.2431  -0.0861

     occupation numbers 
     1.0000   1.0000   1.0000   1.0000   1.0000   1.0000   1.0000   1.0000
     1.0000   1.0000   1.0000   1.0000   1.0000   1.0000   1.0000   1.0000
     1.0000   1.0000   1.0000   1.0000   1.0000   1.0000   1.0000   1.0000
     1.0000   1.0000   1.0000   1.0001   1.0090   1.0478   0.0345   0.0009
     0.0000   0.0000   0.0000   0.0000   0.0000   0.0000   0.0000   0.0000
     0.0000   0.0000   0.0000   0.0000   0.0000

          k = 0.2000-0.2530 0.0000 (151943 PWs)   bands (ev):

   -51.6516 -51.6508 -51.6505 -51.6497 -51.0073 -51.0061 -51.0061 -51.0049
   -50.4739 -50.4720 -50.4714 -50.4702 -50.4288 -50.4245 -50.4224 -50.4222
   -50.4182 -50.4176 -50.4168 -50.4161  -7.0313  -6.4850  -5.5622  -4.9979
    -4.7427  -4.6463  -4.4518  -4.3485  -4.1982  -4.1067  -3.7701  -3.6215
    -3.3522  -3.3329  -3.2088  -2.8586  -2.7990  -2.2481  -1.8381  -1.6053
    -1.2753  -1.2027  -0.4030  -0.2829  -0.2261

     occupation numbers 
     1.0000   1.0000   1.0000   1.0000   1.0000   1.0000   1.0000   1.0000
     1.0000   1.0000   1.0000   1.0000   1.0000   1.0000   1.0000   1.0000
     1.0000   1.0000   1.0000   1.0000   1.0000   1.0000   1.0000   1.0000
     1.0000   1.0000   1.0000   1.0004   1.0286   1.0822   0.0306   0.0002
     0.0000   0.0000   0.0000   0.0000   0.0000   0.0000   0.0000   0.0000
     0.0000   0.0000   0.0000   0.0000   0.0000

          k = 0.2000-0.1476 0.0000 (151949 PWs)   bands (ev):

   -51.6516 -51.6508 -51.6505 -51.6497 -51.0073 -51.0061 -51.0061 -51.0049
   -50.4741 -50.4721 -50.4714 -50.4702 -50.4286 -50.4247 -50.4223 -50.4221
   -50.4182 -50.4177 -50.4168 -50.4162  -7.1319  -6.5853  -5.6589  -5.2445
    -4.7102  -4.4504  -4.2945  -4.1862  -3.8999  -3.7502  -3.7481  -3.6758
    -3.3244  -3.0873  -2.9145  -2.9089  -2.8202  -2.3636  -1.8796  -1.8107
    -1.5007  -1.1743  -0.5231  -0.4323  -0.3879

     occupation numbers 
     1.0000   1.0000   1.0000   1.0000   1.0000   1.0000   1.0000   1.0000
     1.0000   1.0000   1.0000   1.0000   1.0000   1.0000   1.0000   1.0000
     1.0000   1.0000   1.0000   1.0000   1.0000   1.0000   1.0000   1.0000
     1.0000   1.0000   1.0027   1.0355   0.3763   0.0179   0.0169   0.0017
     0.0000   0.0000   0.0000   0.0000   0.0000   0.0000   0.0000   0.0000
     0.0000   0.0000   0.0000   0.0000   0.0000

          k = 0.2000-0.0422 0.0000 (151969 PWs)   bands (ev):

   -51.6516 -51.6508 -51.6505 -51.6497 -51.0073 -51.0061 -51.0061 -51.0049
   -50.4741 -50.4721 -50.4714 -50.4702 -50.4285 -50.4248 -50.4221 -50.4220
   -50.4182 -50.4178 -50.4168 -50.4163  -7.1795  -6.6329  -5.7052  -5.4429
    -4.9074  -4.4759  -4.0492  -3.9273  -3.6658  -3.6422  -3.4237  -3.3887
    -3.2676  -3.1652  -3.0026  -2.8405  -2.5677  -2.5399  -1.9720  -1.8743
    -1.7190  -1.0221  -0.7444  -0.4149  -0.3345

     occupation numbers 
     1.0000   1.0000   1.0000   1.0000   1.0000   1.0000   1.0000   1.0000
     1.0000   1.0000   1.0000   1.0000   1.0000   1.0000   1.0000   1.0000
     1.0000   1.0000   1.0000   1.0000   1.0000   1.0000   1.0000   1.0000
     1.0000   1.0000   1.0437   0.5195   0.0012   0.0005   0.0000   0.0000
     0.0000   0.0000   0.0000   0.0000   0.0000   0.0000   0.0000   0.0000
     0.0000   0.0000   0.0000   0.0000   0.0000

          k = 0.3000 0.0949 0.0000 (151964 PWs)   bands (ev):

   -51.6514 -51.6507 -51.6506 -51.6499 -51.0071 -51.0062 -51.0060 -51.0051
   -50.4737 -50.4719 -50.4718 -50.4705 -50.4282 -50.4258 -50.4219 -50.4216
   -50.4181 -50.4177 -50.4168 -50.4164  -7.0430  -6.4960  -5.9878  -5.5685
    -5.4458  -4.5425  -4.3463  -3.8086  -3.6632  -3.4271  -3.4178  -3.0981
    -2.9364  -2.8995  -2.8414  -2.4821  -2.3740  -2.1929  -1.9290  -1.7506
    -1.5328  -1.1462  -0.8966  -0.3886  -0.3719

     occupation numbers 
     1.0000   1.0000   1.0000   1.0000   1.0000   1.0000   1.0000   1.0000
     1.0000   1.0000   1.0000   1.0000   1.0000   1.0000   1.0000   1.0000
     1.0000   1.0000   1.0000   1.0000   1.0000   1.0000   1.0000   1.0000
     1.0000   1.0000   1.0005   0.0768   0.0011   0.0000   0.0000   0.0000
     0.0000   0.0000   0.0000   0.0000   0.0000   0.0000   0.0000   0.0000
     0.0000   0.0000   0.0000   0.0000   0.0000

          k = 0.3000 0.2003 0.0000 (152028 PWs)   bands (ev):

   -51.6514 -51.6507 -51.6506 -51.6499 -51.0071 -51.0062 -51.0060 -51.0051
   -50.4737 -50.4719 -50.4718 -50.4705 -50.4284 -50.4259 -50.4220 -50.4214
   -50.4181 -50.4177 -50.4168 -50.4163  -6.9689  -6.4220  -6.0710  -5.5293
    -5.4966  -4.6232  -4.3975  -4.2361  -3.8520  -3.5010  -3.2194  -3.0482
    -2.8084  -2.7623  -2.7109  -2.4580  -2.1380  -2.1352  -1.7808  -1.6284
    -1.3406  -1.2780  -0.7568  -0.4968  -0.4641

     occupation numbers 
     1.0000   1.0000   1.0000   1.0000   1.0000   1.0000   1.0000   1.0000
     1.0000   1.0000   1.0000   1.0000   1.0000   1.0000   1.0000   1.0000
     1.0000   1.0000   1.0000   1.0000   1.0000   1.0000   1.0000   1.0000
     1.0000   1.0000   1.0001   1.0129   0.1809   0.0000   0.0000   0.0000
     0.0000   0.0000   0.0000   0.0000   0.0000   0.0000   0.0000   0.0000
     0.0000   0.0000   0.0000   0.0000   0.0000

          k = 0.3000 0.3057 0.0000 (152004 PWs)   bands (ev):

   -51.6514 -51.6507 -51.6506 -51.6499 -51.0071 -51.0062 -51.0060 -51.0051
   -50.4735 -50.4719 -50.4718 -50.4706 -50.4285 -50.4259 -50.4222 -50.4214
   -50.4181 -50.4176 -50.4168 -50.4162  -6.8418  -6.2953  -6.1022  -5.5607
    -5.3756  -4.8663  -4.6536  -4.3332  -4.1597  -3.5192  -3.3728  -2.9096
    -2.8389  -2.7006  -2.4737  -2.4501  -2.2822  -2.1780  -1.6020  -1.4994
    -1.4178  -0.9586  -0.6328  -0.6058  -0.4638

     occupation numbers 
     1.0000   1.0000   1.0000   1.0000   1.0000   1.0000   1.0000   1.0000
     1.0000   1.0000   1.0000   1.0000   1.0000   1.0000   1.0000   1.0000
     1.0000   1.0000   1.0000   1.0000   1.0000   1.0000   1.0000   1.0000
     1.0000   1.0000   1.0000   1.0008   1.0528   0.0000   0.0000   0.0000
     0.0000   0.0000   0.0000   0.0000   0.0000   0.0000   0.0000   0.0000
     0.0000   0.0000   0.0000   0.0000   0.0000

          k = 0.3000 0.4111 0.0000 (151987 PWs)   bands (ev):

   -51.6514 -51.6507 -51.6506 -51.6499 -51.0071 -51.0062 -51.0060 -51.0051
   -50.4734 -50.4718 -50.4717 -50.4705 -50.4287 -50.4259 -50.4223 -50.4214
   -50.4181 -50.4175 -50.4168 -50.4161  -6.6616  -6.1166  -6.0814  -5.5398
    -5.3211  -5.2135  -4.7463  -4.6333  -4.1249  -3.6525  -3.5067  -3.1453
    -2.7974  -2.7101  -2.6472  -2.4568  -2.3137  -2.1647  -1.7287  -1.3854
    -1.3486  -0.7997  -0.7183  -0.5277  -0.4545

     occupation numbers 
     1.0000   1.0000   1.0000   1.0000   1.0000   1.0000   1.0000   1.0000
     1.0000   1.0000   1.0000   1.0000   1.0000   1.0000   1.0000   1.0000
     1.0000   1.0000   1.0000   1.0000   1.0000   1.0000   1.0000   1.0000
     1.0000   1.0000   1.0000   1.0000   1.0752   0.0007   0.0000   0.0000
     0.0000   0.0000   0.0000   0.0000   0.0000   0.0000   0.0000   0.0000
     0.0000   0.0000   0.0000   0.0000   0.0000

          k = 0.3000 0.5165 0.0000 (151948 PWs)   bands (ev):

   -51.6514 -51.6507 -51.6506 -51.6499 -51.0071 -51.0062 -51.0060 -51.0051
   -50.4733 -50.4718 -50.4717 -50.4705 -50.4288 -50.4258 -50.4225 -50.4215
   -50.4181 -50.4175 -50.4168 -50.4161  -6.4282  -6.0086  -5.8921  -5.7156
    -5.4667  -5.2249  -4.9074  -4.5627  -4.3156  -3.6444  -3.5838  -3.4332
    -3.0184  -2.9227  -2.8758  -2.4728  -2.2447  -2.1336  -1.9348  -1.4298
    -1.1590  -0.8943  -0.8256  -0.4135  -0.2847

     occupation numbers 
     1.0000   1.0000   1.0000   1.0000   1.0000   1.0000   1.0000   1.0000
     1.0000   1.0000   1.0000   1.0000   1.0000   1.0000   1.0000   1.0000
     1.0000   1.0000   1.0000   1.0000   1.0000   1.0000   1.0000   1.0000
     1.0000   1.0000   1.0000   1.0000   1.0014   0.0005   0.0000   0.0000
     0.0000   0.0000   0.0000   0.0000   0.0000   0.0000   0.0000   0.0000
     0.0000   0.0000   0.0000   0.0000   0.0000

          k = 0.3000 0.6219 0.0000 (151942 PWs)   bands (ev):

   -51.6514 -51.6507 -51.6506 -51.6499 -51.0071 -51.0062 -51.0060 -51.0051
   -50.4733 -50.4718 -50.4717 -50.4705 -50.4289 -50.4257 -50.4225 -50.4217
   -50.4181 -50.4175 -50.4168 -50.4160  -6.1423  -6.0788  -5.8839  -5.6017
    -5.5339  -5.3416  -4.6926  -4.5870  -4.4433  -4.0062  -3.5400  -3.4634
    -3.3340  -3.0901  -2.9903  -2.5671  -2.4527  -2.1603  -1.8666  -1.5320
    -1.2603  -0.7830  -0.7303  -0.2840  -0.1023

     occupation numbers 
     1.0000   1.0000   1.0000   1.0000   1.0000   1.0000   1.0000   1.0000
     1.0000   1.0000   1.0000   1.0000   1.0000   1.0000   1.0000   1.0000
     1.0000   1.0000   1.0000   1.0000   1.0000   1.0000   1.0000   1.0000
     1.0000   1.0000   1.0000   1.0000   1.0000   0.9200   0.0000   0.0000
     0.0000   0.0000   0.0000   0.0000   0.0000   0.0000   0.0000   0.0000
     0.0000   0.0000   0.0000   0.0000   0.0000

          k = 0.3000-0.5376 0.0000 (151892 PWs)   bands (ev):

   -51.6514 -51.6507 -51.6506 -51.6499 -51.0071 -51.0062 -51.0060 -51.0051
   -50.4733 -50.4717 -50.4717 -50.4705 -50.4288 -50.4256 -50.4225 -50.4219
   -50.4181 -50.4175 -50.4167 -50.4161  -6.3751  -5.8569  -5.7730  -5.7076
    -5.2835  -5.1653  -4.8721  -4.4229  -4.3724  -4.2814  -3.8430  -3.6194
    -3.2696  -3.0873  -2.9693  -2.8816  -2.5774  -2.2215  -1.8600  -1.4576
    -1.4037  -0.8160  -0.5153  -0.1560  -0.0462

     occupation numbers 
     1.0000   1.0000   1.0000   1.0000   1.0000   1.0000   1.0000   1.0000
     1.0000   1.0000   1.0000   1.0000   1.0000   1.0000   1.0000   1.0000
     1.0000   1.0000   1.0000   1.0000   1.0000   1.0000   1.0000   1.0000
     1.0000   1.0000   1.0000   1.0000   1.0002   1.0039   0.1537   0.0002
     0.0000   0.0000   0.0000   0.0000   0.0000   0.0000   0.0000   0.0000
     0.0000   0.0000   0.0000   0.0000   0.0000

          k = 0.3000-0.4322 0.0000 (151831 PWs)   bands (ev):

   -51.6514 -51.6507 -51.6506 -51.6499 -51.0071 -51.0062 -51.0060 -51.0051
   -50.4734 -50.4717 -50.4717 -50.4705 -50.4287 -50.4255 -50.4224 -50.4220
   -50.4181 -50.4175 -50.4167 -50.4161  -6.6192  -6.0747  -5.4802  -5.4044
    -5.1843  -4.9458  -4.8182  -4.7929  -4.2865  -4.1420  -3.9968  -3.6763
    -3.3867  -3.1579  -2.9768  -2.7412  -2.6868  -2.3140  -1.9368  -1.4363
    -1.3519  -0.8150  -0.3832  -0.2647  -0.1531

     occupation numbers 
     1.0000   1.0000   1.0000   1.0000   1.0000   1.0000   1.0000   1.0000
     1.0000   1.0000   1.0000   1.0000   1.0000   1.0000   1.0000   1.0000
     1.0000   1.0000   1.0000   1.0000   1.0000   1.0000   1.0000   1.0000
     1.0000   1.0000   1.0000   1.0000   1.0034   1.0649   0.8812   0.0017
     0.0000   0.0000   0.0000   0.0000   0.0000   0.0000   0.0000   0.0000
     0.0000   0.0000   0.0000   0.0000   0.0000

          k = 0.3000-0.3268 0.0000 (151876 PWs)   bands (ev):

   -51.6514 -51.6507 -51.6506 -51.6499 -51.0071 -51.0062 -51.0060 -51.0051
   -50.4735 -50.4718 -50.4717 -50.4705 -50.4285 -50.4255 -50.4222 -50.4221
   -50.4181 -50.4176 -50.4167 -50.4162  -6.8100  -6.2637  -5.3461  -5.2039
    -5.1420  -4.9603  -4.6581  -4.5927  -4.4176  -4.1474  -3.7906  -3.6463
    -3.4406  -3.1771  -2.8739  -2.8044  -2.6892  -2.2131  -1.9855  -1.4337
    -1.3937  -0.8811  -0.4847  -0.2791  -0.2390

     occupation numbers 
[...]
     1.0000   1.0000   1.0000   1.0000   1.0000   1.0000   1.0000   1.0000
     1.0000   1.0000   1.0000   1.0000   1.0000   1.0000   1.0000   1.0000
     1.0000   1.0000   1.0000   1.0000   1.0000   1.0000   0.1028   0.1028
     0.0000   0.0000   0.0000   0.0000   0.0000   0.0000   0.0000   0.0000
     0.0000   0.0000   0.0000   0.0000   0.0000

     the Fermi energy is    -3.9040 ev

!    total energy              =    -300.79848280 Ry
     total all-electron energy =      -300.798645 Ry
     estimated scf accuracy    <          9.3E-13 Ry

!    total charge of GC-SCF    =       1.70708237 e
     smearing contrib. (-TS)   =      -0.00032917 Ry
     internal energy E=F+TS    =    -300.79815363 Ry

     The total energy is F=E-TS. E is the sum of the following terms:
     one-electron contribution =   -3305.66318671 Ry
     hartree contribution      =    1617.25542098 Ry
     xc contribution           =     -70.95544126 Ry
     ewald contribution        =    1507.93615894 Ry
     one-center paw contrib.   =       1.76757655 Ry
      -> PAW hartree energy AE =       7.32435138 Ry
      -> PAW hartree energy PS =      -7.10119537 Ry
      -> PAW xc energy AE      =      -3.46535833 Ry
      -> PAW xc energy PS      =       3.33059982 Ry
      -> total E_H with PAW    =    1617.47857698 Ry
      -> total E_XC with PAW   =     -71.09019977 Ry
     pot.stat. contrib. (-muN) =      -0.48982801 Ry
     electrostatic embedding   =      -0.74758946 Ry
     cavitation energy         =       0.01673583 Ry
     electrolyte free energy   =      -0.01322984 Ry
     correction to one-el term =     -49.90477064 Ry

     WARNING: you are using the parabolic pbc correction;
              the potential shift above must be added to 
              band and Fermi energies.

     convergence has been achieved in  14 iterations
     The dielectric solvent contribution to forces
     atom    1 type  1   force =    -0.00000086    0.00546695   -0.06346639
     atom    2 type  1   force =     0.00000002   -0.00335185   -0.04577989
     atom    3 type  1   force =    -0.00000016    0.00091495   -0.02720068
     atom    4 type  1   force =     0.00000002   -0.00017875   -0.00995044
     atom    5 type  1   force =     0.00000012    0.00017957    0.01164140
     atom    6 type  1   force =     0.00000007   -0.00090046    0.02881279
     atom    7 type  1   force =     0.00000001    0.00334806    0.04757348
     atom    8 type  1   force =     0.00000124   -0.00549480    0.06525709
     atom    9 type  1   force =     0.00000085    0.00290689    0.00972593
     atom   10 type  1   force =     0.00000028   -0.00290110   -0.00940265
     atom   11 type  1   force =    -0.00000084    0.00546600   -0.06346707
     atom   12 type  1   force =     0.00000023   -0.00335159   -0.04577955
     atom   13 type  1   force =     0.00000012    0.00091500   -0.02720004
     atom   14 type  1   force =    -0.00000015   -0.00017879   -0.00995027
     atom   15 type  1   force =    -0.00000000    0.00017953    0.01164218
     atom   16 type  1   force =    -0.00000003   -0.00090048    0.02881307
     atom   17 type  1   force =    -0.00000024    0.00334804    0.04757309
     atom   18 type  1   force =     0.00000057   -0.00549581    0.06525668
     atom   19 type  1   force =    -0.00000053    0.00290712    0.00973126
     atom   20 type  1   force =    -0.00000060   -0.00290132   -0.00939292
 

     Forces acting on atoms (cartesian axes, Ry/au):

     atom    1 type  1   force =     0.00000091   -0.00004704   -0.00011470
     atom    2 type  1   force =    -0.00000543    0.00013149   -0.00007752
     atom    3 type  1   force =    -0.00000061   -0.00017575   -0.00003130
     atom    4 type  1   force =     0.00000132    0.00000533    0.00020655
     atom    5 type  1   force =    -0.00000063   -0.00002146    0.00005766
     atom    6 type  1   force =     0.00000008    0.00017049    0.00019206
     atom    7 type  1   force =     0.00000443   -0.00014297    0.00011650
     atom    8 type  1   force =    -0.00000135    0.00004774   -0.00001461
     atom    9 type  1   force =     0.00000056    0.00015878   -0.00019380
     atom   10 type  1   force =    -0.00000018   -0.00012457   -0.00013952
     atom   11 type  1   force =     0.00000149   -0.00004857   -0.00011555
     atom   12 type  1   force =    -0.00000357    0.00013138   -0.00007740
     atom   13 type  1   force =     0.00000125   -0.00017690   -0.00003189
     atom   14 type  1   force =     0.00000045    0.00000544    0.00020556
     atom   15 type  1   force =    -0.00000135   -0.00002188    0.00005495
     atom   16 type  1   force =    -0.00000082    0.00017119    0.00019144
     atom   17 type  1   force =     0.00000438   -0.00014293    0.00011699
     atom   18 type  1   force =    -0.00000109    0.00004573   -0.00001529
     atom   19 type  1   force =     0.00000010    0.00015870   -0.00019331
     atom   20 type  1   force =     0.00000007   -0.00012420   -0.00013684
     The non-local contrib.  to forces
     atom    1 type  1   force =     0.00003316    0.01220369   -0.05427522
     atom    2 type  1   force =     0.00002405    0.00039892    0.00174250
     atom    3 type  1   force =     0.00002682    0.00064388   -0.00646514
     atom    4 type  1   force =     0.00003613   -0.00148020   -0.00385364
     atom    5 type  1   force =    -0.00003700    0.00154125    0.00471879
     atom    6 type  1   force =    -0.00002776   -0.00085706    0.00650933
     atom    7 type  1   force =    -0.00002583   -0.00027944   -0.00167308
     atom    8 type  1   force =    -0.00003251   -0.01220685    0.05362153
     atom    9 type  1   force =    -0.00000470    0.00759070    0.09480650
     atom   10 type  1   force =     0.00000915   -0.00770304   -0.09550226
     atom   11 type  1   force =     0.00003539    0.01220241   -0.05427437
     atom   12 type  1   force =     0.00002777    0.00040091    0.00174469
     atom   13 type  1   force =     0.00003037    0.00064667   -0.00646175
     atom   14 type  1   force =     0.00003418   -0.00148211   -0.00385307
     atom   15 type  1   force =    -0.00003806    0.00153931    0.00471781
     atom   16 type  1   force =    -0.00002939   -0.00085710    0.00650811
     atom   17 type  1   force =    -0.00002679   -0.00027845   -0.00167308
     atom   18 type  1   force =    -0.00003266   -0.01220979    0.05362072
     atom   19 type  1   force =    -0.00000925    0.00759212    0.09480586
     atom   20 type  1   force =     0.00000613   -0.00770281   -0.09549967
     The ionic contribution  to forces
     atom    1 type  1   force =    -0.00003003    0.10235915   -9.08561631
     atom    2 type  1   force =    -0.00014321   -0.10000845   -6.64546614
     atom    3 type  1   force =    -0.00015379    0.02291731   -3.87840577
     atom    4 type  1   force =    -0.00001666    0.00254161   -1.45028666
     atom    5 type  1   force =     0.00006061   -0.00298907    1.46203656
     atom    6 type  1   force =     0.00013240   -0.02193655    3.86964161
     atom    7 type  1   force =     0.00012182    0.09969681    6.66176122
     atom    8 type  1   force =     0.00001921   -0.10289221    9.07108586
     atom    9 type  1   force =     0.00004454    0.03707293   11.25509366
     atom   10 type  1   force =    -0.00001498   -0.03673383  -11.25995040
     atom   11 type  1   force =    -0.00000687    0.10233183   -9.08551975
     atom   12 type  1   force =    -0.00008391   -0.09999022   -6.64539964
     atom   13 type  1   force =    -0.00008647    0.02292154   -3.87830874
     atom   14 type  1   force =    -0.00006841    0.00253157   -1.45027943
     atom   15 type  1   force =     0.00003330   -0.00300296    1.46211182
     atom   16 type  1   force =     0.00011264   -0.02192690    3.86966014
     atom   17 type  1   force =     0.00010016    0.09970402    6.66175307
     atom   18 type  1   force =     0.00000625   -0.10294136    9.07109038
     atom   19 type  1   force =     0.00000727    0.03707710   11.25502943
     atom   20 type  1   force =    -0.00003388   -0.03673232  -11.26003090
     The local contribution  to forces
     atom    1 type  1   force =    -0.00000135   -0.12007658    9.20324387
     atom    2 type  1   force =     0.00011373    0.10309251    6.68943309
     atom    3 type  1   force =     0.00012651   -0.02465181    3.91203660
     atom    4 type  1   force =    -0.00001815   -0.00087772    1.46429481
     atom    5 type  1   force =    -0.00002434    0.00124687   -1.47834070
     atom    6 type  1   force =    -0.00010466    0.02386413   -3.90477204
     atom    7 type  1   force =    -0.00009156   -0.10290837   -6.70755714
     atom    8 type  1   force =     0.00001078    0.12064099   -9.18998370
     atom    9 type  1   force =    -0.00004008   -0.04741023  -11.35982474
     atom   10 type  1   force =     0.00000541    0.04721231   11.36471634
     atom   11 type  1   force =    -0.00002621   -0.12004856    9.20314624
     atom   12 type  1   force =     0.00005236    0.10307191    6.68936418
     atom   13 type  1   force =     0.00005723   -0.02466002    3.91193494
     atom   14 type  1   force =     0.00003484   -0.00086561    1.46428584
     atom   15 type  1   force =     0.00000342    0.00126233   -1.47841846
     atom   16 type  1   force =    -0.00008406    0.02385524   -3.90479026
     atom   17 type  1   force =    -0.00006874   -0.10291652   -6.70754813
     atom   18 type  1   force =     0.00002481    0.12069208   -9.18998769
     atom   19 type  1   force =     0.00000265   -0.04741612  -11.35976473
     atom   20 type  1   force =     0.00002848    0.04721118   11.36478721
     The core correction contribution to forces
     atom    1 type  1   force =     0.00000000    0.00000000    0.00000000
     atom    2 type  1   force =     0.00000000    0.00000000    0.00000000
     atom    3 type  1   force =     0.00000000    0.00000000    0.00000000
     atom    4 type  1   force =     0.00000000    0.00000000    0.00000000
     atom    5 type  1   force =     0.00000000    0.00000000    0.00000000
     atom    6 type  1   force =     0.00000000    0.00000000    0.00000000
     atom    7 type  1   force =     0.00000000    0.00000000    0.00000000
     atom    8 type  1   force =     0.00000000    0.00000000    0.00000000
     atom    9 type  1   force =     0.00000000    0.00000000    0.00000000
     atom   10 type  1   force =     0.00000000    0.00000000    0.00000000
     atom   11 type  1   force =     0.00000000    0.00000000    0.00000000
     atom   12 type  1   force =     0.00000000    0.00000000    0.00000000
     atom   13 type  1   force =     0.00000000    0.00000000    0.00000000
     atom   14 type  1   force =     0.00000000    0.00000000    0.00000000
     atom   15 type  1   force =     0.00000000    0.00000000    0.00000000
     atom   16 type  1   force =     0.00000000    0.00000000    0.00000000
     atom   17 type  1   force =     0.00000000    0.00000000    0.00000000
     atom   18 type  1   force =     0.00000000    0.00000000    0.00000000
     atom   19 type  1   force =     0.00000000    0.00000000    0.00000000
     atom   20 type  1   force =     0.00000000    0.00000000    0.00000000
     The Hubbard contrib.    to forces
     atom    1 type  1   force =     0.00000000    0.00000000    0.00000000
     atom    2 type  1   force =     0.00000000    0.00000000    0.00000000
     atom    3 type  1   force =     0.00000000    0.00000000    0.00000000
     atom    4 type  1   force =     0.00000000    0.00000000    0.00000000
     atom    5 type  1   force =     0.00000000    0.00000000    0.00000000
     atom    6 type  1   force =     0.00000000    0.00000000    0.00000000
     atom    7 type  1   force =     0.00000000    0.00000000    0.00000000
     atom    8 type  1   force =     0.00000000    0.00000000    0.00000000
     atom    9 type  1   force =     0.00000000    0.00000000    0.00000000
     atom   10 type  1   force =     0.00000000    0.00000000    0.00000000
     atom   11 type  1   force =     0.00000000    0.00000000    0.00000000
     atom   12 type  1   force =     0.00000000    0.00000000    0.00000000
     atom   13 type  1   force =     0.00000000    0.00000000    0.00000000
     atom   14 type  1   force =     0.00000000    0.00000000    0.00000000
     atom   15 type  1   force =     0.00000000    0.00000000    0.00000000
     atom   16 type  1   force =     0.00000000    0.00000000    0.00000000
     atom   17 type  1   force =     0.00000000    0.00000000    0.00000000
     atom   18 type  1   force =     0.00000000    0.00000000    0.00000000
     atom   19 type  1   force =     0.00000000    0.00000000    0.00000000
     atom   20 type  1   force =     0.00000000    0.00000000    0.00000000
     The SCF correction term to forces
     atom    1 type  1   force =    -0.00000002   -0.00000040   -0.00000283
     atom    2 type  1   force =    -0.00000003    0.00000021   -0.00000925
     atom    3 type  1   force =    -0.00000000   -0.00000025    0.00000151
     atom    4 type  1   force =    -0.00000003    0.00000022    0.00000030
     atom    5 type  1   force =    -0.00000001   -0.00000024   -0.00000058
     atom    6 type  1   force =     0.00000001    0.00000026   -0.00000180
     atom    7 type  1   force =    -0.00000002   -0.00000018    0.00000983
     atom    8 type  1   force =    -0.00000008    0.00000044    0.00000243
     atom    9 type  1   force =    -0.00000006   -0.00000168    0.00000268
     atom   10 type  1   force =    -0.00000005    0.00000093   -0.00000273
     atom   11 type  1   force =     0.00000000   -0.00000041   -0.00000279
     atom   12 type  1   force =    -0.00000003    0.00000021   -0.00000925
     atom   13 type  1   force =    -0.00000000   -0.00000025    0.00000151
     atom   14 type  1   force =    -0.00000003    0.00000022    0.00000030
     atom   15 type  1   force =    -0.00000001   -0.00000024   -0.00000058
     atom   16 type  1   force =     0.00000001    0.00000027   -0.00000179
     atom   17 type  1   force =    -0.00000002   -0.00000018    0.00000985
     atom   18 type  1   force =    -0.00000007    0.00000045    0.00000243
     atom   19 type  1   force =    -0.00000006   -0.00000168    0.00000269
     atom   20 type  1   force =    -0.00000006    0.00000091   -0.00000273

     Total force =     0.000796     Total SCF correction =     0.000021
     Energy error            =      1.9E-06 Ry
     Gradient error          =      2.1E-04 Ry/Bohr

     bfgs converged in  32 scf cycles and  31 bfgs steps
     (criteria: energy <  1.0E-05 Ry, force <  3.9E-04 Ry/Bohr)

     End of BFGS Geometry Optimization

     Final energy             =    -300.7984828005 Ry

     File ./Li/Lithium.bfgs deleted, as requested
Begin final coordinates

ATOMIC_POSITIONS (angstrom)
Li               1.7189887627        2.1301049780       21.1761860807
Li               0.0014077452        4.4927566419       22.2182355712
Li               0.0010897701        1.1179153528       23.3551970765
Li               1.7179303492        3.2890875764       24.3654177325
Li               1.7171775932       -0.0401269470       25.5529499382
Li              -0.0010654961        2.1345456788       26.5596192687
Li               1.7161734688        4.1950669156       27.7193896585
Li               1.7161919139        1.1382025880       28.7580949170
Li              -0.0016208827        3.5269366580       30.2377753020
Li               3.4367672507       -0.2587183768       19.7211238741
Li               5.1541359377        2.1301591824       21.1762333473
Li               3.4365261058        4.4927740973       22.2182567441
Li               3.4362012538        1.1179628021       23.3552295072
Li               5.1531271057        3.2890637539       24.3654325232
Li               5.1523583633       -0.0401339890       25.5529980735
Li               3.4340884240        2.1345376701       26.5596323850
Li               5.1513592327        4.1950658999       27.7193875771
Li               5.1513598980        1.1382608680       28.7581010384
Li               3.4335507456        3.5269566393       30.2377022485
Li               6.8719110617       -0.2587402149       19.7209920209
End final coordinates



     Writing all to output data dir ./Li/Lithium.save/ :
     XML data file
     init_run     :      6.25s CPU      7.04s WALL (       1 calls)
     electrons    :   9579.30s CPU   9651.46s WALL (      32 calls)
     update_pot   :      3.00s CPU      3.09s WALL (      31 calls)
     forces       :    227.00s CPU    227.88s WALL (      32 calls)

     Called by init_run:
     wfcinit      :      2.49s CPU      2.68s WALL (       1 calls)
     wfcinit:wfcr :      2.38s CPU      2.57s WALL (      31 calls)
     potinit      :      0.13s CPU      0.38s WALL (       1 calls)
     hinit0       :      1.29s CPU      1.50s WALL (       1 calls)

     Called by electrons:
     c_bands      :   6925.03s CPU   6979.03s WALL (     532 calls)
     sum_band     :    578.85s CPU    583.55s WALL (     532 calls)
     v_of_rho     :     31.02s CPU     31.37s WALL (     533 calls)
     v_h          :      2.43s CPU      2.44s WALL (     533 calls)
     v_xc         :     28.59s CPU     28.92s WALL (     533 calls)
     newd         :     10.94s CPU     11.19s WALL (     533 calls)
     PAW_pot      :     15.03s CPU     15.39s WALL (     564 calls)
     mix_rho      :     78.98s CPU     79.62s WALL (     532 calls)

     Called by c_bands:
     init_us_2    :     59.21s CPU     60.19s WALL (   34968 calls)
     cegterg      :   6224.47s CPU   6268.94s WALL (   18555 calls)

     Called by sum_band:
     sum_band:wei :      2.78s CPU      2.81s WALL (     532 calls)
     sum_band:loo :    554.56s CPU    558.60s WALL (     532 calls)
     sum_band:buf :      4.76s CPU      4.84s WALL (   16492 calls)
     sum_band:ini :     27.68s CPU     27.89s WALL (   16492 calls)
     sum_band:cal :     50.40s CPU     50.82s WALL (   17453 calls)
     sum_band:bec :      2.11s CPU      2.18s WALL (   17453 calls)
     addusdens    :      7.05s CPU      7.50s WALL (     532 calls)
                                        0.00s GPU  (     532 calls)
     addusd:skk   :      0.91s CPU      0.92s WALL (     532 calls)
                                        0.00s GPU  (     532 calls)

     Called by *egterg:
     cdiaghg      :   1102.12s CPU   1108.52s WALL (  239598 calls)
     cegterg:over :    435.54s CPU    439.42s WALL (  223257 calls)
     cegterg:upda :    219.16s CPU    220.82s WALL (  223257 calls)
     cegterg:last :     42.43s CPU     42.66s WALL (   23784 calls)
     h_psi        :   4109.96s CPU   4140.99s WALL (  241843 calls)
     s_psi        :    145.99s CPU    147.55s WALL (  241843 calls)
     g_psi        :      7.23s CPU      7.31s WALL (  223257 calls)

     Called by h_psi:
     h_psi:calbec :    302.38s CPU    306.15s WALL (  241843 calls)
     vloc_psi     :   3622.30s CPU   3648.32s WALL (  241843 calls)
                                        0.00s GPU  (  241843 calls)
     add_vuspsi   :    171.84s CPU    173.31s WALL (  241843 calls)

     General routines
     calbec       :    361.34s CPU    365.86s WALL (  263264 calls)
     fft          :     30.37s CPU     30.60s WALL (    6991 calls)
     ffts         :     43.19s CPU     43.71s WALL (   58752 calls)
     fftw         :   3949.24s CPU   3977.82s WALL ( 6865894 calls)
     interpolate  :      2.22s CPU      2.47s WALL (     533 calls)
 
     Parallel routines

     PAW routines
     PAW_pot      :     15.03s CPU     15.39s WALL (     564 calls)
 
     Environ routines
 
     PWSCF        :      2h46m CPU      2h47m WALL

 
   This run was terminated on:   4:39:35   5Jan2025            

=------------------------------------------------------------------------------=
   JOB DONE.
=------------------------------------------------------------------------------=
