
     Program PWSCF v.7.4 starts on 17Jan2025 at  1: 8:48 

     This program is part of the open-source Quantum ESPRESSO suite
     for quantum simulation of materials; please cite
         "P. Giannozzi et al., J. Phys.:Condens. Matter 21 395502 (2009);
         "P. Giannozzi et al., J. Phys.:Condens. Matter 29 465901 (2017);
         "P. Giannozzi et al., J. Chem. Phys. 152 154105 (2020);
          URL http://www.quantum-espresso.org", 
     in publications or presentations arising from this work. More details at
     http://www.quantum-espresso.org/quote

     Parallel version (MPI & OpenMP), running on     512 processor cores
     Number of MPI processes:               512
     Threads/MPI process:                     1

     MPI processes distributed on     4 nodes
     234237 MiB available memory on the printing compute node when the environment starts

     Reading input from espresso.pwi
Warning: card &CELL ignored
Warning: card    PRESS_CONV_THR   = 0.1 ignored
Warning: card    CELL_DOFREE      = 'ALL' ignored
Warning: card / ignored
Warning: card &FCP ignored
Warning: card / ignored
Warning: card &RISM ignored
Warning: card / ignored

     Current dimensions of program PWSCF are:
     Max number of different atomic species (ntypx) = 10
     Max number of k-points (npk) =  40000
     Max angular momentum in pseudopotentials (lmaxx) =  4

     IMPORTANT: XC functional enforced from input :
     Exchange-correlation= PBE
                           (   1   4   3   4   0   0   0)
     Any further DFT definition will be discarded
     Please, verify this is what you really want


     Reading input from environ.in:
     * using ionic solvent mode
     * setting boundary derivatives method to SSCS default
     * setting electrolyte-boundary derivatives method to SSCS default

Environ Warning (1001): card EOF ignored

     
     Found identity + ( -0.5000 -0.0000  0.0000) symmetry
     This is a supercell, fractional translations are disabled

     K-points division:     npool     =       2
     R & G space division:  proc/nbgrp/npool/nimage =     256
     Subspace diagonalization in iterative solution of the eigenvalue problem:
     a serial algorithm will be used


     Parallelization info
     --------------------
     sticks:   dense  smooth     PW     G-vecs:    dense   smooth      PW
     Min          39      15      4                23005     5783     788
     Max          40      16      5                23062     5870     851
     Sum       10033    4007   1075              5896473  1491071  208783

     Using Slab Decomposition



     bravais-lattice index     =           12
     lattice parameter (alat)  =      11.2436  a.u.
     unit-cell volume          =   15431.5264 (a.u.)^3
     number of atoms/cell      =           28
     number of atomic types    =            1
     number of electrons       =        84.00
     number of Kohn-Sham states=           63
     kinetic-energy cutoff     =      80.0000  Ry
     charge density cutoff     =     800.0000  Ry
     scf convergence threshold =      1.0E-16
     mixing beta               =       0.2000
     number of iterations used =            8  local-TF  mixing
     Exchange-correlation= PBE
                           (   1   4   3   4   0   0   0)

     ================================================================================

                                  Environ Setup Summary

     ================================================================================

     Please cite

          O. Andreussi, I. Dabo and N. Marzari, J. Chem. Phys. 136, 064102 (2012)
          F. Nattino, M. Truscott, N. Marzari, and O. Andreussi, J. Chem. Phys. 150, 041722 (2019)

     in publications or presentations arising from this work.

     ================================================================================

     Parameters
     ==========

     compensation onset threshold      =               0.1000E+00
     static permittivity               =                    89.90
     surface tension in input (dyn/cm) =                    37.30
     surface tension in internal units =               0.4792E-04

     Solvent Boundary
     ================

     solvent mode                      =                    ionic
     derivatives method                =                   lowmem
     electrolyte derivatives method    =                   lowmem
     numerical core for derivatives    =                      fft
     switching function adopted        =                     SCCS
     density limit for vacuum region   =               0.5000E-02
     density limit for bulk solvent    =               0.1000E-03
     soft-sphere radius mode           =                    bondi
     soft-sphere softness              =                     0.50
     alpha                             =                     1.32

     Electrostatic Setup
     ===================

     electrostatic problem to solve    =                    modpb
     numerical solver adopted          =                   newton
     type of auxiliary density adopted =                     none
     numerical core for poisson        =                      fft
     adopting a nested solver scheme
     inner solver                      =                       cg
     inner core                        =                      fft
     type of pbc corrections           =                parabolic
     numerical core for corrections    =                      1da

     ================================================================================


     >>>>> Grand-Canonical SCF is activated <<<<<
     Initial Total Charge  =     0.000000 e
     Target Fermi Energy   =    -4.904000 eV
     Thr. of Fermi Energy  =     0.001000 eV
     Wave-shift of Kerker  =     0.400000 bohr^-1
     Wave-shift of Hartree =     1.500000 bohr^-1
     Mixing Rate of Fermi  =     0.050000

     celldm(1)=  11.243615  celldm(2)=   1.258306  celldm(3)=   8.704589
     celldm(4)=  -0.132454  celldm(5)=   0.000000  celldm(6)=   0.000000

     crystal axes: (cart. coord. in units of alat)
               a(1) = (   1.000000   0.000000   0.000000 )  
               a(2) = (  -0.166667   1.247219   0.000000 )  
               a(3) = (   0.000000   0.000000   8.704589 )  

     reciprocal axes: (cart. coord. in units 2 pi/alat)
               b(1) = (  1.000000  0.133631 -0.000000 )  
               b(2) = (  0.000000  0.801784  0.000000 )  
               b(3) = (  0.000000 -0.000000  0.114882 )  


     PseudoPot. # 1 for Li read from file:
     /work/e89/e89/ba3g18/Repos/Pseudopotentials/Pslibrary/Li.pbe-sl-kjpaw_psl.1.0.0.UPF
     MD5 check sum: 3f4d2cafebb47c6c3aa8ed472e6f074d
     Pseudo is Projector augmented-wave, Zval =  3.0
     Generated using 'atomic' code by A. Dal Corso  v.7.4
     Shape of augmentation charge: PSQ
     Using radial grid of 1017 points,  4 beta functions with: 
                l(1) =   0
                l(2) =   0
                l(3) =   1
                l(4) =   1
     Q(r) pseudized with 0 coefficients 


     atomic species   valence    mass     pseudopotential
     Li                3.00     6.94000     Li( 1.00)

     No symmetry found


                                    s                        frac. trans.

      isym =  1     identity                                     

 cryst.   s( 1) = (     1          0          0      )
                  (     0          1          0      )
                  (     0          0          1      )

 cart.    s( 1) = (  1.0000000  0.0000000  0.0000000 )
                  (  0.0000000  1.0000000  0.0000000 )
                  (  0.0000000  0.0000000  1.0000000 )


     point group C_1 (1)    
     there are  1 classes
     the character table:

       E    
A      1.00

     the symmetry operations in each class and the name of the first element:

     E        1
          identity                                               

   Cartesian axes

     site n.     atom                  positions (alat units)
         1        Li     tau(   1) = (   0.0603716  -0.0440479   5.4194928  )
         2        Li     tau(   2) = (  -0.0603729   0.8458308   3.2850959  )
         3        Li     tau(   3) = (   0.1263349   0.3638074   3.4799312  )
         4        Li     tau(   4) = (   0.1554018   1.1495786   3.6783786  )
         5        Li     tau(   5) = (   0.3387627   0.7082452   3.7681615  )
         6        Li     tau(   6) = (   0.0000991   0.2718188   3.9628373  )
         7        Li     tau(   7) = (  -0.0286755   1.0604431   4.1174734  )
         8        Li     tau(   8) = (   0.1839059   0.6304680   4.2660019  )
         9        Li     tau(   9) = (   0.3160942   0.1713156   4.4385876  )
        10        Li     tau(  10) = (   0.3620081   0.9885597   4.5871159  )
        11        Li     tau(  11) = (  -0.0001001   0.5299650   4.7417524  )
        12        Li     tau(  12) = (   0.1612387   0.0935389   4.9364283  )
        13        Li     tau(  13) = (   0.1779308   0.8994243   5.0262106  )
        14        Li     tau(  14) = (   0.3736679   0.4379769   5.2246590  )
        15        Li     tau(  15) = (   0.5603718  -0.0440483   5.4194939  )
        16        Li     tau(  16) = (   0.4396262   0.8458307   3.2850964  )
        17        Li     tau(  17) = (   0.6263354   0.3638075   3.4799310  )
        18        Li     tau(  18) = (   0.6554019   1.1495786   3.6783785  )
        19        Li     tau(  19) = (   0.8387624   0.7082452   3.7681611  )
        20        Li     tau(  20) = (   0.5000992   0.2718187   3.9628372  )
        21        Li     tau(  21) = (   0.4713245   1.0604432   4.1174734  )
        22        Li     tau(  22) = (   0.6839058   0.6304680   4.2660017  )
        23        Li     tau(  23) = (   0.8160942   0.1713156   4.4385878  )
        24        Li     tau(  24) = (   0.8620081   0.9885596   4.5871158  )
        25        Li     tau(  25) = (   0.4998999   0.5299650   4.7417523  )
        26        Li     tau(  26) = (   0.6612386   0.0935388   4.9364287  )
        27        Li     tau(  27) = (   0.6779308   0.8994242   5.0262105  )
        28        Li     tau(  28) = (   0.8736680   0.4379772   5.2246592  )

   Crystallographic axes

     site n.     atom                  positions (cryst. coord.)
         1        Li     tau(   1) = (  0.0544855 -0.0353169  0.6226018  )
         2        Li     tau(   2) = (  0.0526563  0.6781735  0.3773982  )
         3        Li     tau(   3) = (  0.1749508  0.2916949  0.3997812  )
         4        Li     tau(   4) = (  0.3090211  0.9217135  0.4225792  )
         5        Li     tau(   5) = (  0.4334061  0.5678595  0.4328937  )
         6        Li     tau(   6) = (  0.0364225  0.2179399  0.4552584  )
         7        Li     tau(   7) = (  0.1130324  0.8502461  0.4730233  )
         8        Li     tau(   8) = (  0.2681559  0.5054991  0.4900865  )
         9        Li     tau(   9) = (  0.3389872  0.1373581  0.5099135  )
        10        Li     tau(  10) = (  0.4941102  0.7926112  0.5269767  )
        11        Li     tau(  11) = (  0.0707196  0.4249174  0.5447417  )
        12        Li     tau(  12) = (  0.1737384  0.0749980  0.5671064  )
        13        Li     tau(  13) = (  0.2981217  0.7211439  0.5774208  )
        14        Li     tau(  14) = (  0.4321951  0.3511628  0.6002189  )
        15        Li     tau(  15) = (  0.5544855 -0.0353172  0.6226019  )
        16        Li     tau(  16) = (  0.5526554  0.6781734  0.3773982  )
        17        Li     tau(  17) = (  0.6749513  0.2916949  0.3997812  )
        18        Li     tau(  18) = (  0.8090211  0.9217135  0.4225792  )
        19        Li     tau(  19) = (  0.9334058  0.5678596  0.4328936  )
        20        Li     tau(  20) = (  0.5364225  0.2179399  0.4552584  )
        21        Li     tau(  21) = (  0.6130325  0.8502462  0.4730233  )
        22        Li     tau(  22) = (  0.7681558  0.5054990  0.4900865  )
        23        Li     tau(  23) = (  0.8389873  0.1373581  0.5099135  )
        24        Li     tau(  24) = (  0.9941102  0.7926111  0.5269767  )
        25        Li     tau(  25) = (  0.5707196  0.4249173  0.5447417  )
        26        Li     tau(  26) = (  0.6737383  0.0749979  0.5671065  )
        27        Li     tau(  27) = (  0.7981216  0.7211437  0.5774208  )
        28        Li     tau(  28) = (  0.9321953  0.3511630  0.6002189  )

     number of k points=    50  Marzari-Vanderbilt smearing, width (Ry)=  0.0100
                       cart. coord. in units 2pi/alat
        k(    1) = (   0.0000000   0.0000000   0.0000000), wk =   0.0202020
        k(    2) = (   0.0000000   0.0890871   0.0000000), wk =   0.0404040
        k(    3) = (   0.0000000   0.1781742   0.0000000), wk =   0.0404040
        k(    4) = (   0.0000000   0.2672613   0.0000000), wk =   0.0404040
        k(    5) = (   0.0000000   0.3563484   0.0000000), wk =   0.0404040
        k(    6) = (   0.0909091   0.0121483   0.0000000), wk =   0.0404040
        k(    7) = (   0.0909091   0.1012354   0.0000000), wk =   0.0404040
        k(    8) = (   0.0909091   0.1903224   0.0000000), wk =   0.0404040
        k(    9) = (   0.0909091   0.2794095   0.0000000), wk =   0.0404040
        k(   10) = (   0.0909091   0.3684966   0.0000000), wk =   0.0404040
        k(   11) = (   0.0909091  -0.3442001   0.0000000), wk =   0.0404040
        k(   12) = (   0.0909091  -0.2551130   0.0000000), wk =   0.0404040
        k(   13) = (   0.0909091  -0.1660259   0.0000000), wk =   0.0404040
        k(   14) = (   0.0909091  -0.0769388   0.0000000), wk =   0.0404040
        k(   15) = (   0.1818182   0.0242965   0.0000000), wk =   0.0404040
        k(   16) = (   0.1818182   0.1133836   0.0000000), wk =   0.0404040
        k(   17) = (   0.1818182   0.2024707   0.0000000), wk =   0.0404040
        k(   18) = (   0.1818182   0.2915578   0.0000000), wk =   0.0404040
        k(   19) = (   0.1818182   0.3806449   0.0000000), wk =   0.0404040
        k(   20) = (   0.1818182  -0.3320518   0.0000000), wk =   0.0404040
        k(   21) = (   0.1818182  -0.2429647   0.0000000), wk =   0.0404040
        k(   22) = (   0.1818182  -0.1538777   0.0000000), wk =   0.0404040
        k(   23) = (   0.1818182  -0.0647906   0.0000000), wk =   0.0404040
        k(   24) = (   0.2727273   0.0364448   0.0000000), wk =   0.0404040
        k(   25) = (   0.2727273   0.1255319   0.0000000), wk =   0.0404040
        k(   26) = (   0.2727273   0.2146190   0.0000000), wk =   0.0404040
        k(   27) = (   0.2727273   0.3037061   0.0000000), wk =   0.0404040
        k(   28) = (   0.2727273   0.3927932   0.0000000), wk =   0.0404040
        k(   29) = (   0.2727273  -0.3199036   0.0000000), wk =   0.0404040
        k(   30) = (   0.2727273  -0.2308165   0.0000000), wk =   0.0404040
        k(   31) = (   0.2727273  -0.1417294   0.0000000), wk =   0.0404040
        k(   32) = (   0.2727273  -0.0526423   0.0000000), wk =   0.0404040
        k(   33) = (   0.3636364   0.0485931   0.0000000), wk =   0.0404040
        k(   34) = (   0.3636364   0.1376801   0.0000000), wk =   0.0404040
        k(   35) = (   0.3636364   0.2267672   0.0000000), wk =   0.0404040
        k(   36) = (   0.3636364   0.3158543   0.0000000), wk =   0.0404040
        k(   37) = (   0.3636364   0.4049414   0.0000000), wk =   0.0404040
        k(   38) = (   0.3636364  -0.3077553   0.0000000), wk =   0.0404040
        k(   39) = (   0.3636364  -0.2186682   0.0000000), wk =   0.0404040
        k(   40) = (   0.3636364  -0.1295811   0.0000000), wk =   0.0404040
        k(   41) = (   0.3636364  -0.0404940   0.0000000), wk =   0.0404040
        k(   42) = (   0.4545455   0.0607413   0.0000000), wk =   0.0404040
        k(   43) = (   0.4545455   0.1498284   0.0000000), wk =   0.0404040
        k(   44) = (   0.4545455   0.2389155   0.0000000), wk =   0.0404040
        k(   45) = (   0.4545455   0.3280026   0.0000000), wk =   0.0404040
        k(   46) = (   0.4545455   0.4170897   0.0000000), wk =   0.0404040
        k(   47) = (   0.4545455  -0.2956070   0.0000000), wk =   0.0404040
        k(   48) = (   0.4545455  -0.2065200   0.0000000), wk =   0.0404040
        k(   49) = (   0.4545455  -0.1174329   0.0000000), wk =   0.0404040
        k(   50) = (   0.4545455  -0.0283458   0.0000000), wk =   0.0404040

                       cryst. coord.
        k(    1) = (   0.0000000   0.0000000   0.0000000), wk =   0.0202020
        k(    2) = (   0.0000000   0.1111111   0.0000000), wk =   0.0404040
        k(    3) = (   0.0000000   0.2222222   0.0000000), wk =   0.0404040
        k(    4) = (   0.0000000   0.3333333   0.0000000), wk =   0.0404040
        k(    5) = (   0.0000000   0.4444444   0.0000000), wk =   0.0404040
        k(    6) = (   0.0909091  -0.0000000   0.0000000), wk =   0.0404040
        k(    7) = (   0.0909091   0.1111111   0.0000000), wk =   0.0404040
        k(    8) = (   0.0909091   0.2222222   0.0000000), wk =   0.0404040
        k(    9) = (   0.0909091   0.3333333   0.0000000), wk =   0.0404040
        k(   10) = (   0.0909091   0.4444444   0.0000000), wk =   0.0404040
        k(   11) = (   0.0909091  -0.4444444   0.0000000), wk =   0.0404040
        k(   12) = (   0.0909091  -0.3333333   0.0000000), wk =   0.0404040
        k(   13) = (   0.0909091  -0.2222222   0.0000000), wk =   0.0404040
        k(   14) = (   0.0909091  -0.1111111   0.0000000), wk =   0.0404040
        k(   15) = (   0.1818182  -0.0000000   0.0000000), wk =   0.0404040
        k(   16) = (   0.1818182   0.1111111   0.0000000), wk =   0.0404040
        k(   17) = (   0.1818182   0.2222222   0.0000000), wk =   0.0404040
        k(   18) = (   0.1818182   0.3333333   0.0000000), wk =   0.0404040
        k(   19) = (   0.1818182   0.4444444   0.0000000), wk =   0.0404040
        k(   20) = (   0.1818182  -0.4444444   0.0000000), wk =   0.0404040
        k(   21) = (   0.1818182  -0.3333333   0.0000000), wk =   0.0404040
        k(   22) = (   0.1818182  -0.2222222   0.0000000), wk =   0.0404040
        k(   23) = (   0.1818182  -0.1111111   0.0000000), wk =   0.0404040
        k(   24) = (   0.2727273   0.0000000   0.0000000), wk =   0.0404040
        k(   25) = (   0.2727273   0.1111111   0.0000000), wk =   0.0404040
        k(   26) = (   0.2727273   0.2222222   0.0000000), wk =   0.0404040
        k(   27) = (   0.2727273   0.3333333   0.0000000), wk =   0.0404040
        k(   28) = (   0.2727273   0.4444444   0.0000000), wk =   0.0404040
        k(   29) = (   0.2727273  -0.4444444   0.0000000), wk =   0.0404040
        k(   30) = (   0.2727273  -0.3333333   0.0000000), wk =   0.0404040
        k(   31) = (   0.2727273  -0.2222222   0.0000000), wk =   0.0404040
        k(   32) = (   0.2727273  -0.1111111   0.0000000), wk =   0.0404040
        k(   33) = (   0.3636364  -0.0000000   0.0000000), wk =   0.0404040
        k(   34) = (   0.3636364   0.1111111   0.0000000), wk =   0.0404040
        k(   35) = (   0.3636364   0.2222222   0.0000000), wk =   0.0404040
        k(   36) = (   0.3636364   0.3333333   0.0000000), wk =   0.0404040
        k(   37) = (   0.3636364   0.4444444   0.0000000), wk =   0.0404040
        k(   38) = (   0.3636364  -0.4444444   0.0000000), wk =   0.0404040
        k(   39) = (   0.3636364  -0.3333333   0.0000000), wk =   0.0404040
        k(   40) = (   0.3636364  -0.2222222   0.0000000), wk =   0.0404040
        k(   41) = (   0.3636364  -0.1111111   0.0000000), wk =   0.0404040
        k(   42) = (   0.4545455  -0.0000000   0.0000000), wk =   0.0404040
        k(   43) = (   0.4545455   0.1111111   0.0000000), wk =   0.0404040
        k(   44) = (   0.4545455   0.2222222   0.0000000), wk =   0.0404040
        k(   45) = (   0.4545455   0.3333333   0.0000000), wk =   0.0404040
        k(   46) = (   0.4545455   0.4444444   0.0000000), wk =   0.0404040
        k(   47) = (   0.4545455  -0.4444444   0.0000000), wk =   0.0404040
        k(   48) = (   0.4545455  -0.3333333   0.0000000), wk =   0.0404040
        k(   49) = (   0.4545455  -0.2222222   0.0000000), wk =   0.0404040
        k(   50) = (   0.4545455  -0.1111111   0.0000000), wk =   0.0404040

     Dense  grid:  5896473 G-vectors     FFT dimensions: ( 108, 128, 900)

     Smooth grid:  1491071 G-vectors     FFT dimensions: (  72,  81, 576)

     Dynamical RAM for                 wfc:       0.70 MB

     Dynamical RAM for     wfc (w. buffer):      18.20 MB

     Dynamical RAM for           str. fact:       0.35 MB

     Dynamical RAM for           local pot:       0.00 MB

     Dynamical RAM for          nlocal pot:       2.49 MB

     Dynamical RAM for                qrad:       0.65 MB

     Dynamical RAM for          rho,v,vnew:       2.32 MB

     Dynamical RAM for               rhoin:       0.77 MB

     Dynamical RAM for            rho*nmix:       5.62 MB

     Dynamical RAM for           G-vectors:       1.36 MB

     Dynamical RAM for          h,s,v(r/c):       2.91 MB

     Dynamical RAM for          <psi|beta>:       0.22 MB

     Dynamical RAM for                 psi:       2.80 MB

     Dynamical RAM for                hpsi:       2.80 MB

     Dynamical RAM for                spsi:       2.80 MB

     Dynamical RAM for      wfcinit/wfcrot:       1.49 MB

     Dynamical RAM for           addusdens:      12.65 MB

     Dynamical RAM for          addusforce:      22.17 MB

     Estimated static dynamical RAM per process >      28.95 MB

     Estimated max dynamical RAM per process >      89.97 MB

     Estimated total dynamical RAM >      26.96 GB

     Initial potential from superposition of free atoms

     starting charge      83.8710, renormalised to      84.0000

     negative rho (up, down):  2.526E-03 0.000E+00
     Starting wfcs are random
     Checking if some PAW data can be deallocated... 

     total cpu time spent up to now is       22.3 secs

     Self-consistent Calculation

     iteration #  1     ecut=    80.00 Ry     beta= 0.20
     Davidson diagonalization with overlap

---- Real-time Memory Report at c_bands before calling an iterative solver
           338 MiB given to the printing process from OS
             0 MiB allocation reported by mallinfo(arena+hblkhd)
        221795 MiB available memory on the node where the printing process lives
------------------
     c_bands:  1 eigenvalues not converged
     c_bands:  1 eigenvalues not converged
     c_bands:  1 eigenvalues not converged
     ethr =  1.00E-12,  avg # of iterations =100.1

     negative rho (up, down):  1.850E-03 0.000E+00

     add environment contribution to local potential

     total cpu time spent up to now is      204.0 secs

     total energy              =    -420.99253595 Ry
     estimated scf accuracy    <       0.08333379 Ry

     total charge of GC-SCF    =       0.08109295 e
     the Fermi energy          =      -4.37040154 eV
                        (error :       0.53359846 eV)
     electrostatic embedding   =       0.00000000 Ry
     cavitation energy         =       0.01957364 Ry
     electrolyte free energy   =       0.00664192 Ry
     correction to one-el term =      -0.00000000 Ry

     iteration #  2     ecut=    80.00 Ry     beta= 0.20
     Davidson diagonalization with overlap

---- Real-time Memory Report at c_bands before calling an iterative solver
           338 MiB given to the printing process from OS
             0 MiB allocation reported by mallinfo(arena+hblkhd)
        221917 MiB available memory on the node where the printing process lives
------------------
     ethr =  1.00E-05,  avg # of iterations = 18.0

     negative rho (up, down):  1.430E-03 0.000E+00

     add environment contribution to local potential

     total cpu time spent up to now is      237.5 secs

     total energy              =    -421.11562808 Ry
     estimated scf accuracy    <       0.02795719 Ry

     total charge of GC-SCF    =       0.13511706 e
     the Fermi energy          =      -3.53587955 eV
                        (error :       1.36812045 eV)
     electrostatic embedding   =      -0.02357228 Ry
     cavitation energy         =       0.01957364 Ry
     electrolyte free energy   =      -0.00458483 Ry
     correction to one-el term =      -2.25690319 Ry

     iteration #  3     ecut=    80.00 Ry     beta= 0.20
     Davidson diagonalization with overlap

---- Real-time Memory Report at c_bands before calling an iterative solver
           338 MiB given to the printing process from OS
             0 MiB allocation reported by mallinfo(arena+hblkhd)
        221897 MiB available memory on the node where the printing process lives
------------------
     ethr =  1.00E-05,  avg # of iterations =  7.7

     negative rho (up, down):  1.046E-03 0.000E+00

     add environment contribution to local potential

     total cpu time spent up to now is      256.0 secs

     total energy              =    -421.04747807 Ry
     estimated scf accuracy    <       0.01634251 Ry

     total charge of GC-SCF    =       0.36507525 e
     the Fermi energy          =      -3.51767074 eV
                        (error :       1.38632926 eV)
     electrostatic embedding   =      -0.02239948 Ry
     cavitation energy         =       0.01957364 Ry
     electrolyte free energy   =      -0.00467445 Ry
     correction to one-el term =      -3.70821114 Ry

     iteration #  4     ecut=    80.00 Ry     beta= 0.20
     Davidson diagonalization with overlap

---- Real-time Memory Report at c_bands before calling an iterative solver
           338 MiB given to the printing process from OS
             0 MiB allocation reported by mallinfo(arena+hblkhd)
        221893 MiB available memory on the node where the printing process lives
------------------
     ethr =  1.00E-05,  avg # of iterations = 18.6

     negative rho (up, down):  8.580E-04 0.000E+00

     add environment contribution to local potential

     total cpu time spent up to now is      293.7 secs

     total energy              =    -421.10287244 Ry
     estimated scf accuracy    <       0.00460921 Ry

     total charge of GC-SCF    =       0.60833561 e
     the Fermi energy          =      -3.23286963 eV
                        (error :       1.67113037 eV)
     electrostatic embedding   =      -0.03517927 Ry
     cavitation energy         =       0.01957364 Ry
     electrolyte free energy   =      -0.00379127 Ry
     correction to one-el term =     -10.36673523 Ry

     iteration #  5     ecut=    80.00 Ry     beta= 0.20
     Davidson diagonalization with overlap

---- Real-time Memory Report at c_bands before calling an iterative solver
           338 MiB given to the printing process from OS
             0 MiB allocation reported by mallinfo(arena+hblkhd)
        221879 MiB available memory on the node where the printing process lives
------------------
     ethr =  5.53E-06,  avg # of iterations = 11.8

     negative rho (up, down):  7.087E-04 0.000E+00

     add environment contribution to local potential

     total cpu time spent up to now is      318.7 secs

     total energy              =    -421.10397949 Ry
     estimated scf accuracy    <       0.00353426 Ry

     total charge of GC-SCF    =       0.95414218 e
     the Fermi energy          =      -3.40471406 eV
                        (error :       1.49928594 eV)
     electrostatic embedding   =      -0.07218701 Ry
     cavitation energy         =       0.01957364 Ry
     electrolyte free energy   =      -0.00485342 Ry
     correction to one-el term =     -17.32275941 Ry

     iteration #  6     ecut=    80.00 Ry     beta= 0.20
     Davidson diagonalization with overlap

---- Real-time Memory Report at c_bands before calling an iterative solver
           338 MiB given to the printing process from OS
             0 MiB allocation reported by mallinfo(arena+hblkhd)
        221849 MiB available memory on the node where the printing process lives
------------------
     ethr =  4.26E-06,  avg # of iterations = 10.0

     negative rho (up, down):  6.100E-04 0.000E+00

     add environment contribution to local potential

     total cpu time spent up to now is      341.6 secs

     total energy              =    -421.13895868 Ry
     estimated scf accuracy    <       0.00309417 Ry

     total charge of GC-SCF    =       1.29308990 e
     the Fermi energy          =      -3.42825698 eV
                        (error :       1.47574302 eV)
     electrostatic embedding   =      -0.17014295 Ry
     cavitation energy         =       0.01957364 Ry
     electrolyte free energy   =      -0.00580256 Ry
     correction to one-el term =     -27.38300716 Ry

     iteration #  7     ecut=    80.00 Ry     beta= 0.20
     Davidson diagonalization with overlap

---- Real-time Memory Report at c_bands before calling an iterative solver
           338 MiB given to the printing process from OS
             0 MiB allocation reported by mallinfo(arena+hblkhd)
        221821 MiB available memory on the node where the printing process lives
------------------
     ethr =  3.74E-06,  avg # of iterations = 13.8

     negative rho (up, down):  5.546E-04 0.000E+00

     add environment contribution to local potential

     total cpu time spent up to now is      371.0 secs

     total energy              =    -421.15750084 Ry
     estimated scf accuracy    <       0.00279122 Ry

     total charge of GC-SCF    =       1.64632887 e
     the Fermi energy          =      -3.58685514 eV
                        (error :       1.31714486 eV)
     electrostatic embedding   =      -0.31366383 Ry
     cavitation energy         =       0.01957364 Ry
     electrolyte free energy   =      -0.00801874 Ry
     correction to one-el term =     -37.63659636 Ry

     iteration #  8     ecut=    80.00 Ry     beta= 0.20
     Davidson diagonalization with overlap

---- Real-time Memory Report at c_bands before calling an iterative solver
           338 MiB given to the printing process from OS
             0 MiB allocation reported by mallinfo(arena+hblkhd)
        221725 MiB available memory on the node where the printing process lives
------------------
     ethr =  3.39E-06,  avg # of iterations = 16.4

     negative rho (up, down):  2.570E-03 0.000E+00

     add environment contribution to local potential

     total cpu time spent up to now is      406.2 secs

     total energy              =    -421.18044851 Ry
     estimated scf accuracy    <       0.00122781 Ry

     total charge of GC-SCF    =       2.15438880 e
     the Fermi energy          =      -3.87031162 eV
                        (error :       1.03368838 eV)
     electrostatic embedding   =      -0.51435395 Ry
     cavitation energy         =       0.01957364 Ry
     electrolyte free energy   =      -0.01142118 Ry
     correction to one-el term =     -48.69663337 Ry

     iteration #  9     ecut=    80.00 Ry     beta= 0.20
     Davidson diagonalization with overlap

---- Real-time Memory Report at c_bands before calling an iterative solver
           338 MiB given to the printing process from OS
             0 MiB allocation reported by mallinfo(arena+hblkhd)
        221722 MiB available memory on the node where the printing process lives
------------------
     ethr =  1.50E-06,  avg # of iterations = 25.8

     negative rho (up, down):  8.133E-03 0.000E+00

     add environment contribution to local potential

     total cpu time spent up to now is      448.5 secs

     total energy              =    -421.25418106 Ry
     estimated scf accuracy    <       0.00046839 Ry

     total charge of GC-SCF    =       2.39525736 e
     the Fermi energy          =      -4.27449188 eV
                        (error :       0.62950812 eV)
     electrostatic embedding   =      -0.90273103 Ry
     cavitation energy         =       0.01957364 Ry
     electrolyte free energy   =      -0.01774558 Ry
     correction to one-el term =     -64.73097289 Ry

     iteration # 10     ecut=    80.00 Ry     beta= 0.20
     Davidson diagonalization with overlap

---- Real-time Memory Report at c_bands before calling an iterative solver
           338 MiB given to the printing process from OS
             0 MiB allocation reported by mallinfo(arena+hblkhd)
        221718 MiB available memory on the node where the printing process lives
------------------
     ethr =  5.74E-07,  avg # of iterations = 20.8

     negative rho (up, down):  1.335E-03 0.000E+00

     add environment contribution to local potential

     total cpu time spent up to now is      484.5 secs

     total energy              =    -421.27547800 Ry
     estimated scf accuracy    <       0.00032247 Ry

     total charge of GC-SCF    =       2.44726467 e
     the Fermi energy          =      -4.46221871 eV
                        (error :       0.44178129 eV)
     electrostatic embedding   =      -1.12712410 Ry
     cavitation energy         =       0.01957364 Ry
     electrolyte free energy   =      -0.02167653 Ry
     correction to one-el term =     -72.18484206 Ry

     iteration # 11     ecut=    80.00 Ry     beta= 0.20
     Davidson diagonalization with overlap

---- Real-time Memory Report at c_bands before calling an iterative solver
           338 MiB given to the printing process from OS
             0 MiB allocation reported by mallinfo(arena+hblkhd)
        221711 MiB available memory on the node where the printing process lives
------------------
     ethr =  3.95E-07,  avg # of iterations =  9.9

     negative rho (up, down):  1.280E-03 0.000E+00

     add environment contribution to local potential

     total cpu time spent up to now is      509.3 secs

     total energy              =    -421.27247475 Ry
     estimated scf accuracy    <       0.00021641 Ry

     total charge of GC-SCF    =       2.61581670 e
     the Fermi energy          =      -4.59537984 eV
                        (error :       0.30862016 eV)
     electrostatic embedding   =      -1.18771238 Ry
     cavitation energy         =       0.01957364 Ry
     electrolyte free energy   =      -0.02272667 Ry
     correction to one-el term =     -74.28760604 Ry

     iteration # 12     ecut=    80.00 Ry     beta= 0.20
     Davidson diagonalization with overlap

---- Real-time Memory Report at c_bands before calling an iterative solver
           338 MiB given to the printing process from OS
             0 MiB allocation reported by mallinfo(arena+hblkhd)
        221739 MiB available memory on the node where the printing process lives
------------------
     ethr =  2.66E-07,  avg # of iterations = 14.6

     negative rho (up, down):  4.018E-04 0.000E+00

     add environment contribution to local potential

     total cpu time spent up to now is      539.5 secs

     total energy              =    -421.27826136 Ry
     estimated scf accuracy    <       0.00010763 Ry

     total charge of GC-SCF    =       2.65216230 e
     the Fermi energy          =      -4.73297269 eV
                        (error :       0.17102731 eV)
     electrostatic embedding   =      -1.36594324 Ry
     cavitation energy         =       0.01957364 Ry
     electrolyte free energy   =      -0.02605927 Ry
     correction to one-el term =     -79.48405576 Ry

     iteration # 13     ecut=    80.00 Ry     beta= 0.20
     Davidson diagonalization with overlap

---- Real-time Memory Report at c_bands before calling an iterative solver
           338 MiB given to the printing process from OS
             0 MiB allocation reported by mallinfo(arena+hblkhd)
        221722 MiB available memory on the node where the printing process lives
------------------
     ethr =  1.32E-07,  avg # of iterations =  9.7

     negative rho (up, down):  3.639E-04 0.000E+00

     add environment contribution to local potential

     total cpu time spent up to now is      563.8 secs

     total energy              =    -421.27878157 Ry
     estimated scf accuracy    <       0.00002197 Ry

     total charge of GC-SCF    =       2.68167323 e
     the Fermi energy          =      -4.82355721 eV
                        (error :       0.08044279 eV)
     electrostatic embedding   =      -1.41227424 Ry
     cavitation energy         =       0.01957364 Ry
     electrolyte free energy   =      -0.02689835 Ry
     correction to one-el term =     -80.94893616 Ry

     iteration # 14     ecut=    80.00 Ry     beta= 0.20
     Davidson diagonalization with overlap

---- Real-time Memory Report at c_bands before calling an iterative solver
           338 MiB given to the printing process from OS
             0 MiB allocation reported by mallinfo(arena+hblkhd)
        221716 MiB available memory on the node where the printing process lives
------------------
     ethr =  2.70E-08,  avg # of iterations = 12.3

     negative rho (up, down):  3.641E-04 0.000E+00

     add environment contribution to local potential

     total cpu time spent up to now is      592.3 secs

     total energy              =    -421.27888400 Ry
     estimated scf accuracy    <       0.00001390 Ry

     total charge of GC-SCF    =       2.71889260 e
     the Fermi energy          =      -4.85821454 eV
                        (error :       0.04578546 eV)
     electrostatic embedding   =      -1.44435471 Ry
     cavitation energy         =       0.01957364 Ry
     electrolyte free energy   =      -0.02753913 Ry
     correction to one-el term =     -81.83023893 Ry

     iteration # 15     ecut=    80.00 Ry     beta= 0.20
     Davidson diagonalization with overlap

---- Real-time Memory Report at c_bands before calling an iterative solver
           338 MiB given to the printing process from OS
             0 MiB allocation reported by mallinfo(arena+hblkhd)
        221726 MiB available memory on the node where the printing process lives
------------------
     ethr =  1.71E-08,  avg # of iterations = 13.7

     negative rho (up, down):  4.610E-04 0.000E+00

     add environment contribution to local potential

     total cpu time spent up to now is      621.3 secs

     total energy              =    -421.27879591 Ry
     estimated scf accuracy    <       0.00000716 Ry

     total charge of GC-SCF    =       2.73490409 e
     the Fermi energy          =      -4.89650264 eV
                        (error :       0.00749736 eV)
     electrostatic embedding   =      -1.48392397 Ry
     cavitation energy         =       0.01957364 Ry
     electrolyte free energy   =      -0.02835617 Ry
     correction to one-el term =     -82.87629880 Ry

     iteration # 16     ecut=    80.00 Ry     beta= 0.20
     Davidson diagonalization with overlap

---- Real-time Memory Report at c_bands before calling an iterative solver
           338 MiB given to the printing process from OS
             0 MiB allocation reported by mallinfo(arena+hblkhd)
        221727 MiB available memory on the node where the printing process lives
------------------
     ethr =  8.81E-09,  avg # of iterations = 11.3

     negative rho (up, down):  5.343E-04 0.000E+00

     add environment contribution to local potential

     total cpu time spent up to now is      648.4 secs

     total energy              =    -421.27860775 Ry
     estimated scf accuracy    <       0.00000263 Ry

     total charge of GC-SCF    =       2.72476131 e
     the Fermi energy          =      -4.91949414 eV
                        (error :       0.01549414 eV)
     electrostatic embedding   =      -1.50036529 Ry
     cavitation energy         =       0.01957364 Ry
     electrolyte free energy   =      -0.02871138 Ry
     correction to one-el term =     -83.29449734 Ry

     iteration # 17     ecut=    80.00 Ry     beta= 0.20
     Davidson diagonalization with overlap

---- Real-time Memory Report at c_bands before calling an iterative solver
           338 MiB given to the printing process from OS
             0 MiB allocation reported by mallinfo(arena+hblkhd)
        221735 MiB available memory on the node where the printing process lives
------------------
     ethr =  3.24E-09,  avg # of iterations =  9.6

     negative rho (up, down):  4.529E-04 0.000E+00

     add environment contribution to local potential

     total cpu time spent up to now is      673.8 secs

     total energy              =    -421.27876133 Ry
     estimated scf accuracy    <       0.00000146 Ry

     total charge of GC-SCF    =       2.72868609 e
     the Fermi energy          =      -4.89919158 eV
                        (error :       0.00480842 eV)
     electrostatic embedding   =      -1.48824199 Ry
     cavitation energy         =       0.01957364 Ry
     electrolyte free energy   =      -0.02847224 Ry
     correction to one-el term =     -82.94015065 Ry

     iteration # 18     ecut=    80.00 Ry     beta= 0.20
     Davidson diagonalization with overlap

---- Real-time Memory Report at c_bands before calling an iterative solver
           338 MiB given to the printing process from OS
             0 MiB allocation reported by mallinfo(arena+hblkhd)
        221687 MiB available memory on the node where the printing process lives
------------------
     ethr =  1.80E-09,  avg # of iterations =  8.9

     negative rho (up, down):  3.933E-04 0.000E+00

     add environment contribution to local potential

     total cpu time spent up to now is      697.5 secs

     total energy              =    -421.27872746 Ry
     estimated scf accuracy    <       0.00000053 Ry

     total charge of GC-SCF    =       2.72858110 e
     the Fermi energy          =      -4.90468856 eV
                        (error :       0.00068856 eV)
     electrostatic embedding   =      -1.49290074 Ry
     cavitation energy         =       0.01957364 Ry
     electrolyte free energy   =      -0.02856219 Ry
     correction to one-el term =     -83.06244928 Ry

     iteration # 19     ecut=    80.00 Ry     beta= 0.20
     Davidson diagonalization with overlap

---- Real-time Memory Report at c_bands before calling an iterative solver
           338 MiB given to the printing process from OS
             0 MiB allocation reported by mallinfo(arena+hblkhd)
        221683 MiB available memory on the node where the printing process lives
------------------
     ethr =  6.49E-10,  avg # of iterations =  8.7

     negative rho (up, down):  3.684E-04 0.000E+00

     add environment contribution to local potential

     total cpu time spent up to now is      720.2 secs

     total energy              =    -421.27871303 Ry
     estimated scf accuracy    <       0.00000023 Ry

     total charge of GC-SCF    =       2.72593913 e
     the Fermi energy          =      -4.90690075 eV
                        (error :       0.00290075 eV)
     electrostatic embedding   =      -1.49307933 Ry
     cavitation energy         =       0.01957364 Ry
     electrolyte free energy   =      -0.02856233 Ry
     correction to one-el term =     -83.07331317 Ry

     iteration # 20     ecut=    80.00 Ry     beta= 0.20
     Davidson diagonalization with overlap

---- Real-time Memory Report at c_bands before calling an iterative solver
           338 MiB given to the printing process from OS
             0 MiB allocation reported by mallinfo(arena+hblkhd)
        221679 MiB available memory on the node where the printing process lives
------------------
     ethr =  2.81E-10,  avg # of iterations = 10.9

     negative rho (up, down):  3.556E-04 0.000E+00

     add environment contribution to local potential

     total cpu time spent up to now is      746.7 secs

     total energy              =    -421.27873788 Ry
     estimated scf accuracy    <       0.00000010 Ry

     total charge of GC-SCF    =       2.72721108 e
     the Fermi energy          =      -4.90292106 eV
                        (error :       0.00107894 eV)
     electrostatic embedding   =      -1.49026127 Ry
     cavitation energy         =       0.01957364 Ry
     electrolyte free energy   =      -0.02850294 Ry
     correction to one-el term =     -82.99921966 Ry

     iteration # 21     ecut=    80.00 Ry     beta= 0.20
     Davidson diagonalization with overlap

---- Real-time Memory Report at c_bands before calling an iterative solver
           338 MiB given to the printing process from OS
             0 MiB allocation reported by mallinfo(arena+hblkhd)
        221686 MiB available memory on the node where the printing process lives
------------------
     ethr =  1.21E-10,  avg # of iterations = 10.7

     negative rho (up, down):  3.515E-04 0.000E+00

     add environment contribution to local potential

     total cpu time spent up to now is      772.2 secs

     total energy              =    -421.27873221 Ry
     estimated scf accuracy    <       0.00000004 Ry

     total charge of GC-SCF    =       2.72768538 e
     the Fermi energy          =      -4.90342057 eV
                        (error :       0.00057943 eV)
     electrostatic embedding   =      -1.49184743 Ry
     cavitation energy         =       0.01957364 Ry
     electrolyte free energy   =      -0.02853258 Ry
     correction to one-el term =     -83.04512214 Ry

     iteration # 22     ecut=    80.00 Ry     beta= 0.20
     Davidson diagonalization with overlap

---- Real-time Memory Report at c_bands before calling an iterative solver
           338 MiB given to the printing process from OS
             0 MiB allocation reported by mallinfo(arena+hblkhd)
        221702 MiB available memory on the node where the printing process lives
------------------
     ethr =  5.41E-11,  avg # of iterations =  8.9

     negative rho (up, down):  3.504E-04 0.000E+00

     add environment contribution to local potential

     total cpu time spent up to now is      793.8 secs

     total energy              =    -421.27872991 Ry
     estimated scf accuracy    <       0.00000003 Ry

     total charge of GC-SCF    =       2.72807297 e
     the Fermi energy          =      -4.90366656 eV
                        (error :       0.00033344 eV)
     electrostatic embedding   =      -1.49239219 Ry
     cavitation energy         =       0.01957364 Ry
     electrolyte free energy   =      -0.02854339 Ry
     correction to one-el term =     -83.06028373 Ry

     iteration # 23     ecut=    80.00 Ry     beta= 0.20
     Davidson diagonalization with overlap

---- Real-time Memory Report at c_bands before calling an iterative solver
           338 MiB given to the printing process from OS
             0 MiB allocation reported by mallinfo(arena+hblkhd)
        221720 MiB available memory on the node where the printing process lives
------------------
     ethr =  3.24E-11,  avg # of iterations =  9.8

     negative rho (up, down):  3.560E-04 0.000E+00

     add environment contribution to local potential

     total cpu time spent up to now is      816.1 secs

     total energy              =    -421.27872815 Ry
     estimated scf accuracy    <       0.00000002 Ry

     total charge of GC-SCF    =       2.72834149 e
     the Fermi energy          =      -4.90385221 eV
                        (error :       0.00014779 eV)
     electrostatic embedding   =      -1.49279618 Ry
     cavitation energy         =       0.01957364 Ry
     electrolyte free energy   =      -0.02855201 Ry
     correction to one-el term =     -83.07104110 Ry

     iteration # 24     ecut=    80.00 Ry     beta= 0.20
     Davidson diagonalization with overlap

---- Real-time Memory Report at c_bands before calling an iterative solver
           338 MiB given to the printing process from OS
             0 MiB allocation reported by mallinfo(arena+hblkhd)
        221729 MiB available memory on the node where the printing process lives
------------------
     ethr =  1.87E-11,  avg # of iterations = 13.0

     negative rho (up, down):  3.550E-04 0.000E+00

     add environment contribution to local potential

     total cpu time spent up to now is      844.8 secs

     total energy              =    -421.27872664 Ry
     estimated scf accuracy    <          5.9E-09 Ry

     total charge of GC-SCF    =       2.72835606 e
     the Fermi energy          =      -4.90412550 eV
                        (error :       0.00012550 eV)
     electrostatic embedding   =      -1.49298601 Ry
     cavitation energy         =       0.01957364 Ry
     electrolyte free energy   =      -0.02855755 Ry
     correction to one-el term =     -83.07504370 Ry

     iteration # 25     ecut=    80.00 Ry     beta= 0.20
     Davidson diagonalization with overlap

---- Real-time Memory Report at c_bands before calling an iterative solver
           338 MiB given to the printing process from OS
             0 MiB allocation reported by mallinfo(arena+hblkhd)
        221750 MiB available memory on the node where the printing process lives
------------------
     ethr =  7.26E-12,  avg # of iterations =  8.9

     negative rho (up, down):  3.527E-04 0.000E+00

     add environment contribution to local potential

     total cpu time spent up to now is      868.2 secs

     total energy              =    -421.27872604 Ry
     estimated scf accuracy    <          3.4E-09 Ry

     total charge of GC-SCF    =       2.72831606 e
     the Fermi energy          =      -4.90415366 eV
                        (error :       0.00015366 eV)
     electrostatic embedding   =      -1.49299347 Ry
     cavitation energy         =       0.01957364 Ry
     electrolyte free energy   =      -0.02855787 Ry
     correction to one-el term =     -83.07523460 Ry

     iteration # 26     ecut=    80.00 Ry     beta= 0.20
     Davidson diagonalization with overlap

---- Real-time Memory Report at c_bands before calling an iterative solver
           338 MiB given to the printing process from OS
             0 MiB allocation reported by mallinfo(arena+hblkhd)
        221753 MiB available memory on the node where the printing process lives
------------------
     ethr =  4.24E-12,  avg # of iterations =  9.2

     negative rho (up, down):  3.504E-04 0.000E+00

     add environment contribution to local potential

     total cpu time spent up to now is      889.5 secs

     total energy              =    -421.27872576 Ry
     estimated scf accuracy    <          1.5E-09 Ry

     total charge of GC-SCF    =       2.72821679 e
     the Fermi energy          =      -4.90420567 eV
                        (error :       0.00020567 eV)
     electrostatic embedding   =      -1.49294663 Ry
     cavitation energy         =       0.01957364 Ry
     electrolyte free energy   =      -0.02855698 Ry
     correction to one-el term =     -83.07402491 Ry

     iteration # 27     ecut=    80.00 Ry     beta= 0.20
     Davidson diagonalization with overlap

---- Real-time Memory Report at c_bands before calling an iterative solver
           338 MiB given to the printing process from OS
             0 MiB allocation reported by mallinfo(arena+hblkhd)
        221722 MiB available memory on the node where the printing process lives
------------------
     ethr =  1.86E-12,  avg # of iterations =  9.3

     negative rho (up, down):  3.488E-04 0.000E+00

     add environment contribution to local potential

     total cpu time spent up to now is      913.5 secs

     total energy              =    -421.27872673 Ry
     estimated scf accuracy    <          5.0E-10 Ry

     total charge of GC-SCF    =       2.72817499 e
     the Fermi energy          =      -4.90407405 eV
                        (error :       0.00007405 eV)
     electrostatic embedding   =      -1.49283650 Ry
     cavitation energy         =       0.01957364 Ry
     electrolyte free energy   =      -0.02855469 Ry
     correction to one-el term =     -83.07083795 Ry

     iteration # 28     ecut=    80.00 Ry     beta= 0.20
     Davidson diagonalization with overlap

---- Real-time Memory Report at c_bands before calling an iterative solver
           338 MiB given to the printing process from OS
             0 MiB allocation reported by mallinfo(arena+hblkhd)
        221709 MiB available memory on the node where the printing process lives
------------------
     ethr =  6.13E-13,  avg # of iterations =  9.7

     negative rho (up, down):  3.476E-04 0.000E+00

     add environment contribution to local potential

     total cpu time spent up to now is      937.7 secs

     total energy              =    -421.27872719 Ry
     estimated scf accuracy    <          2.1E-10 Ry

     total charge of GC-SCF    =       2.72822727 e
     the Fermi energy          =      -4.90402430 eV
                        (error :       0.00002430 eV)
     electrostatic embedding   =      -1.49278889 Ry
     cavitation energy         =       0.01957364 Ry
     electrolyte free energy   =      -0.02855371 Ry
     correction to one-el term =     -83.06939170 Ry

     iteration # 29     ecut=    80.00 Ry     beta= 0.20
     Davidson diagonalization with overlap

---- Real-time Memory Report at c_bands before calling an iterative solver
           338 MiB given to the printing process from OS
             0 MiB allocation reported by mallinfo(arena+hblkhd)
        221731 MiB available memory on the node where the printing process lives
------------------
     ethr =  2.53E-13,  avg # of iterations =  8.6

     negative rho (up, down):  3.463E-04 0.000E+00

     add environment contribution to local potential

     total cpu time spent up to now is      961.1 secs

     total energy              =    -421.27872655 Ry
     estimated scf accuracy    <          6.6E-11 Ry

     total charge of GC-SCF    =       2.72822919 e
     the Fermi energy          =      -4.90412304 eV
                        (error :       0.00012304 eV)
     electrostatic embedding   =      -1.49284866 Ry
     cavitation energy         =       0.01957364 Ry
     electrolyte free energy   =      -0.02855492 Ry
     correction to one-el term =     -83.07107067 Ry

     iteration # 30     ecut=    80.00 Ry     beta= 0.20
     Davidson diagonalization with overlap

---- Real-time Memory Report at c_bands before calling an iterative solver
           338 MiB given to the printing process from OS
             0 MiB allocation reported by mallinfo(arena+hblkhd)
        221739 MiB available memory on the node where the printing process lives
------------------
     ethr =  1.00E-13,  avg # of iterations = 10.8

     negative rho (up, down):  3.454E-04 0.000E+00

     add environment contribution to local potential

     total cpu time spent up to now is      985.9 secs

     total energy              =    -421.27872648 Ry
     estimated scf accuracy    <          6.1E-11 Ry

     total charge of GC-SCF    =       2.72821062 e
     the Fermi energy          =      -4.90412875 eV
                        (error :       0.00012875 eV)
     electrostatic embedding   =      -1.49285471 Ry
     cavitation energy         =       0.01957364 Ry
     electrolyte free energy   =      -0.02855499 Ry
     correction to one-el term =     -83.07133377 Ry

     iteration # 31     ecut=    80.00 Ry     beta= 0.20
     Davidson diagonalization with overlap

---- Real-time Memory Report at c_bands before calling an iterative solver
           338 MiB given to the printing process from OS
             0 MiB allocation reported by mallinfo(arena+hblkhd)
        221697 MiB available memory on the node where the printing process lives
------------------
     ethr =  1.00E-13,  avg # of iterations =  8.5

     negative rho (up, down):  3.447E-04 0.000E+00

     add environment contribution to local potential

     total cpu time spent up to now is     1006.9 secs

     total energy              =    -421.27872661 Ry
     estimated scf accuracy    <          2.2E-11 Ry

     total charge of GC-SCF    =       2.72817619 e
     the Fermi energy          =      -4.90411153 eV
                        (error :       0.00011153 eV)
     electrostatic embedding   =      -1.49283434 Ry
     cavitation energy         =       0.01957364 Ry
     electrolyte free energy   =      -0.02855458 Ry
     correction to one-el term =     -83.07082781 Ry

     iteration # 32     ecut=    80.00 Ry     beta= 0.20
     Davidson diagonalization with overlap

---- Real-time Memory Report at c_bands before calling an iterative solver
           338 MiB given to the printing process from OS
             0 MiB allocation reported by mallinfo(arena+hblkhd)
        221700 MiB available memory on the node where the printing process lives
------------------
     ethr =  1.00E-13,  avg # of iterations =  7.7

     negative rho (up, down):  3.442E-04 0.000E+00

     add environment contribution to local potential

     total cpu time spent up to now is     1027.8 secs

     total energy              =    -421.27872689 Ry
     estimated scf accuracy    <          6.2E-12 Ry

     total charge of GC-SCF    =       2.72816012 e
     the Fermi energy          =      -4.90407358 eV
                        (error :       0.00007358 eV)
     electrostatic embedding   =      -1.49279426 Ry
     cavitation energy         =       0.01957364 Ry
     electrolyte free energy   =      -0.02855379 Ry
     correction to one-el term =     -83.06974948 Ry

     iteration # 33     ecut=    80.00 Ry     beta= 0.20
     Davidson diagonalization with overlap

---- Real-time Memory Report at c_bands before calling an iterative solver
           338 MiB given to the printing process from OS
             0 MiB allocation reported by mallinfo(arena+hblkhd)
        221700 MiB available memory on the node where the printing process lives
------------------
     ethr =  1.00E-13,  avg # of iterations =  5.8

     negative rho (up, down):  3.437E-04 0.000E+00

     add environment contribution to local potential

     total cpu time spent up to now is     1045.4 secs

     total energy              =    -421.27872702 Ry
     estimated scf accuracy    <          3.6E-12 Ry

     total charge of GC-SCF    =       2.72813056 e
     the Fermi energy          =      -4.90405471 eV
                        (error :       0.00005471 eV)
     electrostatic embedding   =      -1.49277622 Ry
     cavitation energy         =       0.01957364 Ry
     electrolyte free energy   =      -0.02855343 Ry
     correction to one-el term =     -83.06926363 Ry

     iteration # 34     ecut=    80.00 Ry     beta= 0.20
     Davidson diagonalization with overlap

---- Real-time Memory Report at c_bands before calling an iterative solver
           338 MiB given to the printing process from OS
             0 MiB allocation reported by mallinfo(arena+hblkhd)
        221694 MiB available memory on the node where the printing process lives
------------------
     ethr =  1.00E-13,  avg # of iterations =  9.5

     negative rho (up, down):  3.434E-04 0.000E+00

     add environment contribution to local potential

     total cpu time spent up to now is     1067.7 secs

     total energy              =    -421.27872723 Ry
     estimated scf accuracy    <          1.1E-12 Ry

     total charge of GC-SCF    =       2.72812263 e
     the Fermi energy          =      -4.90402315 eV
                        (error :       0.00002315 eV)
     electrostatic embedding   =      -1.49274388 Ry
     cavitation energy         =       0.01957364 Ry
     electrolyte free energy   =      -0.02855276 Ry
     correction to one-el term =     -83.06840571 Ry

     iteration # 35     ecut=    80.00 Ry     beta= 0.20
     Davidson diagonalization with overlap

---- Real-time Memory Report at c_bands before calling an iterative solver
           338 MiB given to the printing process from OS
             0 MiB allocation reported by mallinfo(arena+hblkhd)
        221680 MiB available memory on the node where the printing process lives
------------------
     ethr =  1.00E-13,  avg # of iterations =  3.6

     negative rho (up, down):  3.432E-04 0.000E+00

     add environment contribution to local potential

     total cpu time spent up to now is     1082.8 secs

     total energy              =    -421.27872728 Ry
     estimated scf accuracy    <          5.9E-13 Ry

     total charge of GC-SCF    =       2.72811232 e
     the Fermi energy          =      -4.90401578 eV
                        (error :       0.00001578 eV)
     electrostatic embedding   =      -1.49273503 Ry
     cavitation energy         =       0.01957364 Ry
     electrolyte free energy   =      -0.02855258 Ry
     correction to one-el term =     -83.06816993 Ry

     iteration # 36     ecut=    80.00 Ry     beta= 0.20
     Davidson diagonalization with overlap

---- Real-time Memory Report at c_bands before calling an iterative solver
           338 MiB given to the printing process from OS
             0 MiB allocation reported by mallinfo(arena+hblkhd)
        221694 MiB available memory on the node where the printing process lives
------------------
     ethr =  1.00E-13,  avg # of iterations =  6.4

     negative rho (up, down):  3.430E-04 0.000E+00

     add environment contribution to local potential

     total cpu time spent up to now is     1100.3 secs

     total energy              =    -421.27872736 Ry
     estimated scf accuracy    <          2.1E-13 Ry

     total charge of GC-SCF    =       2.72810878 e
     the Fermi energy          =      -4.90400445 eV
                        (error :       0.00000445 eV)
     electrostatic embedding   =      -1.49272342 Ry
     cavitation energy         =       0.01957364 Ry
     electrolyte free energy   =      -0.02855235 Ry
     correction to one-el term =     -83.06785690 Ry

     iteration # 37     ecut=    80.00 Ry     beta= 0.20
     Davidson diagonalization with overlap

---- Real-time Memory Report at c_bands before calling an iterative solver
           338 MiB given to the printing process from OS
             0 MiB allocation reported by mallinfo(arena+hblkhd)
        221691 MiB available memory on the node where the printing process lives
------------------
     ethr =  1.00E-13,  avg # of iterations =  2.5

     negative rho (up, down):  3.428E-04 0.000E+00

     add environment contribution to local potential

     total cpu time spent up to now is     1114.2 secs

     total energy              =    -421.27872739 Ry
     estimated scf accuracy    <          9.4E-14 Ry

     total charge of GC-SCF    =       2.72810816 e
     the Fermi energy          =      -4.90400070 eV
                        (error :       0.00000070 eV)
     electrostatic embedding   =      -1.49271926 Ry
     cavitation energy         =       0.01957364 Ry
     electrolyte free energy   =      -0.02855227 Ry
     correction to one-el term =     -83.06774292 Ry

     iteration # 38     ecut=    80.00 Ry     beta= 0.20
     Davidson diagonalization with overlap

---- Real-time Memory Report at c_bands before calling an iterative solver
           338 MiB given to the printing process from OS
             0 MiB allocation reported by mallinfo(arena+hblkhd)
        221695 MiB available memory on the node where the printing process lives
------------------
     ethr =  1.00E-13,  avg # of iterations =  2.2

     negative rho (up, down):  3.427E-04 0.000E+00

     add environment contribution to local potential

     total cpu time spent up to now is     1127.9 secs

     total energy              =    -421.27872739 Ry
     estimated scf accuracy    <          3.3E-14 Ry

     total charge of GC-SCF    =       2.72810814 e
     the Fermi energy          =      -4.90400010 eV
                        (error :       0.00000010 eV)
     electrostatic embedding   =      -1.49271856 Ry
     cavitation energy         =       0.01957364 Ry
     electrolyte free energy   =      -0.02855225 Ry
     correction to one-el term =     -83.06772451 Ry

     iteration # 39     ecut=    80.00 Ry     beta= 0.20
     Davidson diagonalization with overlap

---- Real-time Memory Report at c_bands before calling an iterative solver
           338 MiB given to the printing process from OS
             0 MiB allocation reported by mallinfo(arena+hblkhd)
        221698 MiB available memory on the node where the printing process lives
------------------
     ethr =  1.00E-13,  avg # of iterations =  2.3

     negative rho (up, down):  3.426E-04 0.000E+00

     add environment contribution to local potential

     total cpu time spent up to now is     1141.7 secs

     total energy              =    -421.27872739 Ry
     estimated scf accuracy    <          1.8E-14 Ry

     total charge of GC-SCF    =       2.72810813 e
     the Fermi energy          =      -4.90400001 eV
                        (error :       0.00000001 eV)
     electrostatic embedding   =      -1.49271852 Ry
     cavitation energy         =       0.01957364 Ry
     electrolyte free energy   =      -0.02855225 Ry
     correction to one-el term =     -83.06772373 Ry

     iteration # 40     ecut=    80.00 Ry     beta= 0.20
     Davidson diagonalization with overlap

---- Real-time Memory Report at c_bands before calling an iterative solver
           338 MiB given to the printing process from OS
             0 MiB allocation reported by mallinfo(arena+hblkhd)
        221698 MiB available memory on the node where the printing process lives
------------------
     ethr =  1.00E-13,  avg # of iterations =  2.1

     negative rho (up, down):  3.425E-04 0.000E+00

     add environment contribution to local potential

     total cpu time spent up to now is     1155.3 secs

     total energy              =    -421.27872739 Ry
     estimated scf accuracy    <          5.9E-15 Ry

     total charge of GC-SCF    =       2.72810833 e
     the Fermi energy          =      -4.90399973 eV
                        (error :       0.00000027 eV)
     electrostatic embedding   =      -1.49271853 Ry
     cavitation energy         =       0.01957364 Ry
     electrolyte free energy   =      -0.02855225 Ry
     correction to one-el term =     -83.06772434 Ry

     iteration # 41     ecut=    80.00 Ry     beta= 0.20
     Davidson diagonalization with overlap

---- Real-time Memory Report at c_bands before calling an iterative solver
           338 MiB given to the printing process from OS
             0 MiB allocation reported by mallinfo(arena+hblkhd)
        221680 MiB available memory on the node where the printing process lives
------------------
     ethr =  1.00E-13,  avg # of iterations =  2.1

     negative rho (up, down):  3.424E-04 0.000E+00

     add environment contribution to local potential

     total cpu time spent up to now is     1168.9 secs

     total energy              =    -421.27872739 Ry
     estimated scf accuracy    <          2.9E-15 Ry

     total charge of GC-SCF    =       2.72810833 e
     the Fermi energy          =      -4.90399989 eV
                        (error :       0.00000011 eV)
     electrostatic embedding   =      -1.49271874 Ry
     cavitation energy         =       0.01957364 Ry
     electrolyte free energy   =      -0.02855226 Ry
     correction to one-el term =     -83.06773025 Ry

     iteration # 42     ecut=    80.00 Ry     beta= 0.20
     Davidson diagonalization with overlap

---- Real-time Memory Report at c_bands before calling an iterative solver
           338 MiB given to the printing process from OS
             0 MiB allocation reported by mallinfo(arena+hblkhd)
        221690 MiB available memory on the node where the printing process lives
------------------
     ethr =  1.00E-13,  avg # of iterations =  1.9

     negative rho (up, down):  3.424E-04 0.000E+00

     add environment contribution to local potential

     total cpu time spent up to now is     1182.4 secs

     total energy              =    -421.27872739 Ry
     estimated scf accuracy    <          1.5E-15 Ry

     total charge of GC-SCF    =       2.72810840 e
     the Fermi energy          =      -4.90399991 eV
                        (error :       0.00000009 eV)
     electrostatic embedding   =      -1.49271874 Ry
     cavitation energy         =       0.01957364 Ry
     electrolyte free energy   =      -0.02855226 Ry
     correction to one-el term =     -83.06773050 Ry

     iteration # 43     ecut=    80.00 Ry     beta= 0.20
     Davidson diagonalization with overlap

---- Real-time Memory Report at c_bands before calling an iterative solver
           338 MiB given to the printing process from OS
             0 MiB allocation reported by mallinfo(arena+hblkhd)
        221694 MiB available memory on the node where the printing process lives
------------------
     ethr =  1.00E-13,  avg # of iterations =  1.8

     negative rho (up, down):  3.424E-04 0.000E+00

     add environment contribution to local potential

     total cpu time spent up to now is     1195.8 secs

     total energy              =    -421.27872739 Ry
     estimated scf accuracy    <          1.2E-15 Ry

     total charge of GC-SCF    =       2.72810827 e
     the Fermi energy          =      -4.90399999 eV
                        (error :       0.00000001 eV)
     electrostatic embedding   =      -1.49271884 Ry
     cavitation energy         =       0.01957364 Ry
     electrolyte free energy   =      -0.02855226 Ry
     correction to one-el term =     -83.06773327 Ry

     iteration # 44     ecut=    80.00 Ry     beta= 0.20
     Davidson diagonalization with overlap

---- Real-time Memory Report at c_bands before calling an iterative solver
           338 MiB given to the printing process from OS
             0 MiB allocation reported by mallinfo(arena+hblkhd)
        221699 MiB available memory on the node where the printing process lives
------------------
     ethr =  1.00E-13,  avg # of iterations =  1.2

     negative rho (up, down):  3.423E-04 0.000E+00

     add environment contribution to local potential

     total cpu time spent up to now is     1208.9 secs

     total energy              =    -421.27872739 Ry
     estimated scf accuracy    <          1.1E-15 Ry

     total charge of GC-SCF    =       2.72810830 e
     the Fermi energy          =      -4.90399989 eV
                        (error :       0.00000011 eV)
     electrostatic embedding   =      -1.49271869 Ry
     cavitation energy         =       0.01957364 Ry
     electrolyte free energy   =      -0.02855225 Ry
     correction to one-el term =     -83.06772929 Ry

     iteration # 45     ecut=    80.00 Ry     beta= 0.20
     Davidson diagonalization with overlap

---- Real-time Memory Report at c_bands before calling an iterative solver
           338 MiB given to the printing process from OS
             0 MiB allocation reported by mallinfo(arena+hblkhd)
        221703 MiB available memory on the node where the printing process lives
------------------
     ethr =  1.00E-13,  avg # of iterations =  1.6

     negative rho (up, down):  3.423E-04 0.000E+00

     add environment contribution to local potential

     total cpu time spent up to now is     1222.2 secs

     total energy              =    -421.27872739 Ry
     estimated scf accuracy    <          7.3E-16 Ry

     total charge of GC-SCF    =       2.72810819 e
     the Fermi energy          =      -4.90399989 eV
                        (error :       0.00000011 eV)
     electrostatic embedding   =      -1.49271872 Ry
     cavitation energy         =       0.01957364 Ry
     electrolyte free energy   =      -0.02855225 Ry
     correction to one-el term =     -83.06773030 Ry

     iteration # 46     ecut=    80.00 Ry     beta= 0.20
     Davidson diagonalization with overlap

---- Real-time Memory Report at c_bands before calling an iterative solver
           338 MiB given to the printing process from OS
             0 MiB allocation reported by mallinfo(arena+hblkhd)
        221684 MiB available memory on the node where the printing process lives
------------------
     ethr =  1.00E-13,  avg # of iterations =  1.7

     negative rho (up, down):  3.423E-04 0.000E+00

     add environment contribution to local potential

     total cpu time spent up to now is     1235.6 secs

     total energy              =    -421.27872739 Ry
     estimated scf accuracy    <          2.4E-16 Ry

     total charge of GC-SCF    =       2.72810819 e
     the Fermi energy          =      -4.90399970 eV
                        (error :       0.00000030 eV)
     electrostatic embedding   =      -1.49271860 Ry
     cavitation energy         =       0.01957364 Ry
     electrolyte free energy   =      -0.02855225 Ry
     correction to one-el term =     -83.06772673 Ry

     iteration # 47     ecut=    80.00 Ry     beta= 0.20
     Davidson diagonalization with overlap

---- Real-time Memory Report at c_bands before calling an iterative solver
           338 MiB given to the printing process from OS
             0 MiB allocation reported by mallinfo(arena+hblkhd)
        221678 MiB available memory on the node where the printing process lives
------------------
     ethr =  1.00E-13,  avg # of iterations =  1.0

     negative rho (up, down):  3.423E-04 0.000E+00

     add environment contribution to local potential

     total cpu time spent up to now is     1248.7 secs

     total energy              =    -421.27872739 Ry
     estimated scf accuracy    <          2.4E-16 Ry

     total charge of GC-SCF    =       2.72810831 e
     the Fermi energy          =      -4.90399975 eV
                        (error :       0.00000025 eV)
     electrostatic embedding   =      -1.49271861 Ry
     cavitation energy         =       0.01957364 Ry
     electrolyte free energy   =      -0.02855225 Ry
     correction to one-el term =     -83.06772697 Ry

     iteration # 48     ecut=    80.00 Ry     beta= 0.20
     Davidson diagonalization with overlap

---- Real-time Memory Report at c_bands before calling an iterative solver
           338 MiB given to the printing process from OS
             0 MiB allocation reported by mallinfo(arena+hblkhd)
        221670 MiB available memory on the node where the printing process lives
------------------
     ethr =  1.00E-13,  avg # of iterations =  1.0

     negative rho (up, down):  3.422E-04 0.000E+00

     total cpu time spent up to now is     1257.2 secs

     End of self-consistent calculation

          k = 0.0000 0.0000 0.0000 (186229 PWs)   bands (ev):

   -52.7515 -52.7515 -52.7440 -52.7440 -52.2682 -52.2682 -52.2604 -52.2604
   -51.7111 -51.7111 -51.7030 -51.7030 -51.4527 -51.4463 -51.4446 -51.4426
   -51.4413 -51.4398 -51.4369 -51.4352 -51.4223 -51.4173 -51.4146 -51.4095
   -51.3589 -51.3589 -51.3509 -51.3509  -8.2837  -7.8705  -7.1591  -6.3767
    -6.2487  -6.1221  -5.8726  -5.8664  -5.2159  -5.1365  -5.1358  -5.0268
    -5.0125  -4.8047  -4.7133  -4.4372  -4.3206  -4.1173  -4.0675  -3.9937
    -3.8759  -3.5034  -3.4302  -3.2719  -2.9016  -2.6980  -2.4239  -2.0433
    -1.9515  -1.8600  -1.8239  -1.5571  -1.5276  -1.2729  -1.2222

     occupation numbers 
     1.0000   1.0000   1.0000   1.0000   1.0000   1.0000   1.0000   1.0000
     1.0000   1.0000   1.0000   1.0000   1.0000   1.0000   1.0000   1.0000
     1.0000   1.0000   1.0000   1.0000   1.0000   1.0000   1.0000   1.0000
     1.0000   1.0000   1.0000   1.0000   1.0000   1.0000   1.0000   1.0000
     1.0000   1.0000   1.0000   1.0000   1.0198   1.0680   1.0684   0.9929
     0.9466   0.0717   0.0061   0.0000   0.0000   0.0000   0.0000   0.0000
     0.0000   0.0000   0.0000   0.0000   0.0000   0.0000   0.0000   0.0000
     0.0000   0.0000   0.0000   0.0000   0.0000   0.0000   0.0000

          k = 0.0000 0.0891 0.0000 (186265 PWs)   bands (ev):

   -52.7515 -52.7515 -52.7440 -52.7440 -52.2682 -52.2682 -52.2604 -52.2604
   -51.7111 -51.7111 -51.7030 -51.7030 -51.4526 -51.4463 -51.4447 -51.4426
   -51.4413 -51.4398 -51.4369 -51.4352 -51.4222 -51.4173 -51.4146 -51.4094
   -51.3589 -51.3589 -51.3509 -51.3509  -8.2585  -7.8457  -7.1377  -6.6856
    -6.2693  -6.2341  -5.7725  -5.5687  -5.3726  -5.1553  -5.1416  -4.9815
    -4.7953  -4.7269  -4.6832  -4.4815  -4.3022  -4.2090  -4.1133  -3.9802
    -3.7980  -3.5487  -3.4290  -3.2579  -2.8633  -2.8132  -2.4953  -2.1309
    -2.0953  -1.7068  -1.6345  -1.5314  -1.4239  -1.2999  -1.2475

     occupation numbers 
     1.0000   1.0000   1.0000   1.0000   1.0000   1.0000   1.0000   1.0000
     1.0000   1.0000   1.0000   1.0000   1.0000   1.0000   1.0000   1.0000
     1.0000   1.0000   1.0000   1.0000   1.0000   1.0000   1.0000   1.0000
     1.0000   1.0000   1.0000   1.0000   1.0000   1.0000   1.0000   1.0000
     1.0000   1.0000   1.0000   1.0000   1.0002   1.0553   1.0647   0.8143
     0.0579   0.0093   0.0022   0.0000   0.0000   0.0000   0.0000   0.0000
     0.0000   0.0000   0.0000   0.0000   0.0000   0.0000   0.0000   0.0000
     0.0000   0.0000   0.0000   0.0000   0.0000   0.0000   0.0000

          k = 0.0000 0.1782 0.0000 (186243 PWs)   bands (ev):

   -52.7515 -52.7515 -52.7440 -52.7440 -52.2682 -52.2682 -52.2604 -52.2604
   -51.7111 -51.7111 -51.7030 -51.7030 -51.4524 -51.4464 -51.4448 -51.4427
   -51.4412 -51.4398 -51.4369 -51.4352 -51.4222 -51.4173 -51.4146 -51.4094
   -51.3589 -51.3589 -51.3509 -51.3509  -8.1831  -7.7718  -7.0858  -7.0440
    -6.6147  -6.2353  -5.7847  -5.3335  -5.2799  -5.1296  -4.9351  -4.8782
    -4.7573  -4.6173  -4.5761  -4.5020  -4.2595  -4.2152  -4.1538  -3.9721
    -3.7813  -3.6333  -3.4828  -3.2229  -3.0045  -2.7781  -2.7302  -2.1348
    -2.0949  -1.6514  -1.5273  -1.3907  -1.3399  -1.2613  -1.2244

     occupation numbers 
     1.0000   1.0000   1.0000   1.0000   1.0000   1.0000   1.0000   1.0000
     1.0000   1.0000   1.0000   1.0000   1.0000   1.0000   1.0000   1.0000
     1.0000   1.0000   1.0000   1.0000   1.0000   1.0000   1.0000   1.0000
     1.0000   1.0000   1.0000   1.0000   1.0000   1.0000   1.0000   1.0000
     1.0000   1.0000   1.0000   1.0007   1.0040   1.0722   0.5666   0.2810
     0.0223   0.0002   0.0000   0.0000   0.0000   0.0000   0.0000   0.0000
     0.0000   0.0000   0.0000   0.0000   0.0000   0.0000   0.0000   0.0000
     0.0000   0.0000   0.0000   0.0000   0.0000   0.0000   0.0000

          k = 0.0000 0.2673 0.0000 (186330 PWs)   bands (ev):

   -52.7515 -52.7515 -52.7440 -52.7440 -52.2682 -52.2682 -52.2604 -52.2604
   -51.7111 -51.7111 -51.7030 -51.7030 -51.4521 -51.4466 -51.4450 -51.4427
   -51.4412 -51.4398 -51.4369 -51.4353 -51.4221 -51.4173 -51.4146 -51.4094
   -51.3589 -51.3589 -51.3509 -51.3509  -8.0576  -7.6498  -7.3751  -7.0600
    -6.8321  -6.3462  -5.8664  -5.4468  -5.0857  -4.8314  -4.7633  -4.7127
    -4.7061  -4.6772  -4.5019  -4.3467  -4.2929  -4.2100  -3.9813  -3.9792
    -3.7729  -3.7287  -3.5962  -3.2063  -3.2003  -2.9675  -2.6010  -2.2025
    -2.0578  -1.6348  -1.5849  -1.3573  -1.2647  -1.1211  -1.1024

     occupation numbers 
     1.0000   1.0000   1.0000   1.0000   1.0000   1.0000   1.0000   1.0000
     1.0000   1.0000   1.0000   1.0000   1.0000   1.0000   1.0000   1.0000
     1.0000   1.0000   1.0000   1.0000   1.0000   1.0000   1.0000   1.0000
     1.0000   1.0000   1.0000   1.0000   1.0000   1.0000   1.0000   1.0000
     1.0000   1.0000   1.0000   1.0000   1.0817   0.1252   0.0261   0.0060
     0.0049   0.0018   0.0000   0.0000   0.0000   0.0000   0.0000   0.0000
     0.0000   0.0000   0.0000   0.0000   0.0000   0.0000   0.0000   0.0000
     0.0000   0.0000   0.0000   0.0000   0.0000   0.0000   0.0000

          k = 0.0000 0.3563 0.0000 (186318 PWs)   bands (ev):

   -52.7515 -52.7515 -52.7440 -52.7440 -52.2682 -52.2682 -52.2604 -52.2604
   -51.7111 -51.7111 -51.7030 -51.7030 -51.4519 -51.4468 -51.4450 -51.4428
   -51.4411 -51.4398 -51.4369 -51.4353 -51.4220 -51.4173 -51.4146 -51.4094
   -51.3589 -51.3589 -51.3509 -51.3509  -7.8828  -7.6549  -7.4738  -7.2625
    -6.7388  -6.5497  -5.7875  -5.6027  -5.0212  -4.8408  -4.6528  -4.6273
    -4.5773  -4.4941  -4.4892  -4.4127  -4.2084  -4.0517  -3.9682  -3.9526
    -3.8426  -3.6782  -3.5956  -3.3550  -3.3199  -3.0292  -2.5520  -2.2586
    -2.0484  -1.6462  -1.6364  -1.4567  -1.3535  -1.1843  -1.1203

     occupation numbers 
     1.0000   1.0000   1.0000   1.0000   1.0000   1.0000   1.0000   1.0000
     1.0000   1.0000   1.0000   1.0000   1.0000   1.0000   1.0000   1.0000
     1.0000   1.0000   1.0000   1.0000   1.0000   1.0000   1.0000   1.0000
     1.0000   1.0000   1.0000   1.0000   1.0000   1.0000   1.0000   1.0000
[...]
     atom   15 type  1   force =     0.00009479   -0.02140954    0.00303056
     atom   16 type  1   force =    -0.00009473    0.02140961   -0.00303055
     atom   17 type  1   force =     0.00007960   -0.03261433   -0.08643172
     atom   18 type  1   force =     0.00016396    0.01577841   -0.10288152
     atom   19 type  1   force =    -0.00004461    0.00086294   -0.06802824
     atom   20 type  1   force =    -0.00002042   -0.00413642   -0.05564816
     atom   21 type  1   force =     0.00002817    0.00189598   -0.03296398
     atom   22 type  1   force =    -0.00002460   -0.00023731   -0.01052647
     atom   23 type  1   force =     0.00002460    0.00023731    0.01052692
     atom   24 type  1   force =    -0.00002817   -0.00189596    0.03296437
     atom   25 type  1   force =     0.00002042    0.00413638    0.05564857
     atom   26 type  1   force =     0.00004460   -0.00086287    0.06802877
     atom   27 type  1   force =    -0.00016396   -0.01577833    0.10288181
     atom   28 type  1   force =    -0.00007964    0.03261415    0.08643222


     Forces acting on atoms (cartesian axes, Ry/au):

     atom    1 type  1   force =     0.00022041    0.00017154    0.00011509
     atom    2 type  1   force =    -0.00022060   -0.00017157   -0.00011512
     atom    3 type  1   force =     0.00007643    0.00005601   -0.00010172
     atom    4 type  1   force =    -0.00002560   -0.00006114   -0.00012929
     atom    5 type  1   force =     0.00027636   -0.00005146    0.00005900
     atom    6 type  1   force =    -0.00018126   -0.00002381   -0.00016359
     atom    7 type  1   force =     0.00003893    0.00012702    0.00013999
     atom    8 type  1   force =     0.00007505   -0.00002779   -0.00000451
     atom    9 type  1   force =    -0.00007511    0.00002779    0.00000451
     atom   10 type  1   force =    -0.00003899   -0.00012698   -0.00013998
     atom   11 type  1   force =     0.00018134    0.00002380    0.00016357
     atom   12 type  1   force =    -0.00027640    0.00005146   -0.00005906
     atom   13 type  1   force =     0.00002555    0.00006107    0.00012931
     atom   14 type  1   force =    -0.00007627   -0.00005596    0.00010171
     atom   15 type  1   force =     0.00022035    0.00017153    0.00011513
     atom   16 type  1   force =    -0.00022003   -0.00017158   -0.00011508
     atom   17 type  1   force =     0.00007613    0.00005596   -0.00010176
     atom   18 type  1   force =    -0.00002563   -0.00006108   -0.00012929
     atom   19 type  1   force =     0.00027656   -0.00005145    0.00005910
     atom   20 type  1   force =    -0.00018126   -0.00002380   -0.00016358
     atom   21 type  1   force =     0.00003894    0.00012703    0.00014001
     atom   22 type  1   force =     0.00007506   -0.00002777   -0.00000452
     atom   23 type  1   force =    -0.00007513    0.00002779    0.00000451
     atom   24 type  1   force =    -0.00003900   -0.00012699   -0.00013996
     atom   25 type  1   force =     0.00018131    0.00002379    0.00016355
     atom   26 type  1   force =    -0.00027632    0.00005144   -0.00005902
     atom   27 type  1   force =     0.00002554    0.00006109    0.00012930
     atom   28 type  1   force =    -0.00007635   -0.00005595    0.00010170
     The non-local contrib.  to forces
     atom    1 type  1   force =     0.00009432   -0.02075178    0.09043186
     atom    2 type  1   force =    -0.00009430    0.02075196   -0.09043186
     atom    3 type  1   force =     0.00024496   -0.02928707   -0.07712747
     atom    4 type  1   force =     0.00070968    0.01008719   -0.03503486
     atom    5 type  1   force =    -0.00093478   -0.00222248    0.00668416
     atom    6 type  1   force =     0.00008043    0.00009843    0.00555670
     atom    7 type  1   force =    -0.00023618   -0.00029297    0.00106445
     atom    8 type  1   force =     0.00072375   -0.00067580   -0.00086534
     atom    9 type  1   force =    -0.00072366    0.00067576    0.00086544
     atom   10 type  1   force =     0.00023609    0.00029291   -0.00106453
     atom   11 type  1   force =    -0.00008039   -0.00009851   -0.00555651
     atom   12 type  1   force =     0.00093482    0.00222229   -0.00668416
     atom   13 type  1   force =    -0.00070970   -0.01008699    0.03503440
     atom   14 type  1   force =    -0.00024455    0.02928667    0.07712765
     atom   15 type  1   force =     0.00009429   -0.02075174    0.09043166
     atom   16 type  1   force =    -0.00009416    0.02075190   -0.09043191
     atom   17 type  1   force =     0.00024476   -0.02928706   -0.07712757
     atom   18 type  1   force =     0.00070970    0.01008716   -0.03503494
     atom   19 type  1   force =    -0.00093461   -0.00222242    0.00668424
     atom   20 type  1   force =     0.00008043    0.00009840    0.00555664
     atom   21 type  1   force =    -0.00023615   -0.00029296    0.00106446
     atom   22 type  1   force =     0.00072378   -0.00067580   -0.00086533
     atom   23 type  1   force =    -0.00072368    0.00067576    0.00086548
     atom   24 type  1   force =     0.00023607    0.00029292   -0.00106448
     atom   25 type  1   force =    -0.00008042   -0.00009849   -0.00555656
     atom   26 type  1   force =     0.00093483    0.00222230   -0.00668417
     atom   27 type  1   force =    -0.00070981   -0.01008696    0.03503438
     atom   28 type  1   force =    -0.00024465    0.02928667    0.07712770
     The ionic contribution  to forces
     atom    1 type  1   force =     0.00077428   -0.20408619   13.09689390
     atom    2 type  1   force =    -0.00077726    0.20408942  -13.09690033
     atom    3 type  1   force =     0.00197374   -0.37748709  -11.68630624
     atom    4 type  1   force =    -0.00211918    0.22426809   -9.36046423
     atom    5 type  1   force =     0.00062081   -0.05185863   -7.77025413
     atom    6 type  1   force =    -0.00164084    0.01257937   -5.26376627
     atom    7 type  1   force =     0.00409328    0.02407229   -3.16041196
     atom    8 type  1   force =    -0.00224795   -0.07152216   -1.15625961
     atom    9 type  1   force =     0.00224731    0.07152244    1.15626120
     atom   10 type  1   force =    -0.00409256   -0.02407158    3.16040995
     atom   11 type  1   force =     0.00164172   -0.01258098    5.26376853
     atom   12 type  1   force =    -0.00062231    0.05186044    7.77025921
     atom   13 type  1   force =     0.00211991   -0.22426742    9.36045697
     atom   14 type  1   force =    -0.00197206    0.37748192   11.68631157
     atom   15 type  1   force =     0.00077354   -0.20408648   13.09689905
     atom   16 type  1   force =    -0.00076984    0.20408882  -13.09689770
     atom   17 type  1   force =     0.00196935   -0.37748722  -11.68630844
     atom   18 type  1   force =    -0.00211925    0.22426789   -9.36046509
     atom   19 type  1   force =     0.00062329   -0.05185762   -7.77025956
     atom   20 type  1   force =    -0.00164147    0.01257906   -5.26376815
     atom   21 type  1   force =     0.00409319    0.02407269   -3.16041099
     atom   22 type  1   force =    -0.00224751   -0.07152196   -1.15626155
     atom   23 type  1   force =     0.00224718    0.07152227    1.15626369
     atom   24 type  1   force =    -0.00409297   -0.02407157    3.16040883
     atom   25 type  1   force =     0.00164141   -0.01258094    5.26376695
     atom   26 type  1   force =    -0.00062157    0.05186027    7.77026520
     atom   27 type  1   force =     0.00211921   -0.22426690    9.36045562
     atom   28 type  1   force =    -0.00197344    0.37748178   11.68631357
     The local contribution  to forces
     atom    1 type  1   force =    -0.00074296    0.24641906  -13.19024193
     atom    2 type  1   force =     0.00074586   -0.24642259   13.19024728
     atom    3 type  1   force =    -0.00222190    0.43944450   11.84976373
     atom    4 type  1   force =     0.00121995   -0.25019486    9.49825131
     atom    5 type  1   force =     0.00063497    0.05316670    7.83165717
     atom    6 type  1   force =     0.00139960   -0.00856521    5.31369412
     atom    7 type  1   force =    -0.00384630   -0.02554829    3.19245148
     atom    8 type  1   force =     0.00162389    0.07240747    1.16764688
     atom    9 type  1   force =    -0.00162333   -0.07240773   -1.16764904
     atom   10 type  1   force =     0.00384567    0.02554763   -3.19244978
     atom   11 type  1   force =    -0.00140037    0.00856690   -5.31369704
     atom   12 type  1   force =    -0.00063348   -0.05316842   -7.83166285
     atom   13 type  1   force =    -0.00122066    0.25019382   -9.49824387
     atom   14 type  1   force =     0.00222001   -0.43943871  -11.84976976
     atom   15 type  1   force =    -0.00074225    0.24641930  -13.19024613
     atom   16 type  1   force =     0.00073874   -0.24642194   13.19024506
     atom   17 type  1   force =    -0.00221756    0.43944457   11.84976597
     atom   18 type  1   force =     0.00121999   -0.25019455    9.49825226
     atom   19 type  1   force =     0.00063252    0.05316563    7.83166265
     atom   20 type  1   force =     0.00140023   -0.00856486    5.31369609
     atom   21 type  1   force =    -0.00384624   -0.02554869    3.19245052
     atom   22 type  1   force =     0.00162342    0.07240729    1.16764885
     atom   23 type  1   force =    -0.00162320   -0.07240757   -1.16765158
     atom   24 type  1   force =     0.00384610    0.02554760   -3.19244868
     atom   25 type  1   force =    -0.00140008    0.00856683   -5.31369542
     atom   26 type  1   force =    -0.00063416   -0.05316828   -7.83166882
     atom   27 type  1   force =    -0.00121987    0.25019326   -9.49824252
     atom   28 type  1   force =     0.00222142   -0.43943857  -11.84977178
     The core correction contribution to forces
     atom    1 type  1   force =     0.00000000    0.00000000    0.00000000
     atom    2 type  1   force =     0.00000000    0.00000000    0.00000000
     atom    3 type  1   force =     0.00000000    0.00000000    0.00000000
     atom    4 type  1   force =     0.00000000    0.00000000    0.00000000
     atom    5 type  1   force =     0.00000000    0.00000000    0.00000000
     atom    6 type  1   force =     0.00000000    0.00000000    0.00000000
     atom    7 type  1   force =     0.00000000    0.00000000    0.00000000
     atom    8 type  1   force =     0.00000000    0.00000000    0.00000000
     atom    9 type  1   force =     0.00000000    0.00000000    0.00000000
     atom   10 type  1   force =     0.00000000    0.00000000    0.00000000
     atom   11 type  1   force =     0.00000000    0.00000000    0.00000000
     atom   12 type  1   force =     0.00000000    0.00000000    0.00000000
     atom   13 type  1   force =     0.00000000    0.00000000    0.00000000
     atom   14 type  1   force =     0.00000000    0.00000000    0.00000000
     atom   15 type  1   force =     0.00000000    0.00000000    0.00000000
     atom   16 type  1   force =     0.00000000    0.00000000    0.00000000
     atom   17 type  1   force =     0.00000000    0.00000000    0.00000000
     atom   18 type  1   force =     0.00000000    0.00000000    0.00000000
     atom   19 type  1   force =     0.00000000    0.00000000    0.00000000
     atom   20 type  1   force =     0.00000000    0.00000000    0.00000000
     atom   21 type  1   force =     0.00000000    0.00000000    0.00000000
     atom   22 type  1   force =     0.00000000    0.00000000    0.00000000
     atom   23 type  1   force =     0.00000000    0.00000000    0.00000000
     atom   24 type  1   force =     0.00000000    0.00000000    0.00000000
     atom   25 type  1   force =     0.00000000    0.00000000    0.00000000
     atom   26 type  1   force =     0.00000000    0.00000000    0.00000000
     atom   27 type  1   force =     0.00000000    0.00000000    0.00000000
     atom   28 type  1   force =     0.00000000    0.00000000    0.00000000
     The Hubbard contrib.    to forces
     atom    1 type  1   force =     0.00000000    0.00000000    0.00000000
     atom    2 type  1   force =     0.00000000    0.00000000    0.00000000
     atom    3 type  1   force =     0.00000000    0.00000000    0.00000000
     atom    4 type  1   force =     0.00000000    0.00000000    0.00000000
     atom    5 type  1   force =     0.00000000    0.00000000    0.00000000
     atom    6 type  1   force =     0.00000000    0.00000000    0.00000000
     atom    7 type  1   force =     0.00000000    0.00000000    0.00000000
     atom    8 type  1   force =     0.00000000    0.00000000    0.00000000
     atom    9 type  1   force =     0.00000000    0.00000000    0.00000000
     atom   10 type  1   force =     0.00000000    0.00000000    0.00000000
     atom   11 type  1   force =     0.00000000    0.00000000    0.00000000
     atom   12 type  1   force =     0.00000000    0.00000000    0.00000000
     atom   13 type  1   force =     0.00000000    0.00000000    0.00000000
     atom   14 type  1   force =     0.00000000    0.00000000    0.00000000
     atom   15 type  1   force =     0.00000000    0.00000000    0.00000000
     atom   16 type  1   force =     0.00000000    0.00000000    0.00000000
     atom   17 type  1   force =     0.00000000    0.00000000    0.00000000
     atom   18 type  1   force =     0.00000000    0.00000000    0.00000000
     atom   19 type  1   force =     0.00000000    0.00000000    0.00000000
     atom   20 type  1   force =     0.00000000    0.00000000    0.00000000
     atom   21 type  1   force =     0.00000000    0.00000000    0.00000000
     atom   22 type  1   force =     0.00000000    0.00000000    0.00000000
     atom   23 type  1   force =     0.00000000    0.00000000    0.00000000
     atom   24 type  1   force =     0.00000000    0.00000000    0.00000000
     atom   25 type  1   force =     0.00000000    0.00000000    0.00000000
     atom   26 type  1   force =     0.00000000    0.00000000    0.00000000
     atom   27 type  1   force =     0.00000000    0.00000000    0.00000000
     atom   28 type  1   force =     0.00000000    0.00000000    0.00000000
     The SCF correction term to forces
     atom    1 type  1   force =    -0.00000001   -0.00000001   -0.00000002
     atom    2 type  1   force =    -0.00000001    0.00000000    0.00000002
     atom    3 type  1   force =    -0.00000000   -0.00000000    0.00000001
     atom    4 type  1   force =     0.00000000    0.00000000   -0.00000000
     atom    5 type  1   force =    -0.00000000    0.00000000    0.00000000
     atom    6 type  1   force =     0.00000000    0.00000000   -0.00000000
     atom    7 type  1   force =     0.00000000   -0.00000000    0.00000000
     atom    8 type  1   force =     0.00000000    0.00000000   -0.00000000
     atom    9 type  1   force =     0.00000000   -0.00000000    0.00000001
     atom   10 type  1   force =    -0.00000000   -0.00000000    0.00000001
     atom   11 type  1   force =     0.00000000    0.00000000    0.00000000
     atom   12 type  1   force =     0.00000000   -0.00000000    0.00000000
     atom   13 type  1   force =    -0.00000000    0.00000000    0.00000001
     atom   14 type  1   force =    -0.00000001    0.00000000   -0.00000001
     atom   15 type  1   force =    -0.00000000   -0.00000001   -0.00000001
     atom   16 type  1   force =    -0.00000001    0.00000000    0.00000002
     atom   17 type  1   force =    -0.00000000   -0.00000000    0.00000001
     atom   18 type  1   force =     0.00000000    0.00000000   -0.00000000
     atom   19 type  1   force =    -0.00000000    0.00000000    0.00000000
     atom   20 type  1   force =     0.00000000    0.00000000   -0.00000000
     atom   21 type  1   force =     0.00000000   -0.00000000    0.00000000
     atom   22 type  1   force =     0.00000000    0.00000000   -0.00000000
     atom   23 type  1   force =     0.00000000   -0.00000000    0.00000001
     atom   24 type  1   force =    -0.00000000   -0.00000000    0.00000001
     atom   25 type  1   force =     0.00000000    0.00000000    0.00000000
     atom   26 type  1   force =     0.00000000   -0.00000000    0.00000000
     atom   27 type  1   force =    -0.00000000    0.00000000    0.00000001
     atom   28 type  1   force =    -0.00000001    0.00000000   -0.00000001

     Total force =     0.001128     Total SCF correction =     0.000000

     Writing all to output data dir ./Li/Lithium.save/ :
     XML data file
     init_run     :     13.61s CPU     22.15s WALL (       1 calls)
     electrons    :    973.36s CPU   1234.82s WALL (       1 calls)
     forces       :      6.83s CPU      7.58s WALL (       1 calls)

     Called by init_run:
     wfcinit      :      2.35s CPU      3.32s WALL (       1 calls)
     wfcinit:wfcr :      2.23s CPU      3.20s WALL (      25 calls)
     potinit      :      0.87s CPU      0.93s WALL (       1 calls)
     hinit0       :      5.40s CPU     12.76s WALL (       1 calls)

     Called by electrons:
     c_bands      :    740.87s CPU    947.59s WALL (      48 calls)
     sum_band     :     50.97s CPU     72.08s WALL (      48 calls)
     v_of_rho     :      2.34s CPU      2.80s WALL (      49 calls)
     v_h          :      0.24s CPU      0.26s WALL (      49 calls)
     v_xc         :      2.10s CPU      2.53s WALL (      49 calls)
     newd         :      1.04s CPU      1.11s WALL (      49 calls)
     PAW_pot      :      0.38s CPU      0.55s WALL (      49 calls)
     mix_rho      :      7.28s CPU      9.42s WALL (      48 calls)

     Called by c_bands:
     init_us_2    :      4.18s CPU      4.52s WALL (    2450 calls)
     cegterg      :    721.61s CPU    908.04s WALL (    1442 calls)

     Called by sum_band:
     sum_band:wei :      0.09s CPU      0.12s WALL (      48 calls)
     sum_band:loo :     49.51s CPU     70.28s WALL (      48 calls)
     sum_band:buf :      0.48s CPU      0.53s WALL (    1200 calls)
     sum_band:ini :      1.83s CPU      1.93s WALL (    1200 calls)
     sum_band:cal :      5.82s CPU      7.23s WALL (    1200 calls)
     sum_band:bec :      0.11s CPU      0.12s WALL (    1200 calls)
     addusdens    :      1.02s CPU      1.09s WALL (      48 calls)
                                        0.00s GPU  (      48 calls)
     addusd:skk   :      0.21s CPU      0.21s WALL (      48 calls)
                                        0.00s GPU  (      48 calls)

     Called by *egterg:
     cdiaghg      :    189.43s CPU    196.68s WALL (   15508 calls)
     cegterg:over :     40.50s CPU     46.16s WALL (   14183 calls)
     cegterg:upda :     27.61s CPU     28.81s WALL (   14183 calls)
     cegterg:last :      7.57s CPU      7.71s WALL (    1805 calls)
     h_psi        :    414.10s CPU    582.92s WALL (   15650 calls)
     s_psi        :     23.79s CPU     24.62s WALL (   15650 calls)
     g_psi        :      0.43s CPU      0.46s WALL (   14183 calls)

     Called by h_psi:
     h_psi:calbec :     35.34s CPU     44.65s WALL (   15650 calls)
     vloc_psi     :    351.73s CPU    509.18s WALL (   15650 calls)
                                        0.00s GPU  (   15650 calls)
     add_vuspsi   :     25.35s CPU     27.23s WALL (   15650 calls)

     General routines
     calbec       :     41.56s CPU     52.34s WALL (   16950 calls)
     fft          :      6.08s CPU     13.80s WALL (     637 calls)
     ffts         :      6.19s CPU      7.87s WALL (    5878 calls)
     fftw         :    379.14s CPU    550.52s WALL (  707690 calls)
     interpolate  :      0.98s CPU      1.04s WALL (      49 calls)

     Parallel routines

     PAW routines
     PAW_pot      :      0.38s CPU      0.55s WALL (      49 calls)

     Environ routines

     PWSCF        :  16m33.95s CPU  21m 4.85s WALL


   This run was terminated on:   1:29:53  17Jan2025            

=------------------------------------------------------------------------------=
   JOB DONE.
=------------------------------------------------------------------------------=
