
     Program PWSCF v.7.4 starts on  4Jan2025 at 19:15:19 

     This program is part of the open-source Quantum ESPRESSO suite
     for quantum simulation of materials; please cite
         "P. Giannozzi et al., J. Phys.:Condens. Matter 21 395502 (2009);
         "P. Giannozzi et al., J. Phys.:Condens. Matter 29 465901 (2017);
         "P. Giannozzi et al., J. Chem. Phys. 152 154105 (2020);
          URL http://www.quantum-espresso.org", 
     in publications or presentations arising from this work. More details at
     http://www.quantum-espresso.org/quote

     Parallel version (MPI & OpenMP), running on     512 processor cores
     Number of MPI processes:               512
     Threads/MPI process:                     1

     MPI processes distributed on     4 nodes
     228058 MiB available memory on the printing compute node when the environment starts

     Reading input from espresso.pwi
Warning: card &CELL ignored
Warning: card    PRESS_CONV_THR   = 0.1 ignored
Warning: card    CELL_DOFREE      = 'ALL' ignored
Warning: card / ignored
Warning: card &FCP ignored
Warning: card / ignored
Warning: card &RISM ignored
Warning: card / ignored

     Current dimensions of program PWSCF are:
     Max number of different atomic species (ntypx) = 10
     Max number of k-points (npk) =  40000
     Max angular momentum in pseudopotentials (lmaxx) =  4

     IMPORTANT: XC functional enforced from input :
     Exchange-correlation= PBE
                           (   1   4   3   4   0   0   0)
     Any further DFT definition will be discarded
     Please, verify this is what you really want


     Reading input from environ.in:
     * using ionic solvent mode
     * setting boundary derivatives method to SSCS default
     * setting electrolyte-boundary derivatives method to SSCS default

Environ Warning (1001): card EOF ignored

     
     Found identity + (  0.5000  0.0000 -0.0000) symmetry
     This is a supercell, fractional translations are disabled

     K-points division:     npool     =       2
     R & G space division:  proc/nbgrp/npool/nimage =     256
     Subspace diagonalization in iterative solution of the eigenvalue problem:
     a serial algorithm will be used


     Parallelization info
     --------------------
     sticks:   dense  smooth     PW     G-vecs:    dense   smooth      PW
     Min          33      13      3                18746     4723     645
     Max          34      14      4                18791     4776     724
     Sum        8497    3389    941              4805333  1215433  176195

     Using Slab Decomposition



     bravais-lattice index     =           12
     lattice parameter (alat)  =      12.9830  a.u.
     unit-cell volume          =   12574.0527 (a.u.)^3
     number of atoms/cell      =           20
     number of atomic types    =            1
     number of electrons       =        60.00
     number of Kohn-Sham states=           45
     kinetic-energy cutoff     =      80.0000  Ry
     charge density cutoff     =     800.0000  Ry
     scf convergence threshold =      1.0E-06
     mixing beta               =       0.2000
     number of iterations used =            8  local-TF  mixing
     energy convergence thresh.=      1.0E-05
     force convergence thresh. =      3.9E-04
     Exchange-correlation= PBE
                           (   1   4   3   4   0   0   0)
     nstep                     =          999


     ================================================================================

                                  Environ Setup Summary

     ================================================================================

     Please cite

          O. Andreussi, I. Dabo and N. Marzari, J. Chem. Phys. 136, 064102 (2012)
          F. Nattino, M. Truscott, N. Marzari, and O. Andreussi, J. Chem. Phys. 150, 041722 (2019)

     in publications or presentations arising from this work.

     ================================================================================

     Parameters
     ==========

     compensation onset threshold      =               0.1000E+00
     static permittivity               =                    89.90
     surface tension in input (dyn/cm) =                    37.30
     surface tension in internal units =               0.4792E-04

     Solvent Boundary
     ================

     solvent mode                      =                    ionic
     derivatives method                =                   lowmem
     electrolyte derivatives method    =                   lowmem
     numerical core for derivatives    =                      fft
     switching function adopted        =                     SCCS
     density limit for vacuum region   =               0.5000E-02
     density limit for bulk solvent    =               0.1000E-03
     soft-sphere radius mode           =                    bondi
     soft-sphere softness              =                     0.50
     alpha                             =                     1.32

     Electrostatic Setup
     ===================

     electrostatic problem to solve    =                    modpb
     numerical solver adopted          =                   newton
     type of auxiliary density adopted =                     none
     numerical core for poisson        =                      fft
     adopting a nested solver scheme
     inner solver                      =                       cg
     inner core                        =                      fft
     type of pbc corrections           =                parabolic
     numerical core for corrections    =                      1da

     ================================================================================


     >>>>> Grand-Canonical SCF is activated <<<<<
     Initial Total Charge  =     0.000000 e
     Target Fermi Energy   =    -1.904000 eV
     Thr. of Fermi Energy  =     0.001000 eV
     Wave-shift of Kerker  =     0.400000 bohr^-1
     Wave-shift of Hartree =     1.500000 bohr^-1
     Mixing Rate of Fermi  =     0.050000

     celldm(1)=  12.983009  celldm(2)=   0.829156  celldm(3)=   7.267908
     celldm(4)=  -0.301511  celldm(5)=   0.000000  celldm(6)=   0.000000

     crystal axes: (cart. coord. in units of alat)
               a(1) = (   1.000000   0.000000   0.000000 )  
               a(2) = (  -0.250000   0.790569   0.000000 )  
               a(3) = (   0.000000   0.000000   7.267908 )  

     reciprocal axes: (cart. coord. in units 2 pi/alat)
               b(1) = (  1.000000  0.316228 -0.000000 )  
               b(2) = (  0.000000  1.264912  0.000000 )  
               b(3) = (  0.000000 -0.000000  0.137591 )  


     PseudoPot. # 1 for Li read from file:
     /work/e89/e89/ba3g18/Repos/Pseudopotentials/Pslibrary/Li.pbe-sl-kjpaw_psl.1.0.0.UPF
     MD5 check sum: 3f4d2cafebb47c6c3aa8ed472e6f074d
     Pseudo is Projector augmented-wave, Zval =  3.0
     Generated using 'atomic' code by A. Dal Corso  v.7.4
     Shape of augmentation charge: PSQ
     Using radial grid of 1017 points,  4 beta functions with: 
                l(1) =   0
                l(2) =   0
                l(3) =   1
                l(4) =   1
     Q(r) pseudized with 0 coefficients 


     atomic species   valence    mass     pseudopotential
     Li                3.00     6.94000     Li( 1.00)

     No symmetry found


                                    s                        frac. trans.

      isym =  1     identity                                     

 cryst.   s( 1) = (     1          0          0      )
                  (     0          1          0      )
                  (     0          0          1      )

 cart.    s( 1) = (  1.0000000 -0.0000000  0.0000000 )
                  (  0.0000000  1.0000000  0.0000000 )
                  (  0.0000000  0.0000000  1.0000000 )


     point group C_1 (1)    
     there are  1 classes
     the character table:

       E    
A      1.00

     the symmetry operations in each class and the name of the first element:

     E        1
          identity                                               

   Cartesian axes

     site n.     atom                  positions (alat units)
         1        Li     tau(   1) = (   0.2503103   0.3218140   3.0518230  )
         2        Li     tau(   2) = (   0.0003152   0.6255006   3.2534952  )
         3        Li     tau(   3) = (   0.0001433   0.1650999   3.3731645  )
         4        Li     tau(   4) = (   0.2500947   0.4648034   3.5690180  )
         5        Li     tau(   5) = (   0.2499049   0.0092485   3.6991507  )
         6        Li     tau(   6) = (  -0.0001413   0.3091449   3.8947820  )
         7        Li     tau(   7) = (   0.2496856   0.6393059   4.0145207  )
         8        Li     tau(   8) = (   0.2496878   0.1527592   4.2158541  )
         9        Li     tau(   9) = (  -0.0003601   0.5056133   4.3415404  )
        10        Li     tau(  10) = (   0.5003576  -0.0310118   2.9261827  )
        11        Li     tau(  11) = (   0.7503096   0.3218148   3.0518201  )
        12        Li     tau(  12) = (   0.5003142   0.6254996   3.2534956  )
        13        Li     tau(  13) = (   0.5001447   0.1651012   3.3731662  )
        14        Li     tau(  14) = (   0.7500969   0.4648014   3.5690194  )
        15        Li     tau(  15) = (   0.7499039   0.0092479   3.6991528  )
        16        Li     tau(  16) = (   0.4998537   0.3091470   3.8947841  )
        17        Li     tau(  17) = (   0.7496854   0.6393010   4.0145176  )
        18        Li     tau(  18) = (   0.7496921   0.1527590   4.2158527  )
        19        Li     tau(  19) = (   0.4996415   0.5056151   4.3415492  )
        20        Li     tau(  20) = (   1.0003602  -0.0310086   2.9261857  )

   Crystallographic axes

     site n.     atom                  positions (cryst. coord.)
         1        Li     tau(   1) = (  0.3520769  0.4070663  0.4199039  )
         2        Li     tau(   2) = (  0.1981160  0.7912031  0.4476522  )
         3        Li     tau(   3) = (  0.0523525  0.2088368  0.4641177  )
         4        Li     tau(   4) = (  0.3970786  0.5879353  0.4910654  )
         5        Li     tau(   5) = (  0.2528295  0.0116985  0.5089705  )
         6        Li     tau(   6) = (  0.0976190  0.3910410  0.5358876  )
         7        Li     tau(   7) = (  0.4518520  0.8086656  0.5523626  )
         8        Li     tau(   8) = (  0.2979945  0.1932269  0.5800643  )
         9        Li     tau(   9) = (  0.1595289  0.6395562  0.5973576  )
        10        Li     tau(  10) = (  0.4905508 -0.0392271  0.4026169  )
        11        Li     tau(  11) = (  0.8520764  0.4070673  0.4199035  )
        12        Li     tau(  12) = (  0.6981147  0.7912018  0.4476523  )
        13        Li     tau(  13) = (  0.5523543  0.2088384  0.4641179  )
        14        Li     tau(  14) = (  0.8970801  0.5879328  0.4910656  )
        15        Li     tau(  15) = (  0.7528284  0.0116978  0.5089708  )
        16        Li     tau(  16) = (  0.5976146  0.3910436  0.5358879  )
        17        Li     tau(  17) = (  0.9518502  0.8086593  0.5523622  )
        18        Li     tau(  18) = (  0.7979988  0.1932267  0.5800641  )
        19        Li     tau(  19) = (  0.6595311  0.6395584  0.5973589  )
        20        Li     tau(  20) = (  0.9905544 -0.0392232  0.4026173  )

     number of k points=    62  Marzari-Vanderbilt smearing, width (Ry)=  0.0100
                       cart. coord. in units 2pi/alat
        k(    1) = (   0.0000000   0.0000000   0.0000000), wk =   0.0166667
        k(    2) = (   0.0000000   0.1054093   0.0000000), wk =   0.0333333
        k(    3) = (   0.0000000   0.2108186   0.0000000), wk =   0.0333333
        k(    4) = (   0.0000000   0.3162279   0.0000000), wk =   0.0333333
        k(    5) = (   0.0000000   0.4216372   0.0000000), wk =   0.0333333
        k(    6) = (   0.0000000   0.5270466   0.0000000), wk =   0.0333333
        k(    7) = (   0.0000000  -0.6324559   0.0000000), wk =   0.0166667
        k(    8) = (   0.1000000   0.0316228   0.0000000), wk =   0.0333333
        k(    9) = (   0.1000000   0.1370321   0.0000000), wk =   0.0333333
        k(   10) = (   0.1000000   0.2424414   0.0000000), wk =   0.0333333
        k(   11) = (   0.1000000   0.3478507   0.0000000), wk =   0.0333333
        k(   12) = (   0.1000000   0.4532600   0.0000000), wk =   0.0333333
        k(   13) = (   0.1000000   0.5586693   0.0000000), wk =   0.0333333
        k(   14) = (   0.1000000  -0.6008331   0.0000000), wk =   0.0333333
        k(   15) = (   0.1000000  -0.4954238   0.0000000), wk =   0.0333333
        k(   16) = (   0.1000000  -0.3900144   0.0000000), wk =   0.0333333
        k(   17) = (   0.1000000  -0.2846051   0.0000000), wk =   0.0333333
        k(   18) = (   0.1000000  -0.1791958   0.0000000), wk =   0.0333333
        k(   19) = (   0.1000000  -0.0737865   0.0000000), wk =   0.0333333
        k(   20) = (   0.2000000   0.0632456   0.0000000), wk =   0.0333333
        k(   21) = (   0.2000000   0.1686549   0.0000000), wk =   0.0333333
        k(   22) = (   0.2000000   0.2740642   0.0000000), wk =   0.0333333
        k(   23) = (   0.2000000   0.3794735   0.0000000), wk =   0.0333333
        k(   24) = (   0.2000000   0.4848828   0.0000000), wk =   0.0333333
        k(   25) = (   0.2000000   0.5902921   0.0000000), wk =   0.0333333
        k(   26) = (   0.2000000  -0.5692103   0.0000000), wk =   0.0333333
        k(   27) = (   0.2000000  -0.4638010   0.0000000), wk =   0.0333333
        k(   28) = (   0.2000000  -0.3583917   0.0000000), wk =   0.0333333
        k(   29) = (   0.2000000  -0.2529823   0.0000000), wk =   0.0333333
        k(   30) = (   0.2000000  -0.1475730   0.0000000), wk =   0.0333333
        k(   31) = (   0.2000000  -0.0421637   0.0000000), wk =   0.0333333
        k(   32) = (   0.3000000   0.0948684   0.0000000), wk =   0.0333333
        k(   33) = (   0.3000000   0.2002777   0.0000000), wk =   0.0333333
        k(   34) = (   0.3000000   0.3056870   0.0000000), wk =   0.0333333
        k(   35) = (   0.3000000   0.4110963   0.0000000), wk =   0.0333333
        k(   36) = (   0.3000000   0.5165056   0.0000000), wk =   0.0333333
        k(   37) = (   0.3000000   0.6219149   0.0000000), wk =   0.0333333
        k(   38) = (   0.3000000  -0.5375875   0.0000000), wk =   0.0333333
        k(   39) = (   0.3000000  -0.4321782   0.0000000), wk =   0.0333333
        k(   40) = (   0.3000000  -0.3267689   0.0000000), wk =   0.0333333
        k(   41) = (   0.3000000  -0.2213596   0.0000000), wk =   0.0333333
        k(   42) = (   0.3000000  -0.1159502   0.0000000), wk =   0.0333333
        k(   43) = (   0.3000000  -0.0105409   0.0000000), wk =   0.0333333
        k(   44) = (   0.4000000   0.1264912   0.0000000), wk =   0.0333333
        k(   45) = (   0.4000000   0.2319005   0.0000000), wk =   0.0333333
        k(   46) = (   0.4000000   0.3373098   0.0000000), wk =   0.0333333
        k(   47) = (   0.4000000   0.4427191   0.0000000), wk =   0.0333333
        k(   48) = (   0.4000000   0.5481284   0.0000000), wk =   0.0333333
        k(   49) = (   0.4000000   0.6535377   0.0000000), wk =   0.0333333
        k(   50) = (   0.4000000  -0.5059647   0.0000000), wk =   0.0333333
        k(   51) = (   0.4000000  -0.4005554   0.0000000), wk =   0.0333333
        k(   52) = (   0.4000000  -0.2951461   0.0000000), wk =   0.0333333
        k(   53) = (   0.4000000  -0.1897368   0.0000000), wk =   0.0333333
        k(   54) = (   0.4000000  -0.0843274   0.0000000), wk =   0.0333333
        k(   55) = (   0.4000000   0.0210819   0.0000000), wk =   0.0333333
        k(   56) = (  -0.5000000  -0.1581140   0.0000000), wk =   0.0166667
        k(   57) = (  -0.5000000  -0.0527047   0.0000000), wk =   0.0333333
        k(   58) = (  -0.5000000   0.0527047   0.0000000), wk =   0.0333333
        k(   59) = (  -0.5000000   0.1581140   0.0000000), wk =   0.0333333
        k(   60) = (  -0.5000000   0.2635233   0.0000000), wk =   0.0333333
        k(   61) = (  -0.5000000   0.3689326   0.0000000), wk =   0.0333333
        k(   62) = (  -0.5000000  -0.7905698   0.0000000), wk =   0.0166667

                       cryst. coord.
        k(    1) = (   0.0000000   0.0000000   0.0000000), wk =   0.0166667
        k(    2) = (   0.0000000   0.0833333   0.0000000), wk =   0.0333333
        k(    3) = (   0.0000000   0.1666667   0.0000000), wk =   0.0333333
        k(    4) = (   0.0000000   0.2500000   0.0000000), wk =   0.0333333
        k(    5) = (   0.0000000   0.3333333   0.0000000), wk =   0.0333333
        k(    6) = (   0.0000000   0.4166667   0.0000000), wk =   0.0333333
        k(    7) = (   0.0000000  -0.5000000   0.0000000), wk =   0.0166667
        k(    8) = (   0.1000000  -0.0000000   0.0000000), wk =   0.0333333
        k(    9) = (   0.1000000   0.0833333   0.0000000), wk =   0.0333333
        k(   10) = (   0.1000000   0.1666667   0.0000000), wk =   0.0333333
        k(   11) = (   0.1000000   0.2500000   0.0000000), wk =   0.0333333
        k(   12) = (   0.1000000   0.3333333   0.0000000), wk =   0.0333333
        k(   13) = (   0.1000000   0.4166667   0.0000000), wk =   0.0333333
        k(   14) = (   0.1000000  -0.5000000   0.0000000), wk =   0.0333333
        k(   15) = (   0.1000000  -0.4166667   0.0000000), wk =   0.0333333
        k(   16) = (   0.1000000  -0.3333333   0.0000000), wk =   0.0333333
        k(   17) = (   0.1000000  -0.2500000   0.0000000), wk =   0.0333333
        k(   18) = (   0.1000000  -0.1666667   0.0000000), wk =   0.0333333
        k(   19) = (   0.1000000  -0.0833333   0.0000000), wk =   0.0333333
        k(   20) = (   0.2000000  -0.0000000   0.0000000), wk =   0.0333333
        k(   21) = (   0.2000000   0.0833333   0.0000000), wk =   0.0333333
        k(   22) = (   0.2000000   0.1666667   0.0000000), wk =   0.0333333
        k(   23) = (   0.2000000   0.2500000   0.0000000), wk =   0.0333333
        k(   24) = (   0.2000000   0.3333333   0.0000000), wk =   0.0333333
        k(   25) = (   0.2000000   0.4166667   0.0000000), wk =   0.0333333
        k(   26) = (   0.2000000  -0.5000000   0.0000000), wk =   0.0333333
        k(   27) = (   0.2000000  -0.4166667   0.0000000), wk =   0.0333333
        k(   28) = (   0.2000000  -0.3333333   0.0000000), wk =   0.0333333
        k(   29) = (   0.2000000  -0.2500000   0.0000000), wk =   0.0333333
        k(   30) = (   0.2000000  -0.1666667   0.0000000), wk =   0.0333333
        k(   31) = (   0.2000000  -0.0833333   0.0000000), wk =   0.0333333
        k(   32) = (   0.3000000  -0.0000000   0.0000000), wk =   0.0333333
        k(   33) = (   0.3000000   0.0833333   0.0000000), wk =   0.0333333
        k(   34) = (   0.3000000   0.1666667   0.0000000), wk =   0.0333333
        k(   35) = (   0.3000000   0.2500000   0.0000000), wk =   0.0333333
        k(   36) = (   0.3000000   0.3333333   0.0000000), wk =   0.0333333
        k(   37) = (   0.3000000   0.4166667   0.0000000), wk =   0.0333333
        k(   38) = (   0.3000000  -0.5000000   0.0000000), wk =   0.0333333
        k(   39) = (   0.3000000  -0.4166667   0.0000000), wk =   0.0333333
        k(   40) = (   0.3000000  -0.3333333   0.0000000), wk =   0.0333333
        k(   41) = (   0.3000000  -0.2500000   0.0000000), wk =   0.0333333
        k(   42) = (   0.3000000  -0.1666667   0.0000000), wk =   0.0333333
        k(   43) = (   0.3000000  -0.0833333   0.0000000), wk =   0.0333333
        k(   44) = (   0.4000000  -0.0000000   0.0000000), wk =   0.0333333
        k(   45) = (   0.4000000   0.0833333   0.0000000), wk =   0.0333333
        k(   46) = (   0.4000000   0.1666667   0.0000000), wk =   0.0333333
        k(   47) = (   0.4000000   0.2500000   0.0000000), wk =   0.0333333
        k(   48) = (   0.4000000   0.3333333   0.0000000), wk =   0.0333333
        k(   49) = (   0.4000000   0.4166667   0.0000000), wk =   0.0333333
        k(   50) = (   0.4000000  -0.5000000   0.0000000), wk =   0.0333333
        k(   51) = (   0.4000000  -0.4166667   0.0000000), wk =   0.0333333
        k(   52) = (   0.4000000  -0.3333333   0.0000000), wk =   0.0333333
        k(   53) = (   0.4000000  -0.2500000   0.0000000), wk =   0.0333333
        k(   54) = (   0.4000000  -0.1666667   0.0000000), wk =   0.0333333
        k(   55) = (   0.4000000  -0.0833333   0.0000000), wk =   0.0333333
        k(   56) = (  -0.5000000   0.0000000   0.0000000), wk =   0.0166667
        k(   57) = (  -0.5000000   0.0833333   0.0000000), wk =   0.0333333
        k(   58) = (  -0.5000000   0.1666667   0.0000000), wk =   0.0333333
        k(   59) = (  -0.5000000   0.2500000   0.0000000), wk =   0.0333333
        k(   60) = (  -0.5000000   0.3333333   0.0000000), wk =   0.0333333
        k(   61) = (  -0.5000000   0.4166667   0.0000000), wk =   0.0333333
        k(   62) = (  -0.5000000  -0.5000000   0.0000000), wk =   0.0166667

     Dense  grid:  4805333 G-vectors     FFT dimensions: ( 120, 100, 864)

     Smooth grid:  1215433 G-vectors     FFT dimensions: (  75,  64, 540)

     Dynamical RAM for                 wfc:       0.41 MB

     Dynamical RAM for     wfc (w. buffer):      13.03 MB

     Dynamical RAM for           str. fact:       0.29 MB

     Dynamical RAM for           local pot:       0.00 MB

     Dynamical RAM for          nlocal pot:       1.45 MB

     Dynamical RAM for                qrad:       0.65 MB

     Dynamical RAM for          rho,v,vnew:       1.96 MB

     Dynamical RAM for               rhoin:       0.65 MB

     Dynamical RAM for            rho*nmix:       4.59 MB

     Dynamical RAM for           G-vectors:       1.11 MB

     Dynamical RAM for          h,s,v(r/c):       1.48 MB

     Dynamical RAM for          <psi|beta>:       0.11 MB

     Dynamical RAM for                 psi:       1.63 MB

     Dynamical RAM for                hpsi:       1.63 MB

     Dynamical RAM for                spsi:       1.63 MB

     Dynamical RAM for      wfcinit/wfcrot:       0.86 MB

     Dynamical RAM for           addusdens:       9.17 MB

     Dynamical RAM for          addusforce:      14.64 MB

     Estimated static dynamical RAM per process >      21.54 MB

     Estimated max dynamical RAM per process >      73.32 MB

     Estimated total dynamical RAM >      19.24 GB

     Initial potential from superposition of free atoms

     starting charge      59.9078, renormalised to      60.0000

     negative rho (up, down):  2.173E-03 0.000E+00
     Starting wfcs are random
     Checking if some PAW data can be deallocated... 

     total cpu time spent up to now is       19.4 secs

     Self-consistent Calculation

     iteration #  1     ecut=    80.00 Ry     beta= 0.20
     Davidson diagonalization with overlap

---- Real-time Memory Report at c_bands before calling an iterative solver
           267 MiB given to the printing process from OS
             0 MiB allocation reported by mallinfo(arena+hblkhd)
        217842 MiB available memory on the node where the printing process lives
------------------
     ethr =  1.00E-12,  avg # of iterations = 98.0

     negative rho (up, down):  1.624E-03 0.000E+00

     add environment contribution to local potential

     total cpu time spent up to now is      139.2 secs

     total energy              =    -300.80165057 Ry
     estimated scf accuracy    <       0.08018649 Ry

     total charge of GC-SCF    =      -0.00484658 e
     the Fermi energy          =      -4.43637823 eV
                        (error :       2.53237823 eV)
     electrostatic embedding   =       0.00000000 Ry
     cavitation energy         =       0.01512871 Ry
     electrolyte free energy   =       0.00541203 Ry
     correction to one-el term =      -0.00000000 Ry

     iteration #  2     ecut=    80.00 Ry     beta= 0.20
     Davidson diagonalization with overlap

---- Real-time Memory Report at c_bands before calling an iterative solver
           267 MiB given to the printing process from OS
             0 MiB allocation reported by mallinfo(arena+hblkhd)
        219007 MiB available memory on the node where the printing process lives
------------------
     ethr =  1.00E-05,  avg # of iterations = 15.1

     negative rho (up, down):  1.267E-03 0.000E+00

     add environment contribution to local potential

     total cpu time spent up to now is      159.2 secs

     total energy              =    -300.77615884 Ry
     estimated scf accuracy    <       0.02019297 Ry

     total charge of GC-SCF    =      -0.02005183 e
     the Fermi energy          =      -3.39670768 eV
                        (error :       1.49270768 eV)
     electrostatic embedding   =      -0.01980136 Ry
     cavitation energy         =       0.01512871 Ry
     electrolyte free energy   =      -0.00311755 Ry
     correction to one-el term =      -0.12823626 Ry

     iteration #  3     ecut=    80.00 Ry     beta= 0.20
     Davidson diagonalization with overlap

---- Real-time Memory Report at c_bands before calling an iterative solver
           267 MiB given to the printing process from OS
             0 MiB allocation reported by mallinfo(arena+hblkhd)
        219089 MiB available memory on the node where the printing process lives
------------------
     ethr =  1.00E-05,  avg # of iterations = 10.4

     negative rho (up, down):  9.912E-04 0.000E+00

     add environment contribution to local potential

     total cpu time spent up to now is      174.5 secs

     total energy              =    -300.69493382 Ry
     estimated scf accuracy    <       0.01370462 Ry

     total charge of GC-SCF    =      -0.08516945 e
     the Fermi energy          =      -3.07423286 eV
                        (error :       1.17023286 eV)
     electrostatic embedding   =      -0.01823683 Ry
     cavitation energy         =       0.01512871 Ry
     electrolyte free energy   =      -0.00237385 Ry
     correction to one-el term =       0.43278895 Ry

     iteration #  4     ecut=    80.00 Ry     beta= 0.20
     Davidson diagonalization with overlap

---- Real-time Memory Report at c_bands before calling an iterative solver
           267 MiB given to the printing process from OS
             0 MiB allocation reported by mallinfo(arena+hblkhd)
        219141 MiB available memory on the node where the printing process lives
------------------
     ethr =  1.00E-05,  avg # of iterations = 13.7

     negative rho (up, down):  8.311E-04 0.000E+00

     add environment contribution to local potential

     total cpu time spent up to now is      193.8 secs

     total energy              =    -300.72083595 Ry
     estimated scf accuracy    <       0.00232411 Ry

     total charge of GC-SCF    =      -0.13923188 e
     the Fermi energy          =      -2.67319688 eV
                        (error :       0.76919688 eV)
     electrostatic embedding   =      -0.01926343 Ry
     cavitation energy         =       0.01512871 Ry
     electrolyte free energy   =      -0.00090541 Ry
     correction to one-el term =       3.58570460 Ry

     iteration #  5     ecut=    80.00 Ry     beta= 0.20
     Davidson diagonalization with overlap

---- Real-time Memory Report at c_bands before calling an iterative solver
           267 MiB given to the printing process from OS
             0 MiB allocation reported by mallinfo(arena+hblkhd)
        219182 MiB available memory on the node where the printing process lives
------------------
     ethr =  3.86E-06,  avg # of iterations = 12.8

     negative rho (up, down):  7.422E-04 0.000E+00

     add environment contribution to local potential

     total cpu time spent up to now is      211.3 secs

     total energy              =    -300.70511460 Ry
     estimated scf accuracy    <       0.00159991 Ry

     total charge of GC-SCF    =      -0.29377799 e
     the Fermi energy          =      -2.54811010 eV
                        (error :       0.64411010 eV)
     electrostatic embedding   =      -0.02484601 Ry
     cavitation energy         =       0.01512871 Ry
     electrolyte free energy   =      -0.00062890 Ry
     correction to one-el term =       6.03746308 Ry

     iteration #  6     ecut=    80.00 Ry     beta= 0.20
     Davidson diagonalization with overlap

---- Real-time Memory Report at c_bands before calling an iterative solver
           267 MiB given to the printing process from OS
             0 MiB allocation reported by mallinfo(arena+hblkhd)
        219181 MiB available memory on the node where the printing process lives
------------------
     ethr =  2.65E-06,  avg # of iterations = 13.2

     negative rho (up, down):  6.841E-04 0.000E+00

     add environment contribution to local potential

     total cpu time spent up to now is      230.2 secs

     total energy              =    -300.71288927 Ry
     estimated scf accuracy    <       0.00130708 Ry

     total charge of GC-SCF    =      -0.48600018 e
     the Fermi energy          =      -2.40620979 eV
                        (error :       0.50220979 eV)
     electrostatic embedding   =      -0.05357233 Ry
     cavitation energy         =       0.01512871 Ry
     electrolyte free energy   =      -0.00064960 Ry
     correction to one-el term =      12.22725302 Ry

     iteration #  7     ecut=    80.00 Ry     beta= 0.20
     Davidson diagonalization with overlap

---- Real-time Memory Report at c_bands before calling an iterative solver
           267 MiB given to the printing process from OS
             0 MiB allocation reported by mallinfo(arena+hblkhd)
        219180 MiB available memory on the node where the printing process lives
------------------
     ethr =  2.16E-06,  avg # of iterations =  8.6

     negative rho (up, down):  6.020E-04 0.000E+00

     add environment contribution to local potential

     total cpu time spent up to now is      244.0 secs

     total energy              =    -300.72355831 Ry
     estimated scf accuracy    <       0.00035259 Ry

     total charge of GC-SCF    =      -0.67286756 e
     the Fermi energy          =      -2.47685017 eV
                        (error :       0.57285017 eV)
     electrostatic embedding   =      -0.10984441 Ry
     cavitation energy         =       0.01512871 Ry
     electrolyte free energy   =      -0.00087230 Ry
     correction to one-el term =      18.63741271 Ry

     iteration #  8     ecut=    80.00 Ry     beta= 0.20
     Davidson diagonalization with overlap

---- Real-time Memory Report at c_bands before calling an iterative solver
           267 MiB given to the printing process from OS
             0 MiB allocation reported by mallinfo(arena+hblkhd)
        219176 MiB available memory on the node where the printing process lives
------------------
     ethr =  5.81E-07,  avg # of iterations = 11.4

     negative rho (up, down):  5.308E-04 0.000E+00

     add environment contribution to local potential

     total cpu time spent up to now is      260.9 secs

     total energy              =    -300.75334106 Ry
     estimated scf accuracy    <       0.00027059 Ry

     total charge of GC-SCF    =      -0.70393833 e
     the Fermi energy          =      -2.36830968 eV
                        (error :       0.46430968 eV)
     electrostatic embedding   =      -0.18195539 Ry
     cavitation energy         =       0.01512871 Ry
     electrolyte free energy   =      -0.00130061 Ry
     correction to one-el term =      25.02366929 Ry

     iteration #  9     ecut=    80.00 Ry     beta= 0.20
     Davidson diagonalization with overlap

---- Real-time Memory Report at c_bands before calling an iterative solver
           267 MiB given to the printing process from OS
             0 MiB allocation reported by mallinfo(arena+hblkhd)
        219178 MiB available memory on the node where the printing process lives
------------------
     ethr =  4.46E-07,  avg # of iterations =  6.9

     negative rho (up, down):  4.853E-04 0.000E+00

     add environment contribution to local potential

     total cpu time spent up to now is      272.6 secs

     total energy              =    -300.76845995 Ry
     estimated scf accuracy    <       0.00037413 Ry

     total charge of GC-SCF    =      -0.64507992 e
     the Fermi energy          =      -2.35159236 eV
                        (error :       0.44759236 eV)
     electrostatic embedding   =      -0.19475409 Ry
     cavitation energy         =       0.01512871 Ry
     electrolyte free energy   =      -0.00138201 Ry
     correction to one-el term =      25.96839215 Ry

     iteration # 10     ecut=    80.00 Ry     beta= 0.20
     Davidson diagonalization with overlap

---- Real-time Memory Report at c_bands before calling an iterative solver
           267 MiB given to the printing process from OS
             0 MiB allocation reported by mallinfo(arena+hblkhd)
        219173 MiB available memory on the node where the printing process lives
------------------
     ethr =  4.46E-07,  avg # of iterations =  8.6

     negative rho (up, down):  4.131E-04 0.000E+00

     add environment contribution to local potential

     total cpu time spent up to now is      285.7 secs

     total energy              =    -300.73612742 Ry
     estimated scf accuracy    <       0.00046836 Ry

     total charge of GC-SCF    =      -1.03615002 e
     the Fermi energy          =      -2.34202256 eV
                        (error :       0.43802256 eV)
     electrostatic embedding   =      -0.17011810 Ry
     cavitation energy         =       0.01512871 Ry
     electrolyte free energy   =      -0.00126966 Ry
     correction to one-el term =      24.23742979 Ry

     iteration # 11     ecut=    80.00 Ry     beta= 0.20
     Davidson diagonalization with overlap

---- Real-time Memory Report at c_bands before calling an iterative solver
           267 MiB given to the printing process from OS
             0 MiB allocation reported by mallinfo(arena+hblkhd)
        219167 MiB available memory on the node where the printing process lives
------------------
     ethr =  4.46E-07,  avg # of iterations = 17.5

     negative rho (up, down):  3.613E-04 0.000E+00

     add environment contribution to local potential

     total cpu time spent up to now is      305.6 secs

     total energy              =    -300.75920318 Ry
     estimated scf accuracy    <       0.00047632 Ry

     total charge of GC-SCF    =      -1.15659463 e
     the Fermi energy          =      -2.29493489 eV
                        (error :       0.39093489 eV)
     electrostatic embedding   =      -0.36929998 Ry
     cavitation energy         =       0.01512871 Ry
     electrolyte free energy   =      -0.00258037 Ry
     correction to one-el term =      36.22414235 Ry

     iteration # 12     ecut=    80.00 Ry     beta= 0.20
     Davidson diagonalization with overlap

---- Real-time Memory Report at c_bands before calling an iterative solver
           267 MiB given to the printing process from OS
             0 MiB allocation reported by mallinfo(arena+hblkhd)
        219197 MiB available memory on the node where the printing process lives
------------------
     ethr =  4.46E-07,  avg # of iterations = 11.6

     negative rho (up, down):  3.221E-04 0.000E+00

     add environment contribution to local potential

     total cpu time spent up to now is      322.7 secs

     total energy              =    -300.78666111 Ry
     estimated scf accuracy    <       0.00070408 Ry

     total charge of GC-SCF    =      -1.76946759 e
     the Fermi energy          =      -2.27831826 eV
                        (error :       0.37431826 eV)
     electrostatic embedding   =      -0.44253358 Ry
     cavitation energy         =       0.01512871 Ry
     electrolyte free energy   =      -0.00314595 Ry
     correction to one-el term =      39.57104020 Ry

     iteration # 13     ecut=    80.00 Ry     beta= 0.20
     Davidson diagonalization with overlap

---- Real-time Memory Report at c_bands before calling an iterative solver
           267 MiB given to the printing process from OS
             0 MiB allocation reported by mallinfo(arena+hblkhd)
        219235 MiB available memory on the node where the printing process lives
------------------
     ethr =  4.46E-07,  avg # of iterations = 15.7

     negative rho (up, down):  3.093E-04 0.000E+00

     add environment contribution to local potential

     total cpu time spent up to now is      341.8 secs

     total energy              =    -300.84247635 Ry
     estimated scf accuracy    <       0.00007861 Ry

     total charge of GC-SCF    =      -1.48009779 e
     the Fermi energy          =      -2.23930140 eV
                        (error :       0.33530140 eV)
     electrostatic embedding   =      -0.95600636 Ry
     cavitation energy         =       0.01512871 Ry
     electrolyte free energy   =      -0.00869446 Ry
     correction to one-el term =      58.43850599 Ry

     iteration # 14     ecut=    80.00 Ry     beta= 0.20
     Davidson diagonalization with overlap

---- Real-time Memory Report at c_bands before calling an iterative solver
           267 MiB given to the printing process from OS
             0 MiB allocation reported by mallinfo(arena+hblkhd)
        219261 MiB available memory on the node where the printing process lives
------------------
     ethr =  1.28E-07,  avg # of iterations = 15.8

     negative rho (up, down):  2.725E-04 0.000E+00

     add environment contribution to local potential

     total cpu time spent up to now is      361.4 secs

     total energy              =    -300.85270057 Ry
     estimated scf accuracy    <       0.00067896 Ry

     total charge of GC-SCF    =      -2.23525266 e
     the Fermi energy          =      -2.18363216 eV
                        (error :       0.27963216 eV)
     electrostatic embedding   =      -0.68842909 Ry
     cavitation energy         =       0.01512871 Ry
     electrolyte free energy   =      -0.00572294 Ry
     correction to one-el term =      49.75958887 Ry

     iteration # 15     ecut=    80.00 Ry     beta= 0.20
     Davidson diagonalization with overlap

---- Real-time Memory Report at c_bands before calling an iterative solver
           267 MiB given to the printing process from OS
             0 MiB allocation reported by mallinfo(arena+hblkhd)
        219277 MiB available memory on the node where the printing process lives
------------------
     ethr =  1.28E-07,  avg # of iterations = 18.9

     negative rho (up, down):  2.534E-04 0.000E+00

     add environment contribution to local potential

     total cpu time spent up to now is      386.7 secs

     total energy              =    -300.80926144 Ry
     estimated scf accuracy    <       0.00014513 Ry

     total charge of GC-SCF    =      -2.53701844 e
     the Fermi energy          =      -2.03300281 eV
                        (error :       0.12900281 eV)
     electrostatic embedding   =      -1.46309387 Ry
     cavitation energy         =       0.01512871 Ry
     electrolyte free energy   =      -0.01703053 Ry
     correction to one-el term =      72.72606042 Ry

     iteration # 16     ecut=    80.00 Ry     beta= 0.20
     Davidson diagonalization with overlap

---- Real-time Memory Report at c_bands before calling an iterative solver
           267 MiB given to the printing process from OS
             0 MiB allocation reported by mallinfo(arena+hblkhd)
        219299 MiB available memory on the node where the printing process lives
------------------
     ethr =  1.28E-07,  avg # of iterations = 12.7

     negative rho (up, down):  2.428E-04 0.000E+00

     add environment contribution to local potential

     total cpu time spent up to now is      404.3 secs

     total energy              =    -300.80513467 Ry
     estimated scf accuracy    <       0.00011853 Ry

     total charge of GC-SCF    =      -2.46035091 e
     the Fermi energy          =      -2.00412328 eV
                        (error :       0.10012328 eV)
     electrostatic embedding   =      -1.84925506 Ry
     cavitation energy         =       0.01512871 Ry
     electrolyte free energy   =      -0.02434491 Ry
     correction to one-el term =      81.67835977 Ry

     iteration # 17     ecut=    80.00 Ry     beta= 0.20
     Davidson diagonalization with overlap

---- Real-time Memory Report at c_bands before calling an iterative solver
           267 MiB given to the printing process from OS
             0 MiB allocation reported by mallinfo(arena+hblkhd)
        219293 MiB available memory on the node where the printing process lives
------------------
     ethr =  1.28E-07,  avg # of iterations =  9.6

     negative rho (up, down):  2.295E-04 0.000E+00

     add environment contribution to local potential

     total cpu time spent up to now is      421.6 secs

     total energy              =    -300.81265049 Ry
     estimated scf accuracy    <       0.00007925 Ry

     total charge of GC-SCF    =      -2.72909498 e
     the Fermi energy          =      -1.97360524 eV
                        (error :       0.06960524 eV)
     electrostatic embedding   =      -1.73180545 Ry
     cavitation energy         =       0.01512871 Ry
     electrolyte free energy   =      -0.02233338 Ry
     correction to one-el term =      78.86028273 Ry

     iteration # 18     ecut=    80.00 Ry     beta= 0.20
     Davidson diagonalization with overlap

---- Real-time Memory Report at c_bands before calling an iterative solver
           267 MiB given to the printing process from OS
             0 MiB allocation reported by mallinfo(arena+hblkhd)
        219304 MiB available memory on the node where the printing process lives
------------------
     ethr =  1.26E-07,  avg # of iterations = 12.0

     negative rho (up, down):  2.225E-04 0.000E+00

     add environment contribution to local potential

     total cpu time spent up to now is      439.3 secs

     total energy              =    -300.80345381 Ry
     estimated scf accuracy    <       0.00001888 Ry

     total charge of GC-SCF    =      -2.66261608 e
     the Fermi energy          =      -1.90863103 eV
                        (error :       0.00463103 eV)
     electrostatic embedding   =      -2.09527000 Ry
     cavitation energy         =       0.01512871 Ry
     electrolyte free energy   =      -0.03017474 Ry
     correction to one-el term =      86.69582547 Ry

     iteration # 19     ecut=    80.00 Ry     beta= 0.20
     Davidson diagonalization with overlap

---- Real-time Memory Report at c_bands before calling an iterative solver
           267 MiB given to the printing process from OS
             0 MiB allocation reported by mallinfo(arena+hblkhd)
        219296 MiB available memory on the node where the printing process lives
------------------
     ethr =  3.01E-08,  avg # of iterations =  9.7

     negative rho (up, down):  2.169E-04 0.000E+00

     add environment contribution to local potential

     total cpu time spent up to now is      456.2 secs

     total energy              =    -300.80272719 Ry
     estimated scf accuracy    <       0.00000782 Ry

     total charge of GC-SCF    =      -2.64471365 e
     the Fermi energy          =      -1.94286553 eV
                        (error :       0.03886553 eV)
     electrostatic embedding   =      -1.99509162 Ry
     cavitation energy         =       0.01512871 Ry
     electrolyte free energy   =      -0.02796868 Ry
     correction to one-el term =      84.42306267 Ry

     iteration # 20     ecut=    80.00 Ry     beta= 0.20
     Davidson diagonalization with overlap

---- Real-time Memory Report at c_bands before calling an iterative solver
           267 MiB given to the printing process from OS
             0 MiB allocation reported by mallinfo(arena+hblkhd)
        219314 MiB available memory on the node where the printing process lives
------------------
     ethr =  1.25E-08,  avg # of iterations =  9.8

     negative rho (up, down):  2.081E-04 0.000E+00

     add environment contribution to local potential

     total cpu time spent up to now is      473.1 secs

     total energy              =    -300.80491176 Ry
     estimated scf accuracy    <       0.00001128 Ry

     total charge of GC-SCF    =      -2.77671399 e
     the Fermi energy          =      -1.93884103 eV
                        (error :       0.03484103 eV)
     electrostatic embedding   =      -1.96482786 Ry
     cavitation energy         =       0.01512871 Ry
     electrolyte free energy   =      -0.02741764 Ry
     correction to one-el term =      83.69899719 Ry

     iteration # 21     ecut=    80.00 Ry     beta= 0.20
     Davidson diagonalization with overlap

---- Real-time Memory Report at c_bands before calling an iterative solver
           267 MiB given to the printing process from OS
             0 MiB allocation reported by mallinfo(arena+hblkhd)
        219317 MiB available memory on the node where the printing process lives
------------------
     ethr =  1.25E-08,  avg # of iterations = 15.4

     negative rho (up, down):  2.048E-04 0.000E+00

     add environment contribution to local potential

     total cpu time spent up to now is      493.4 secs

     total energy              =    -300.80311503 Ry
     estimated scf accuracy    <       0.00000304 Ry

     total charge of GC-SCF    =      -2.73409136 e
     the Fermi energy          =      -1.91016276 eV
                        (error :       0.00616276 eV)
     electrostatic embedding   =      -2.14311129 Ry
     cavitation energy         =       0.01512871 Ry
     electrolyte free energy   =      -0.03157576 Ry
     correction to one-el term =      87.27285612 Ry

     iteration # 22     ecut=    80.00 Ry     beta= 0.20
     Davidson diagonalization with overlap

---- Real-time Memory Report at c_bands before calling an iterative solver
           267 MiB given to the printing process from OS
             0 MiB allocation reported by mallinfo(arena+hblkhd)
        219313 MiB available memory on the node where the printing process lives
------------------
     ethr =  4.84E-09,  avg # of iterations =  8.5

     negative rho (up, down):  1.986E-04 0.000E+00

     add environment contribution to local potential

     total cpu time spent up to now is      510.1 secs

     total energy              =    -300.80572465 Ry
     estimated scf accuracy    <       0.00000265 Ry

     total charge of GC-SCF    =      -2.86191769 e
     the Fermi energy          =      -1.91894424 eV
                        (error :       0.01494424 eV)
     electrostatic embedding   =      -2.08076318 Ry
     cavitation energy         =       0.01512871 Ry
     electrolyte free energy   =      -0.03016547 Ry
     correction to one-el term =      85.96750499 Ry

     iteration # 23     ecut=    80.00 Ry     beta= 0.20
     Davidson diagonalization with overlap

---- Real-time Memory Report at c_bands before calling an iterative solver
           267 MiB given to the printing process from OS
             0 MiB allocation reported by mallinfo(arena+hblkhd)
        219313 MiB available memory on the node where the printing process lives
------------------
     ethr =  4.22E-09,  avg # of iterations = 17.4

     negative rho (up, down):  1.975E-04 0.000E+00

     add environment contribution to local potential

     total cpu time spent up to now is      533.9 secs

     total energy              =    -300.80295757 Ry
     estimated scf accuracy    <       0.00000103 Ry

     total charge of GC-SCF    =      -2.80593872 e
     the Fermi energy          =      -1.88146632 eV
                        (error :       0.02253368 eV)
     electrostatic embedding   =      -2.25874717 Ry
     cavitation energy         =       0.01512871 Ry
     electrolyte free energy   =      -0.03451086 Ry
     correction to one-el term =      89.48384437 Ry

     iteration # 24     ecut=    80.00 Ry     beta= 0.20
     Davidson diagonalization with overlap

---- Real-time Memory Report at c_bands before calling an iterative solver
           267 MiB given to the printing process from OS
             0 MiB allocation reported by mallinfo(arena+hblkhd)
        219314 MiB available memory on the node where the printing process lives
------------------
     ethr =  1.63E-09,  avg # of iterations = 16.3

     negative rho (up, down):  1.963E-04 0.000E+00

     add environment contribution to local potential

     total cpu time spent up to now is      556.0 secs

     total energy              =    -300.80265675 Ry
     estimated scf accuracy    <       0.00000015 Ry

     total charge of GC-SCF    =      -2.79742258 e
     the Fermi energy          =      -1.90119378 eV
                        (error :       0.00280622 eV)
     electrostatic embedding   =      -2.17775366 Ry
     cavitation energy         =       0.01512871 Ry
     electrolyte free energy   =      -0.03253569 Ry
     correction to one-el term =      87.85740600 Ry

     iteration # 25     ecut=    80.00 Ry     beta= 0.20
     Davidson diagonalization with overlap

---- Real-time Memory Report at c_bands before calling an iterative solver
           267 MiB given to the printing process from OS
             0 MiB allocation reported by mallinfo(arena+hblkhd)
        219325 MiB available memory on the node where the printing process lives
------------------
     ethr =  2.31E-10,  avg # of iterations = 14.1

     negative rho (up, down):  1.908E-04 0.000E+00

     total cpu time spent up to now is      572.6 secs

     End of self-consistent calculation

          k = 0.0000 0.0000 0.0000 (152015 PWs)   bands (ev):

   -48.9441 -48.9435 -48.9426 -48.9420 -48.6576 -48.6566 -48.6560 -48.6550
   -48.4601 -48.4511 -48.4472 -48.4461 -48.4456 -48.4445 -48.4441 -48.4432
   -48.4427 -48.4419 -48.4404 -48.4387  -5.3234  -4.8900  -4.2431  -3.5104
    -2.7207  -2.6788  -2.6764  -2.2738  -2.2622  -1.8479  -1.7526  -1.6815
    -1.6104  -1.4557  -1.3696  -1.3676  -1.0083  -0.8837  -0.7850  -0.7414
    -0.5010  -0.3704  -0.2959  -0.1083   0.0406

     occupation numbers 
     1.0000   1.0000   1.0000   1.0000   1.0000   1.0000   1.0000   1.0000
     1.0000   1.0000   1.0000   1.0000   1.0000   1.0000   1.0000   1.0000
     1.0000   1.0000   1.0000   1.0000   1.0000   1.0000   1.0000   1.0000
     1.0000   1.0000   1.0000   1.0047   1.0065   0.1723   0.0198   0.0022
     0.0001   0.0000   0.0000   0.0000   0.0000   0.0000   0.0000   0.0000
     0.0000   0.0000   0.0000   0.0000   0.0000

          k = 0.0000 0.1054 0.0000 (152006 PWs)   bands (ev):

   -48.9441 -48.9435 -48.9426 -48.9420 -48.6576 -48.6566 -48.6560 -48.6550
   -48.4598 -48.4510 -48.4472 -48.4461 -48.4456 -48.4446 -48.4445 -48.4432
   -48.4429 -48.4419 -48.4405 -48.4383  -5.2967  -4.8627  -4.2144  -3.4803
    -2.8003  -2.6916  -2.5090  -2.3848  -2.1369  -2.1102  -1.8531  -1.7851
    -1.7029  -1.5480  -1.3625  -1.2855  -1.0975  -0.8510  -0.8162  -0.7091
    -0.3685  -0.3507  -0.1737  -0.0693   0.0540

     occupation numbers 
     1.0000   1.0000   1.0000   1.0000   1.0000   1.0000   1.0000   1.0000
     1.0000   1.0000   1.0000   1.0000   1.0000   1.0000   1.0000   1.0000
     1.0000   1.0000   1.0000   1.0000   1.0000   1.0000   1.0000   1.0000
     1.0000   1.0000   1.0000   1.0001   1.0674   1.0809   0.1888   0.0460
     0.0044   0.0000   0.0000   0.0000   0.0000   0.0000   0.0000   0.0000
     0.0000   0.0000   0.0000   0.0000   0.0000

          k = 0.0000 0.2108 0.0000 (151950 PWs)   bands (ev):

   -48.9441 -48.9435 -48.9426 -48.9420 -48.6576 -48.6566 -48.6560 -48.6550
   -48.4592 -48.4507 -48.4472 -48.4460 -48.4457 -48.4457 -48.4445 -48.4435
   -48.4432 -48.4419 -48.4405 -48.4375  -5.2168  -4.7809  -4.1287  -3.3901
    -2.8746  -2.6637  -2.6063  -2.4580  -2.2960  -2.2314  -1.9570  -1.8284
    -1.7685  -1.6989  -1.5182  -1.3521  -1.3221  -0.8938  -0.8162  -0.5727
    -0.2858  -0.2291  -0.0060   0.0511   0.0994

     occupation numbers 
     1.0000   1.0000   1.0000   1.0000   1.0000   1.0000   1.0000   1.0000
     1.0000   1.0000   1.0000   1.0000   1.0000   1.0000   1.0000   1.0000
     1.0000   1.0000   1.0000   1.0000   1.0000   1.0000   1.0000   1.0000
     1.0000   1.0000   1.0000   1.0000   1.0024   1.0139   0.6901   0.1192
     0.0304   0.0039   0.0000   0.0000   0.0000   0.0000   0.0000   0.0000
     0.0000   0.0000   0.0000   0.0000   0.0000

          k = 0.0000 0.3162 0.0000 (151992 PWs)   bands (ev):

   -48.9441 -48.9434 -48.9426 -48.9420 -48.6576 -48.6566 -48.6560 -48.6550
   -48.4582 -48.4501 -48.4474 -48.4472 -48.4459 -48.4458 -48.4445 -48.4443
   -48.4432 -48.4419 -48.4404 -48.4368  -5.0834  -4.6447  -3.9861  -3.2411
    -3.1596  -2.8995  -2.7222  -2.4816  -2.4466  -2.0685  -2.0395  -2.0357
    -1.9100  -1.6249  -1.6100  -1.5312  -1.2996  -1.1593  -0.8103  -0.5096
    -0.2810  -0.1852   0.0534   0.1315   0.2085

     occupation numbers 
     1.0000   1.0000   1.0000   1.0000   1.0000   1.0000   1.0000   1.0000
     1.0000   1.0000   1.0000   1.0000   1.0000   1.0000   1.0000   1.0000
     1.0000   1.0000   1.0000   1.0000   1.0000   1.0000   1.0000   1.0000
     1.0000   1.0000   1.0000   1.0000   1.0000   1.0717   1.0267   1.0179
     0.4339   0.0003   0.0001   0.0000   0.0000   0.0000   0.0000   0.0000
     0.0000   0.0000   0.0000   0.0000   0.0000

          k = 0.0000 0.4216 0.0000 (151948 PWs)   bands (ev):

   -48.9441 -48.9434 -48.9426 -48.9420 -48.6576 -48.6566 -48.6560 -48.6550
   -48.4568 -48.4495 -48.4490 -48.4472 -48.4460 -48.4457 -48.4453 -48.4445
   -48.4432 -48.4419 -48.4403 -48.4363  -4.8964  -4.4542  -3.7874  -3.6118
    -3.1612  -3.0332  -2.8747  -2.4649  -2.4581  -2.2958  -2.2561  -1.9568
    -1.8302  -1.7695  -1.6760  -1.3510  -1.3208  -1.3030  -0.8157  -0.6573
    -0.2857  -0.1568   0.0996   0.1461   0.3448

     occupation numbers 
     1.0000   1.0000   1.0000   1.0000   1.0000   1.0000   1.0000   1.0000
     1.0000   1.0000   1.0000   1.0000   1.0000   1.0000   1.0000   1.0000
     1.0000   1.0000   1.0000   1.0000   1.0000   1.0000   1.0000   1.0000
     1.0000   1.0000   1.0000   1.0000   1.0000   1.0025   1.0076   0.6893
     0.1236   0.0312   0.0018   0.0000   0.0000   0.0000   0.0000   0.0000
     0.0000   0.0000   0.0000   0.0000   0.0000

          k = 0.0000 0.5270 0.0000 (152033 PWs)   bands (ev):

   -48.9441 -48.9434 -48.9426 -48.9420 -48.6576 -48.6566 -48.6560 -48.6550
   -48.4551 -48.4512 -48.4484 -48.4472 -48.4462 -48.4461 -48.4456 -48.4445
   -48.4432 -48.4419 -48.4402 -48.4359  -4.6558  -4.2104  -4.0118  -3.5638
    -3.5303  -2.8807  -2.8003  -2.7530  -2.5089  -2.3850  -2.1465  -2.1104
    -1.9134  -1.8552  -1.5496  -1.3660  -1.3602  -1.0969  -0.8148  -0.7984
    -0.3675  -0.1251   0.0541   0.1891   0.2496

     occupation numbers 
     1.0000   1.0000   1.0000   1.0000   1.0000   1.0000   1.0000   1.0000
     1.0000   1.0000   1.0000   1.0000   1.0000   1.0000   1.0000   1.0000
     1.0000   1.0000   1.0000   1.0000   1.0000   1.0000   1.0000   1.0000
     1.0000   1.0000   1.0000   1.0000   1.0000   1.0001   1.0610   1.0808
     0.4518   0.1957   0.0000   0.0000   0.0000   0.0000   0.0000   0.0000
     0.0000   0.0000   0.0000   0.0000   0.0000

          k = 0.0000-0.6325 0.0000 (151994 PWs)   bands (ev):

   -48.9441 -48.9434 -48.9426 -48.9420 -48.6576 -48.6566 -48.6560 -48.6550
   -48.4536 -48.4529 -48.4477 -48.4472 -48.4470 -48.4461 -48.4456 -48.4445
   -48.4432 -48.4419 -48.4401 -48.4358  -4.3709  -4.3519  -3.9210  -3.9007
    -3.2372  -3.2162  -2.6786  -2.6765  -2.4542  -2.4488  -2.2742  -2.2623
    -1.8501  -1.7689  -1.5350  -1.4572  -1.3653  -1.0086  -0.7704  -0.7393
    -0.4990  -0.2198   0.0406   0.2052   0.3181

     occupation numbers 
     1.0000   1.0000   1.0000   1.0000   1.0000   1.0000   1.0000   1.0000
     1.0000   1.0000   1.0000   1.0000   1.0000   1.0000   1.0000   1.0000
     1.0000   1.0000   1.0000   1.0000   1.0000   1.0000   1.0000   1.0000
     1.0000   1.0000   1.0000   1.0000   1.0000   1.0000   1.0046   1.0064
     0.1793   0.0307   0.0000   0.0000   0.0000   0.0000   0.0000   0.0000
     0.0000   0.0000   0.0000   0.0000   0.0000

          k = 0.1000 0.0316 0.0000 (152067 PWs)   bands (ev):

   -48.9441 -48.9434 -48.9427 -48.9420 -48.6575 -48.6565 -48.6561 -48.6550
   -48.4599 -48.4510 -48.4483 -48.4457 -48.4455 -48.4444 -48.4441 -48.4430
   -48.4428 -48.4417 -48.4404 -48.4387  -5.2970  -4.8631  -4.2148  -3.4804
    -3.1775  -2.7410  -2.6901  -2.1354  -2.1174  -1.7954  -1.7679  -1.6999
    -1.5585  -1.4813  -1.3259  -1.3176  -1.0293  -0.8561  -0.7501  -0.7434
    -0.4774  -0.3427  -0.2539  -0.0734  -0.0297

     occupation numbers 
     1.0000   1.0000   1.0000   1.0000   1.0000   1.0000   1.0000   1.0000
     1.0000   1.0000   1.0000   1.0000   1.0000   1.0000   1.0000   1.0000
     1.0000   1.0000   1.0000   1.0000   1.0000   1.0000   1.0000   1.0000
     1.0000   1.0000   1.0000   1.0683   1.0782   0.0588   0.0300   0.0040
     0.0000   0.0000   0.0000   0.0000   0.0000   0.0000   0.0000   0.0000
     0.0000   0.0000   0.0000   0.0000   0.0000

          k = 0.1000 0.1370 0.0000 (152026 PWs)   bands (ev):

   -48.9441 -48.9434 -48.9427 -48.9420 -48.6575 -48.6565 -48.6561 -48.6550
   -48.4595 -48.4508 -48.4486 -48.4458 -48.4453 -48.4448 -48.4444 -48.4430
   -48.4429 -48.4416 -48.4406 -48.4381  -5.2544  -4.8194  -4.1690  -3.4323
    -3.2894  -2.8533  -2.6436  -2.2710  -2.2145  -1.9701  -1.8807  -1.6877
    -1.6709  -1.4016  -1.3030  -1.2960  -0.9547  -0.8127  -0.7327  -0.6325
    -0.2958  -0.2914  -0.0934  -0.0329  -0.0107

     occupation numbers 
     1.0000   1.0000   1.0000   1.0000   1.0000   1.0000   1.0000   1.0000
     1.0000   1.0000   1.0000   1.0000   1.0000   1.0000   1.0000   1.0000
     1.0000   1.0000   1.0000   1.0000   1.0000   1.0000   1.0000   1.0000
     1.0000   1.0000   1.0000   1.0051   1.0202   0.7599   0.2939   0.0027
     0.0015   0.0000   0.0000   0.0000   0.0000   0.0000   0.0000   0.0000
     0.0000   0.0000   0.0000   0.0000   0.0000

          k = 0.1000 0.2424 0.0000 (151998 PWs)   bands (ev):

   -48.9441 -48.9434 -48.9427 -48.9420 -48.6576 -48.6565 -48.6561 -48.6550
   -48.4588 -48.4504 -48.4487 -48.4462 -48.4459 -48.4451 -48.4444 -48.4437
   -48.4429 -48.4415 -48.4405 -48.4374  -5.1584  -4.7213  -4.0662  -3.3506
    -3.3242  -2.9147  -2.7925  -2.5466  -2.3448  -2.2690  -1.7921  -1.7350
    -1.6034  -1.5256  -1.4526  -1.2898  -1.0674  -0.9265  -0.6368  -0.5197
    -0.2090  -0.1669   0.0064   0.0573   0.1219

     occupation numbers 
     1.0000   1.0000   1.0000   1.0000   1.0000   1.0000   1.0000   1.0000
     1.0000   1.0000   1.0000   1.0000   1.0000   1.0000   1.0000   1.0000
     1.0000   1.0000   1.0000   1.0000   1.0000   1.0000   1.0000   1.0000
     1.0000   1.0000   1.0000   1.0000   1.0005   1.0054   0.0544   0.0120
     0.0001   0.0000   0.0000   0.0000   0.0000   0.0000   0.0000   0.0000
     0.0000   0.0000   0.0000   0.0000   0.0000

          k = 0.1000 0.3479 0.0000 (151987 PWs)   bands (ev):

   -48.9441 -48.9434 -48.9427 -48.9420 -48.6576 -48.6565 -48.6561 -48.6550
   -48.4576 -48.4498 -48.4488 -48.4478 -48.4459 -48.4451 -48.4446 -48.4445
   -48.4428 -48.4415 -48.4404 -48.4367  -5.0090  -4.5688  -3.9067  -3.3608
    -3.2773  -3.1566  -2.9250  -2.8312  -2.3690  -2.2783  -2.1371  -1.7376
    -1.5915  -1.5032  -1.4798  -1.2916  -1.2128  -1.0946  -0.6192  -0.4935
    -0.1976  -0.1701   0.0182   0.1083   0.3050

     occupation numbers 
     1.0000   1.0000   1.0000   1.0000   1.0000   1.0000   1.0000   1.0000
     1.0000   1.0000   1.0000   1.0000   1.0000   1.0000   1.0000   1.0000
     1.0000   1.0000   1.0000   1.0000   1.0000   1.0000   1.0000   1.0000
     1.0000   1.0000   1.0000   1.0000   1.0002   1.0041   1.0672   0.0130
     0.0001   0.0000   0.0000   0.0000   0.0000   0.0000   0.0000   0.0000
     0.0000   0.0000   0.0000   0.0000   0.0000

          k = 0.1000 0.4533 0.0000 (151932 PWs)   bands (ev):

   -48.9441 -48.9434 -48.9427 -48.9420 -48.6576 -48.6565 -48.6561 -48.6550
   -48.4562 -48.4498 -48.4489 -48.4487 -48.4459 -48.4455 -48.4452 -48.4444
   -48.4429 -48.4416 -48.4403 -48.4362  -4.8059  -4.3621  -3.7136  -3.6914
    -3.3199  -3.2611  -2.9338  -2.8841  -2.5608  -2.2418  -2.1671  -1.8974
    -1.7468  -1.6498  -1.4174  -1.2839  -1.2741  -0.9994  -0.6968  -0.6884
    -0.2467  -0.0949  -0.0189   0.1829   0.2669

     occupation numbers 
     1.0000   1.0000   1.0000   1.0000   1.0000   1.0000   1.0000   1.0000
     1.0000   1.0000   1.0000   1.0000   1.0000   1.0000   1.0000   1.0000
     1.0000   1.0000   1.0000   1.0000   1.0000   1.0000   1.0000   1.0000
     1.0000   1.0000   1.0000   1.0000   1.0000   1.0109   1.0469   0.3708
     0.0169   0.0007   0.0000   0.0000   0.0000   0.0000   0.0000   0.0000
     0.0000   0.0000   0.0000   0.0000   0.0000

          k = 0.1000 0.5587 0.0000 (151966 PWs)   bands (ev):

   -48.9441 -48.9434 -48.9427 -48.9420 -48.6576 -48.6565 -48.6561 -48.6550
   -48.4545 -48.4517 -48.4485 -48.4481 -48.4465 -48.4458 -48.4454 -48.4444
   -48.4430 -48.4416 -48.4402 -48.4360  -4.5493  -4.1142  -4.0858  -3.6468
    -3.4209  -3.2283  -2.9582  -2.7921  -2.6450  -2.1941  -2.1615  -2.0726
    -1.8442  -1.7551  -1.4188  -1.3960  -1.3194  -0.9603  -0.7663  -0.7546
    -0.4013  -0.1361  -0.0379   0.1560   0.2646

     occupation numbers 
     1.0000   1.0000   1.0000   1.0000   1.0000   1.0000   1.0000   1.0000
     1.0000   1.0000   1.0000   1.0000   1.0000   1.0000   1.0000   1.0000
     1.0000   1.0000   1.0000   1.0000   1.0000   1.0000   1.0000   1.0000
     1.0000   1.0000   1.0000   1.0000   1.0000   1.0301   1.0507   1.0751
     0.1611   0.0213   0.0000   0.0000   0.0000   0.0000   0.0000   0.0000
     0.0000   0.0000   0.0000   0.0000   0.0000

          k = 0.1000-0.6008 0.0000 (151997 PWs)   bands (ev):

   -48.9441 -48.9434 -48.9427 -48.9420 -48.6576 -48.6565 -48.6561 -48.6550
   -48.4538 -48.4525 -48.4481 -48.4478 -48.4468 -48.4457 -48.4456 -48.4443
   -48.4431 -48.4418 -48.4402 -48.4359  -4.4318  -4.2386  -3.9815  -3.7863
    -3.2987  -3.0988  -3.0865  -2.6497  -2.5216  -2.3241  -2.2168  -2.0452
    -1.8523  -1.7675  -1.6308  -1.4780  -1.3025  -1.1737  -0.7733  -0.7487
    -0.5325  -0.1815  -0.0053   0.2157   0.3273

     occupation numbers 
     1.0000   1.0000   1.0000   1.0000   1.0000   1.0000   1.0000   1.0000
     1.0000   1.0000   1.0000   1.0000   1.0000   1.0000   1.0000   1.0000
     1.0000   1.0000   1.0000   1.0000   1.0000   1.0000   1.0000   1.0000
     1.0000   1.0000   1.0000   1.0000   1.0000   1.0010   1.0192   1.0387
     0.1864   0.0296   0.0003   0.0000   0.0000   0.0000   0.0000   0.0000
     0.0000   0.0000   0.0000   0.0000   0.0000

          k = 0.1000-0.4954 0.0000 (151985 PWs)   bands (ev):

   -48.9441 -48.9434 -48.9427 -48.9420 -48.6576 -48.6565 -48.6561 -48.6551
   -48.4555 -48.4506 -48.4486 -48.4477 -48.4461 -48.4459 -48.4455 -48.4442
   -48.4432 -48.4419 -48.4402 -48.4361  -4.7097  -4.2645  -3.8737  -3.5903
    -3.4206  -2.8958  -2.8371  -2.7121  -2.4590  -2.3185  -2.1042  -1.9798
    -1.9432  -1.8624  -1.8294  -1.4928  -1.2949  -1.2823  -0.9348  -0.7571
    -0.5051  -0.0758   0.0290   0.1876   0.3223

     occupation numbers 
     1.0000   1.0000   1.0000   1.0000   1.0000   1.0000   1.0000   1.0000
     1.0000   1.0000   1.0000   1.0000   1.0000   1.0000   1.0000   1.0000
     1.0000   1.0000   1.0000   1.0000   1.0000   1.0000   1.0000   1.0000
     1.0000   1.0000   1.0000   1.0000   1.0000   1.0012   1.0825   0.8086
     0.6146   0.2211   0.1218   0.0000   0.0000   0.0000   0.0000   0.0000
     0.0000   0.0000   0.0000   0.0000   0.0000

          k = 0.1000-0.3900 0.0000 (151942 PWs)   bands (ev):

   -48.9441 -48.9434 -48.9427 -48.9420 -48.6576 -48.6565 -48.6561 -48.6551
   -48.4571 -48.4495 -48.4486 -48.4473 -48.4465 -48.4454 -48.4449 -48.4442
   -48.4433 -48.4420 -48.4403 -48.4365  -4.9342  -4.4926  -3.8272  -3.4577
    -3.0743  -3.0073  -2.6592  -2.3771  -2.3234  -2.2779  -2.2648  -2.2147
    -2.0023  -1.8115  -1.6618  -1.5615  -1.3678  -1.2695  -1.0528  -0.5594
    -0.4430  -0.1587   0.0203   0.1518   0.3553

     occupation numbers 
     1.0000   1.0000   1.0000   1.0000   1.0000   1.0000   1.0000   1.0000
     1.0000   1.0000   1.0000   1.0000   1.0000   1.0000   1.0000   1.0000
     1.0000   1.0000   1.0000   1.0000   1.0000   1.0000   1.0000   1.0000
     1.0000   1.0000   1.0000   1.0001   1.0010   1.0042   1.0060   1.0201
     0.9096   0.0841   0.0011   0.0000   0.0000   0.0000   0.0000   0.0000
     0.0000   0.0000   0.0000   0.0000   0.0000

          k = 0.1000-0.2846 0.0000 (151938 PWs)   bands (ev):

   -48.9441 -48.9434 -48.9427 -48.9420 -48.6576 -48.6565 -48.6561 -48.6551
   -48.4584 -48.4502 -48.4471 -48.4468 -48.4466 -48.4454 -48.4442 -48.4440
   -48.4433 -48.4420 -48.4405 -48.4371  -5.1050  -4.6668  -4.0091  -3.2644
    -2.9915  -2.5720  -2.5536  -2.4522  -2.3863  -2.3797  -2.1152  -2.0119
    -1.9243  -1.8834  -1.5978  -1.5164  -1.4225  -1.0703  -1.0387  -0.4913
    -0.4261  -0.1467   0.0132   0.0727   0.1832

     occupation numbers 
     1.0000   1.0000   1.0000   1.0000   1.0000   1.0000   1.0000   1.0000
     1.0000   1.0000   1.0000   1.0000   1.0000   1.0000   1.0000   1.0000
     1.0000   1.0000   1.0000   1.0000   1.0000   1.0000   1.0000   1.0000
     1.0000   1.0000   1.0000   1.0000   1.0001   1.0001   1.0791   0.9464
     0.5100   0.3056   0.0001   0.0000   0.0000   0.0000   0.0000   0.0000
     0.0000   0.0000   0.0000   0.0000   0.0000

          k = 0.1000-0.1792 0.0000 (151999 PWs)   bands (ev):

   -48.9441 -48.9434 -48.9427 -48.9420 -48.6575 -48.6565 -48.6561 -48.6551
   -48.4593 -48.4507 -48.4475 -48.4462 -48.4455 -48.4453 -48.4442 -48.4433
   -48.4432 -48.4419 -48.4406 -48.4378  -5.2224  -4.7867  -4.1347  -3.3962
    -2.8066  -2.6095  -2.4825  -2.3735  -2.3426  -2.0730  -2.0646  -1.9829
    -1.7728  -1.6600  -1.6167  -1.4108  -1.3073  -0.9943  -0.8257  -0.5747
    -0.4808  -0.2386  -0.0234   0.0301   0.0382

     occupation numbers 
     1.0000   1.0000   1.0000   1.0000   1.0000   1.0000   1.0000   1.0000
     1.0000   1.0000   1.0000   1.0000   1.0000   1.0000   1.0000   1.0000
     1.0000   1.0000   1.0000   1.0000   1.0000   1.0000   1.0000   1.0000
     1.0000   1.0000   1.0000   1.0002   1.0005   1.0754   1.0678   0.8238
     0.0339   0.0010   0.0002   0.0000   0.0000   0.0000   0.0000   0.0000
     0.0000   0.0000   0.0000   0.0000   0.0000

          k = 0.1000-0.0738 0.0000 (152043 PWs)   bands (ev):

   -48.9441 -48.9434 -48.9427 -48.9420 -48.6575 -48.6565 -48.6561 -48.6551
   -48.4598 -48.4510 -48.4480 -48.4458 -48.4456 -48.4443 -48.4443 -48.4431
   -48.4428 -48.4418 -48.4405 -48.4385  -5.2864  -4.8521  -4.2034  -3.4684
    -3.0160  -2.6784  -2.5788  -2.2629  -1.9988  -1.9553  -1.8745  -1.7443
    -1.7062  -1.6264  -1.3282  -1.2637  -1.2581  -0.8395  -0.8353  -0.7222
    -0.5313  -0.3389  -0.1991  -0.0581   0.0122

     occupation numbers 
     1.0000   1.0000   1.0000   1.0000   1.0000   1.0000   1.0000   1.0000
     1.0000   1.0000   1.0000   1.0000   1.0000   1.0000   1.0000   1.0000
     1.0000   1.0000   1.0000   1.0000   1.0000   1.0000   1.0000   1.0000
     1.0000   1.0000   1.0000   1.0063   0.8951   0.6812   0.2677   0.0157
     0.0050   0.0003   0.0000   0.0000   0.0000   0.0000   0.0000   0.0000
     0.0000   0.0000   0.0000   0.0000   0.0000

          k = 0.2000 0.0632 0.0000 (151969 PWs)   bands (ev):

   -48.9440 -48.9433 -48.9428 -48.9421 -48.6574 -48.6564 -48.6562 -48.6552
   -48.4593 -48.4507 -48.4501 -48.4462 -48.4453 -48.4442 -48.4439 -48.4428
   -48.4425 -48.4412 -48.4406 -48.4387  -5.2179  -4.7823  -4.1302  -3.6279
    -3.3908  -3.1820  -2.5982  -2.5087  -1.8278  -1.8034  -1.6221  -1.5707
    -1.5310  -1.5183  -1.1986  -1.1723  -1.0949  -0.7729  -0.7229  -0.6479
    -0.4294  -0.2534  -0.1547  -0.1378   0.0310

     occupation numbers 
     1.0000   1.0000   1.0000   1.0000   1.0000   1.0000   1.0000   1.0000
     1.0000   1.0000   1.0000   1.0000   1.0000   1.0000   1.0000   1.0000
     1.0000   1.0000   1.0000   1.0000   1.0000   1.0000   1.0000   1.0000
     1.0000   1.0000   1.0000   1.0000   0.1180   0.0704   0.0002   0.0000
     0.0000   0.0000   0.0000   0.0000   0.0000   0.0000   0.0000   0.0000
     0.0000   0.0000   0.0000   0.0000   0.0000

          k = 0.2000 0.1687 0.0000 (151968 PWs)   bands (ev):

   -48.9440 -48.9433 -48.9428 -48.9421 -48.6574 -48.6564 -48.6562 -48.6552
   -48.4588 -48.4505 -48.4504 -48.4464 -48.4451 -48.4449 -48.4440 -48.4432
   -48.4425 -48.4411 -48.4406 -48.4381  -5.1593  -4.7223  -4.0673  -3.7264
    -3.3246  -3.2822  -2.6091  -2.5346  -2.3573  -1.9413  -1.8735  -1.5790
    -1.3886  -1.2986  -1.2666  -1.1412  -0.8494  -0.7290  -0.6840  -0.5052
    -0.2315  -0.1651  -0.1035   0.0395   0.1155

     occupation numbers 
     1.0000   1.0000   1.0000   1.0000   1.0000   1.0000   1.0000   1.0000
     1.0000   1.0000   1.0000   1.0000   1.0000   1.0000   1.0000   1.0000
     1.0000   1.0000   1.0000   1.0000   1.0000   1.0000   1.0000   1.0000
     1.0000   1.0000   1.0000   1.0000   1.0003   0.6037   0.2638   0.0000
     0.0000   0.0000   0.0000   0.0000   0.0000   0.0000   0.0000   0.0000
     0.0000   0.0000   0.0000   0.0000   0.0000

          k = 0.2000 0.2741 0.0000 (152020 PWs)   bands (ev):

   -48.9440 -48.9433 -48.9428 -48.9421 -48.6574 -48.6564 -48.6562 -48.6552
   -48.4580 -48.4506 -48.4500 -48.4465 -48.4465 -48.4447 -48.4440 -48.4439
   -48.4424 -48.4411 -48.4406 -48.4374  -5.0473  -4.6079  -3.9474  -3.7731
    -3.3297  -3.1987  -2.8708  -2.6568  -2.4638  -2.3695  -1.9106  -1.7624
    -1.4377  -1.2482  -1.1552  -1.1418  -0.9214  -0.7821  -0.5665  -0.4123
    -0.2390  -0.0583   0.0001   0.1596   0.2608

     occupation numbers 
     1.0000   1.0000   1.0000   1.0000   1.0000   1.0000   1.0000   1.0000
     1.0000   1.0000   1.0000   1.0000   1.0000   1.0000   1.0000   1.0000
     1.0000   1.0000   1.0000   1.0000   1.0000   1.0000   1.0000   1.0000
     1.0000   1.0000   1.0000   1.0000   1.0000   1.0002   0.4375   0.0259
     0.0000   0.0000   0.0000   0.0000   0.0000   0.0000   0.0000   0.0000
     0.0000   0.0000   0.0000   0.0000   0.0000

          k = 0.2000 0.3795 0.0000 (151962 PWs)   bands (ev):

   -48.9440 -48.9433 -48.9428 -48.9421 -48.6575 -48.6564 -48.6562 -48.6552
   -48.4568 -48.4506 -48.4493 -48.4482 -48.4465 -48.4447 -48.4447 -48.4440
   -48.4424 -48.4411 -48.4404 -48.4368  -4.8819  -4.4391  -3.7711  -3.7679
    -3.3419  -3.3244  -3.0140  -2.8899  -2.6515  -2.2348  -2.1806  -1.9066
    -1.4535  -1.2726  -1.1798  -1.1618  -1.1385  -0.7891  -0.5821  -0.4532
    -0.2370  -0.0819  -0.0158   0.2308   0.3593

     occupation numbers 
     1.0000   1.0000   1.0000   1.0000   1.0000   1.0000   1.0000   1.0000
     1.0000   1.0000   1.0000   1.0000   1.0000   1.0000   1.0000   1.0000
     1.0000   1.0000   1.0000   1.0000   1.0000   1.0000   1.0000   1.0000
     1.0000   1.0000   1.0000   1.0000   1.0000   1.0129   1.0381   0.4164
     0.0000   0.0000   0.0000   0.0000   0.0000   0.0000   0.0000   0.0000
     0.0000   0.0000   0.0000   0.0000   0.0000

          k = 0.2000 0.4849 0.0000 (151925 PWs)   bands (ev):

   -48.9440 -48.9433 -48.9428 -48.9421 -48.6575 -48.6564 -48.6562 -48.6552
   -48.4553 -48.4504 -48.4501 -48.4485 -48.4463 -48.4457 -48.4450 -48.4440
   -48.4425 -48.4411 -48.4403 -48.4365  -4.6628  -4.2164  -3.7629  -3.7108
    -3.5396  -3.3078  -3.2664  -2.7772  -2.6006  -2.5933  -2.0283  -1.8620
    -1.7570  -1.4203  -1.3164  -1.1989  -1.1434  -0.8803  -0.7049  -0.6671
    -0.2417  -0.1225   0.0090   0.1840   0.2665

     occupation numbers 
     1.0000   1.0000   1.0000   1.0000   1.0000   1.0000   1.0000   1.0000
     1.0000   1.0000   1.0000   1.0000   1.0000   1.0000   1.0000   1.0000
     1.0000   1.0000   1.0000   1.0000   1.0000   1.0000   1.0000   1.0000
     1.0000   1.0000   1.0000   1.0000   1.0000   1.0000   0.9986   0.2194
     0.0224   0.0000   0.0000   0.0000   0.0000   0.0000   0.0000   0.0000
     0.0000   0.0000   0.0000   0.0000   0.0000

          k = 0.2000 0.5903 0.0000 (151971 PWs)   bands (ev):

   -48.9439 -48.9433 -48.9428 -48.9421 -48.6575 -48.6564 -48.6562 -48.6552
   -48.4536 -48.4520 -48.4500 -48.4477 -48.4465 -48.4461 -48.4454 -48.4439
   -48.4426 -48.4413 -48.4403 -48.4363  -4.3903  -4.1334  -3.9384  -3.6789
    -3.6020  -3.2529  -3.1558  -2.9866  -2.4826  -2.4717  -2.2078  -1.7883
    -1.6988  -1.6427  -1.5584  -1.3743  -1.1927  -1.1493  -0.7148  -0.6717
    -0.4955  -0.1606  -0.0945   0.1943   0.3969

     occupation numbers 
     1.0000   1.0000   1.0000   1.0000   1.0000   1.0000   1.0000   1.0000
     1.0000   1.0000   1.0000   1.0000   1.0000   1.0000   1.0000   1.0000
     1.0000   1.0000   1.0000   1.0000   1.0000   1.0000   1.0000   1.0000
     1.0000   1.0000   1.0000   1.0000   1.0000   1.0000   1.0231   0.0497
     0.0039   0.0005   0.0000   0.0000   0.0000   0.0000   0.0000   0.0000
     0.0000   0.0000   0.0000   0.0000   0.0000

          k = 0.2000-0.5692 0.0000 (151945 PWs)   bands (ev):

   -48.9440 -48.9433 -48.9428 -48.9421 -48.6575 -48.6564 -48.6562 -48.6552
   -48.4539 -48.4516 -48.4495 -48.4478 -48.4464 -48.4461 -48.4457 -48.4439
   -48.4427 -48.4414 -48.4403 -48.4363  -4.4490  -4.0660  -3.9958  -3.6091
    -3.4418  -3.3140  -2.9931  -2.9160  -2.5338  -2.3203  -2.1418  -2.0213
    -1.7444  -1.7394  -1.6276  -1.5373  -1.3314  -1.1982  -0.8663  -0.6817
    -0.6571  -0.2000  -0.0700   0.2545   0.3639

     occupation numbers 
     1.0000   1.0000   1.0000   1.0000   1.0000   1.0000   1.0000   1.0000
     1.0000   1.0000   1.0000   1.0000   1.0000   1.0000   1.0000   1.0000
     1.0000   1.0000   1.0000   1.0000   1.0000   1.0000   1.0000   1.0000
     1.0000   1.0000   1.0000   1.0000   1.0000   1.0011   1.0642   0.9778
     0.0158   0.0137   0.0003   0.0000   0.0000   0.0000   0.0000   0.0000
     0.0000   0.0000   0.0000   0.0000   0.0000

          k = 0.2000-0.4638 0.0000 (151886 PWs)   bands (ev):

   -48.9440 -48.9433 -48.9428 -48.9421 -48.6575 -48.6564 -48.6562 -48.6552
   -48.4556 -48.4498 -48.4488 -48.4486 -48.4467 -48.4455 -48.4455 -48.4439
   -48.4428 -48.4415 -48.4403 -48.4365  -4.7109  -4.2652  -3.6830  -3.5901
    -3.2312  -3.2280  -2.8269  -2.7795  -2.5234  -2.3907  -2.1090  -2.0616
    -1.9239  -1.7942  -1.6969  -1.5609  -1.2350  -1.1895  -1.1822  -0.6358
    -0.6339  -0.2228  -0.0013   0.2240   0.2675

     occupation numbers 
     1.0000   1.0000   1.0000   1.0000   1.0000   1.0000   1.0000   1.0000
     1.0000   1.0000   1.0000   1.0000   1.0000   1.0000   1.0000   1.0000
     1.0000   1.0000   1.0000   1.0000   1.0000   1.0000   1.0000   1.0000
     1.0000   1.0000   1.0000   1.0000   1.0000   1.0001   1.0813   1.0645
     0.5083   0.0571   0.0036   0.0000   0.0000   0.0000   0.0000   0.0000
     0.0000   0.0000   0.0000   0.0000   0.0000

          k = 0.2000-0.3584 0.0000 (151888 PWs)   bands (ev):

   -48.9440 -48.9433 -48.9428 -48.9421 -48.6574 -48.6564 -48.6562 -48.6552
   -48.4570 -48.4495 -48.4481 -48.4479 -48.4475 -48.4453 -48.4446 -48.4440
   -48.4428 -48.4416 -48.4405 -48.4369  -4.9192  -4.4772  -3.8108  -3.2517
    -3.0554  -2.9722  -2.8016  -2.7307  -2.5149  -2.2671  -2.2669  -2.1008
    -1.8512  -1.8295  -1.6172  -1.4752  -1.4242  -1.1515  -1.1357  -0.6747
    -0.4188  -0.2191  -0.0871   0.2084   0.2614

     occupation numbers 
     1.0000   1.0000   1.0000   1.0000   1.0000   1.0000   1.0000   1.0000
     1.0000   1.0000   1.0000   1.0000   1.0000   1.0000   1.0000   1.0000
     1.0000   1.0000   1.0000   1.0000   1.0000   1.0000   1.0000   1.0000
     1.0000   1.0000   1.0000   1.0000   1.0000   1.0057   1.0057   1.0830
     0.1827   0.1219   0.0002   0.0000   0.0000   0.0000   0.0000   0.0000
     0.0000   0.0000   0.0000   0.0000   0.0000

          k = 0.2000-0.2530 0.0000 (151943 PWs)   bands (ev):

   -48.9440 -48.9433 -48.9428 -48.9421 -48.6574 -48.6564 -48.6562 -48.6552
   -48.4582 -48.4501 -48.4482 -48.4473 -48.4462 -48.4453 -48.4440 -48.4437
   -48.4428 -48.4416 -48.4406 -48.4375  -5.0740  -4.6351  -3.9759  -3.2286
    -3.0279  -2.7713  -2.6678  -2.5690  -2.4538  -2.3129  -2.2027  -1.9034
    -1.8256  -1.6865  -1.5777  -1.4561  -1.4440  -1.1456  -0.8635  -0.6664
    -0.4272  -0.2200  -0.0685   0.1525   0.2293

     occupation numbers 
     1.0000   1.0000   1.0000   1.0000   1.0000   1.0000   1.0000   1.0000
     1.0000   1.0000   1.0000   1.0000   1.0000   1.0000   1.0000   1.0000
     1.0000   1.0000   1.0000   1.0000   1.0000   1.0000   1.0000   1.0000
     1.0000   1.0000   1.0000   1.0000   1.0000   1.0014   1.0256   0.4002
     0.1128   0.0026   0.0000   0.0000   0.0000   0.0000   0.0000   0.0000
     0.0000   0.0000   0.0000   0.0000   0.0000

          k = 0.2000-0.1476 0.0000 (151949 PWs)   bands (ev):

   -48.9440 -48.9433 -48.9428 -48.9421 -48.6574 -48.6564 -48.6562 -48.6552
   -48.4589 -48.4505 -48.4489 -48.4466 -48.4455 -48.4449 -48.4439 -48.4431
   -48.4428 -48.4415 -48.4406 -48.4382  -5.1753  -4.7387  -4.0844  -3.3426
    -3.2774  -2.8260  -2.5517  -2.3184  -2.2513  -2.1541  -1.8535  -1.8482
    -1.7826  -1.5853  -1.5681  -1.2430  -1.1991  -1.1588  -0.7242  -0.6323
    -0.5359  -0.2211  -0.1923   0.0028   0.0921

     occupation numbers 
     1.0000   1.0000   1.0000   1.0000   1.0000   1.0000   1.0000   1.0000
     1.0000   1.0000   1.0000   1.0000   1.0000   1.0000   1.0000   1.0000
     1.0000   1.0000   1.0000   1.0000   1.0000   1.0000   1.0000   1.0000
     1.0000   1.0000   1.0000   1.0012   1.0086   1.0558   0.1901   0.1733
     0.0434   0.0000   0.0000   0.0000   0.0000   0.0000   0.0000   0.0000
     0.0000   0.0000   0.0000   0.0000   0.0000

          k = 0.2000-0.0422 0.0000 (151969 PWs)   bands (ev):

   -48.9440 -48.9433 -48.9428 -48.9421 -48.6574 -48.6564 -48.6562 -48.6552
   -48.4593 -48.4507 -48.4496 -48.4460 -48.4457 -48.4441 -48.4439 -48.4428
   -48.4427 -48.4414 -48.4405 -48.4388  -5.2232  -4.7877  -4.1359  -3.4780
    -3.3968  -3.0297  -2.6041  -2.3565  -1.9446  -1.7423  -1.7304  -1.6216
    -1.6210  -1.4797  -1.4669  -1.2365  -1.1961  -0.7927  -0.7847  -0.6692
    -0.6594  -0.2538  -0.1922  -0.1661   0.0235

     occupation numbers 
     1.0000   1.0000   1.0000   1.0000   1.0000   1.0000   1.0000   1.0000
     1.0000   1.0000   1.0000   1.0000   1.0000   1.0000   1.0000   1.0000
     1.0000   1.0000   1.0000   1.0000   1.0000   1.0000   1.0000   1.0000
     1.0000   1.0000   1.0000   1.0003   0.6221   0.0149   0.0105   0.0002
     0.0002   0.0000   0.0000   0.0000   0.0000   0.0000   0.0000   0.0000
     0.0000   0.0000   0.0000   0.0000   0.0000

          k = 0.3000 0.0949 0.0000 (151964 PWs)   bands (ev):

   -48.9438 -48.9432 -48.9429 -48.9423 -48.6573 -48.6564 -48.6562 -48.6553
   -48.4583 -48.4519 -48.4502 -48.4470 -48.4451 -48.4444 -48.4436 -48.4429
   -48.4420 -48.4407 -48.4406 -48.4388  -5.0859  -4.6478  -4.0260  -3.9896
    -3.5779  -3.2422  -2.8948  -2.4458  -2.1198  -1.8623  -1.6680  -1.5107
    -1.4574  -1.3401  -1.2030  -1.0344  -0.8802  -0.6278  -0.5565  -0.4882
    -0.4845  -0.1626  -0.1022   0.0354   0.2044

     occupation numbers 
     1.0000   1.0000   1.0000   1.0000   1.0000   1.0000   1.0000   1.0000
     1.0000   1.0000   1.0000   1.0000   1.0000   1.0000   1.0000   1.0000
     1.0000   1.0000   1.0000   1.0000   1.0000   1.0000   1.0000   1.0000
     1.0000   1.0000   1.0000   1.0000   1.0771   0.2205   0.0013   0.0000
     0.0000   0.0000   0.0000   0.0000   0.0000   0.0000   0.0000   0.0000
     0.0000   0.0000   0.0000   0.0000   0.0000

          k = 0.3000 0.2003 0.0000 (152028 PWs)   bands (ev):

   -48.9438 -48.9432 -48.9429 -48.9423 -48.6573 -48.6564 -48.6562 -48.6553
   -48.4578 -48.4523 -48.4499 -48.4472 -48.4454 -48.4446 -48.4436 -48.4434
   -48.4419 -48.4407 -48.4406 -48.4382  -5.0114  -4.5715  -4.1100  -3.9096
    -3.6636  -3.1580  -2.9833  -2.3976  -2.3642  -2.2080  -1.9597  -1.4428
    -1.4121  -1.2508  -1.2278  -0.8113  -0.7813  -0.6078  -0.5647  -0.3343
    -0.2343  -0.1645   0.0209   0.2213   0.3080

     occupation numbers 
     1.0000   1.0000   1.0000   1.0000   1.0000   1.0000   1.0000   1.0000
[...]
     1.0000   1.0000   1.0000   1.0000   1.0000   1.0000   1.0000   1.0000
     1.0000   1.0000   1.0000   1.0000   1.0000   1.0000   1.0000   1.0000
     1.0000   1.0000   1.0000   1.0000   1.0000   1.0000   1.0128   1.0128
     1.0218   1.0218   0.0000   0.0000   0.0000   0.0000   0.0000   0.0000
     0.0000   0.0000   0.0000   0.0000   0.0000

     the Fermi energy is    -1.9040 ev

!    total energy              =    -300.80321956 Ry
     total all-electron energy =      -300.803382 Ry
     estimated scf accuracy    <          4.4E-13 Ry

!    total charge of GC-SCF    =      -2.81906139 e
     smearing contrib. (-TS)   =      -0.00063243 Ry
     internal energy E=F+TS    =    -300.80258714 Ry

     The total energy is F=E-TS. E is the sum of the following terms:
     one-electron contribution =   -3640.69801486 Ry
     hartree contribution      =    1789.87714687 Ry
     xc contribution           =     -72.46002703 Ry
     ewald contribution        =    1534.05613347 Ry
     one-center paw contrib.   =       1.76464268 Ry
      -> PAW hartree energy AE =       7.42394578 Ry
      -> PAW hartree energy PS =      -7.20093807 Ry
      -> PAW xc energy AE      =      -3.48359393 Ry
      -> PAW xc energy PS      =       3.34893461 Ry
      -> total E_H with PAW    =    1790.10015458 Ry
      -> total E_XC with PAW   =     -72.59468635 Ry
     pot.stat. contrib. (-muN) =       0.39450345 Ry
     electrostatic embedding   =      -2.20301117 Ry
     cavitation energy         =       0.01492078 Ry
     electrolyte free energy   =      -0.03299841 Ry
     correction to one-el term =      88.48411707 Ry

     WARNING: you are using the parabolic pbc correction;
              the potential shift above must be added to 
              band and Fermi energies.

     convergence has been achieved in  19 iterations
     The dielectric solvent contribution to forces
     atom    1 type  1   force =     0.00000299   -0.01308542    0.12989404
     atom    2 type  1   force =     0.00000031    0.00441413    0.07838367
     atom    3 type  1   force =     0.00000080   -0.00155716    0.05374335
     atom    4 type  1   force =    -0.00000029    0.00010663    0.01362050
     atom    5 type  1   force =    -0.00000038   -0.00010567   -0.01362229
     atom    6 type  1   force =    -0.00000022    0.00155321   -0.05376457
     atom    7 type  1   force =    -0.00000059   -0.00440603   -0.07840558
     atom    8 type  1   force =    -0.00000336    0.01307730   -0.12994196
     atom    9 type  1   force =     0.00000375   -0.00900567   -0.08642382
     atom   10 type  1   force =    -0.00000134    0.00902964    0.08639322
     atom   11 type  1   force =     0.00000158   -0.01308651    0.12989246
     atom   12 type  1   force =     0.00000018    0.00441377    0.07838473
     atom   13 type  1   force =    -0.00000018   -0.00155709    0.05374189
     atom   14 type  1   force =     0.00000055    0.00010697    0.01361730
     atom   15 type  1   force =     0.00000011   -0.00010552   -0.01361962
     atom   16 type  1   force =    -0.00000039    0.00155351   -0.05376590
     atom   17 type  1   force =     0.00000008   -0.00440501   -0.07840320
     atom   18 type  1   force =    -0.00000124    0.01307797   -0.12994388
     atom   19 type  1   force =     0.00000233   -0.00900659   -0.08643155
     atom   20 type  1   force =    -0.00000469    0.00902589    0.08638781


     Forces acting on atoms (cartesian axes, Ry/au):

     atom    1 type  1   force =     0.00000055    0.00006389   -0.00000612
     atom    2 type  1   force =    -0.00000589    0.00037440   -0.00002781
     atom    3 type  1   force =    -0.00000105   -0.00025577    0.00007168
     atom    4 type  1   force =     0.00000614   -0.00024566    0.00033272
     atom    5 type  1   force =    -0.00000036    0.00023392   -0.00028996
     atom    6 type  1   force =    -0.00000251    0.00025062   -0.00005447
     atom    7 type  1   force =     0.00000164   -0.00038131    0.00002641
     atom    8 type  1   force =    -0.00000206   -0.00005100   -0.00002260
     atom    9 type  1   force =    -0.00000199   -0.00020047    0.00006624
     atom   10 type  1   force =    -0.00000020    0.00021458   -0.00010382
     atom   11 type  1   force =     0.00000332    0.00006498   -0.00000354
     atom   12 type  1   force =    -0.00000303    0.00038145   -0.00002129
     atom   13 type  1   force =     0.00000836   -0.00025175    0.00007163
     atom   14 type  1   force =    -0.00000097   -0.00025013    0.00032556
     atom   15 type  1   force =    -0.00000392    0.00023211   -0.00028856
     atom   16 type  1   force =    -0.00000519    0.00024406   -0.00005909
     atom   17 type  1   force =     0.00000723   -0.00038384    0.00003344
     atom   18 type  1   force =    -0.00000293   -0.00005144   -0.00001884
     atom   19 type  1   force =     0.00000107   -0.00019982    0.00007094
     atom   20 type  1   force =     0.00000180    0.00021120   -0.00010250
     The non-local contrib.  to forces
     atom    1 type  1   force =     0.00000383    0.00607642   -0.02463647
     atom    2 type  1   force =     0.00006336    0.00121563    0.00387563
     atom    3 type  1   force =     0.00001481    0.00056646    0.00067896
     atom    4 type  1   force =     0.00001190   -0.00176344   -0.00186869
     atom    5 type  1   force =    -0.00000363    0.00176935    0.00192092
     atom    6 type  1   force =    -0.00001946   -0.00054656   -0.00064984
     atom    7 type  1   force =    -0.00007025   -0.00123458   -0.00389101
     atom    8 type  1   force =    -0.00000569   -0.00607129    0.02459320
     atom    9 type  1   force =    -0.00001868    0.00580342    0.03769450
     atom   10 type  1   force =     0.00001265   -0.00580593   -0.03772254
     atom   11 type  1   force =     0.00000973    0.00607574   -0.02462953
     atom   12 type  1   force =     0.00006914    0.00121848    0.00388098
     atom   13 type  1   force =     0.00002835    0.00056727    0.00068266
     atom   14 type  1   force =     0.00000095   -0.00176451   -0.00187469
     atom   15 type  1   force =    -0.00001032    0.00176970    0.00191125
     atom   16 type  1   force =    -0.00002347   -0.00055001   -0.00065622
     atom   17 type  1   force =    -0.00006255   -0.00123742   -0.00388485
     atom   18 type  1   force =    -0.00000679   -0.00606941    0.02459331
     atom   19 type  1   force =    -0.00001147    0.00580334    0.03770026
     atom   20 type  1   force =     0.00001781   -0.00580696   -0.03772439
     The ionic contribution  to forces
     atom    1 type  1   force =    -0.00000855    0.06714779   -9.69336651
     atom    2 type  1   force =    -0.00025659   -0.03404907   -6.19715915
     atom    3 type  1   force =    -0.00012194    0.01471207   -4.34401121
     atom    4 type  1   force =    -0.00004612   -0.01549492   -1.02862549
     atom    5 type  1   force =     0.00021371    0.01537167    1.02899066
     atom    6 type  1   force =     0.00001211   -0.01453820    4.34470043
     atom    7 type  1   force =     0.00014193    0.03371504    6.19682226
     atom    8 type  1   force =    -0.00003011   -0.06695884    9.69350580
     atom    9 type  1   force =     0.00005150    0.04444129   11.04711662
     atom   10 type  1   force =    -0.00011579   -0.04431330  -11.04779874
     atom   11 type  1   force =     0.00007024    0.06716694   -9.69337425
     atom   12 type  1   force =    -0.00013712   -0.03393024   -6.19716870
     atom   13 type  1   force =     0.00015455    0.01478264   -4.34386622
     atom   14 type  1   force =    -0.00023799   -0.01559307   -1.02848369
     atom   15 type  1   force =     0.00007985    0.01533766    1.02871241
     atom   16 type  1   force =    -0.00004737   -0.01464676    4.34472503
     atom   17 type  1   force =     0.00025110    0.03367281    6.19672571
     atom   18 type  1   force =    -0.00004226   -0.06693379    9.69333759
     atom   19 type  1   force =     0.00013939    0.04444784   11.04704709
     atom   20 type  1   force =    -0.00007054   -0.04433758  -11.04782962
     The local contribution  to forces
     atom    1 type  1   force =     0.00000226   -0.06007472    9.58810096
     atom    2 type  1   force =     0.00018702    0.02879386    6.11487210
     atom    3 type  1   force =     0.00010530   -0.01397718    4.28966029
     atom    4 type  1   force =     0.00004066    0.01690599    1.01720619
     atom    5 type  1   force =    -0.00021006   -0.01680135   -1.01757940
     atom    6 type  1   force =     0.00000507    0.01378223   -4.29034041
     atom    7 type  1   force =    -0.00006944   -0.02845588   -6.11449953
     atom    8 type  1   force =     0.00003710    0.05990161   -9.58817781
     atom    9 type  1   force =    -0.00003860   -0.04144012  -10.99831679
     atom   10 type  1   force =     0.00010429    0.04130477   10.99901994
     atom   11 type  1   force =    -0.00007822   -0.06009101    9.58810593
     atom   12 type  1   force =     0.00006476    0.02867961    6.11488177
     atom   13 type  1   force =    -0.00017435   -0.01404461    4.28951299
     atom   14 type  1   force =     0.00023554    0.01700039    1.01706643
     atom   15 type  1   force =    -0.00007356   -0.01676965   -1.01729276
     atom   16 type  1   force =     0.00006603    0.01388739   -4.29036192
     atom   17 type  1   force =    -0.00018139   -0.02841437   -6.11440447
     atom   18 type  1   force =     0.00004736    0.05987359   -9.58800400
     atom   19 type  1   force =    -0.00012919   -0.04144503  -10.99824058
     atom   20 type  1   force =     0.00005925    0.04133048   10.99905941
     The core correction contribution to forces
     atom    1 type  1   force =     0.00000000    0.00000000    0.00000000
     atom    2 type  1   force =     0.00000000    0.00000000    0.00000000
     atom    3 type  1   force =     0.00000000    0.00000000    0.00000000
     atom    4 type  1   force =     0.00000000    0.00000000    0.00000000
     atom    5 type  1   force =     0.00000000    0.00000000    0.00000000
     atom    6 type  1   force =     0.00000000    0.00000000    0.00000000
     atom    7 type  1   force =     0.00000000    0.00000000    0.00000000
     atom    8 type  1   force =     0.00000000    0.00000000    0.00000000
     atom    9 type  1   force =     0.00000000    0.00000000    0.00000000
     atom   10 type  1   force =     0.00000000    0.00000000    0.00000000
     atom   11 type  1   force =     0.00000000    0.00000000    0.00000000
     atom   12 type  1   force =     0.00000000    0.00000000    0.00000000
     atom   13 type  1   force =     0.00000000    0.00000000    0.00000000
     atom   14 type  1   force =     0.00000000    0.00000000    0.00000000
     atom   15 type  1   force =     0.00000000    0.00000000    0.00000000
     atom   16 type  1   force =     0.00000000    0.00000000    0.00000000
     atom   17 type  1   force =     0.00000000    0.00000000    0.00000000
     atom   18 type  1   force =     0.00000000    0.00000000    0.00000000
     atom   19 type  1   force =     0.00000000    0.00000000    0.00000000
     atom   20 type  1   force =     0.00000000    0.00000000    0.00000000
     The Hubbard contrib.    to forces
     atom    1 type  1   force =     0.00000000    0.00000000    0.00000000
     atom    2 type  1   force =     0.00000000    0.00000000    0.00000000
     atom    3 type  1   force =     0.00000000    0.00000000    0.00000000
     atom    4 type  1   force =     0.00000000    0.00000000    0.00000000
     atom    5 type  1   force =     0.00000000    0.00000000    0.00000000
     atom    6 type  1   force =     0.00000000    0.00000000    0.00000000
     atom    7 type  1   force =     0.00000000    0.00000000    0.00000000
     atom    8 type  1   force =     0.00000000    0.00000000    0.00000000
     atom    9 type  1   force =     0.00000000    0.00000000    0.00000000
     atom   10 type  1   force =     0.00000000    0.00000000    0.00000000
     atom   11 type  1   force =     0.00000000    0.00000000    0.00000000
     atom   12 type  1   force =     0.00000000    0.00000000    0.00000000
     atom   13 type  1   force =     0.00000000    0.00000000    0.00000000
     atom   14 type  1   force =     0.00000000    0.00000000    0.00000000
     atom   15 type  1   force =     0.00000000    0.00000000    0.00000000
     atom   16 type  1   force =     0.00000000    0.00000000    0.00000000
     atom   17 type  1   force =     0.00000000    0.00000000    0.00000000
     atom   18 type  1   force =     0.00000000    0.00000000    0.00000000
     atom   19 type  1   force =     0.00000000    0.00000000    0.00000000
     atom   20 type  1   force =     0.00000000    0.00000000    0.00000000
     The SCF correction term to forces
     atom    1 type  1   force =     0.00000001   -0.00000017    0.00000188
     atom    2 type  1   force =     0.00000001   -0.00000015   -0.00000005
     atom    3 type  1   force =    -0.00000000    0.00000004    0.00000032
     atom    4 type  1   force =    -0.00000001    0.00000010    0.00000023
     atom    5 type  1   force =    -0.00000000   -0.00000007    0.00000017
     atom    6 type  1   force =    -0.00000000   -0.00000006   -0.00000005
     atom    7 type  1   force =     0.00000001    0.00000015    0.00000029
     atom    8 type  1   force =     0.00000001    0.00000022   -0.00000181
     atom    9 type  1   force =     0.00000004    0.00000063   -0.00000424
     atom   10 type  1   force =    -0.00000001   -0.00000059    0.00000431
     atom   11 type  1   force =     0.00000000   -0.00000018    0.00000187
     atom   12 type  1   force =     0.00000002   -0.00000016   -0.00000005
     atom   13 type  1   force =    -0.00000000    0.00000003    0.00000033
     atom   14 type  1   force =    -0.00000000    0.00000010    0.00000024
     atom   15 type  1   force =     0.00000001   -0.00000008    0.00000019
     atom   16 type  1   force =     0.00000001   -0.00000005   -0.00000005
     atom   17 type  1   force =    -0.00000001    0.00000015    0.00000027
     atom   18 type  1   force =     0.00000000    0.00000021   -0.00000183
     atom   19 type  1   force =     0.00000002    0.00000063   -0.00000425
     atom   20 type  1   force =    -0.00000002   -0.00000062    0.00000431

     Total force =     0.001297     Total SCF correction =     0.000009
     Energy error            =      4.3E-06 Ry
     Gradient error          =      3.8E-04 Ry/Bohr

     bfgs converged in  27 scf cycles and  26 bfgs steps
     (criteria: energy <  1.0E-05 Ry, force <  3.9E-04 Ry/Bohr)

     End of BFGS Geometry Optimization

     Final energy             =    -300.8032195639 Ry

     File ./Li/Lithium.bfgs deleted, as requested
Begin final coordinates

ATOMIC_POSITIONS (angstrom)
Li               1.7192352853        2.2418252812       20.9264728453
Li               0.0021047714        4.2839283921       22.4057680050
Li               0.0008552938        1.1627633265       23.1597220929
Li               1.7184383539        3.1849225151       24.5344417319
Li               1.7166472478        0.0745487463       25.3970808719
Li              -0.0007921174        2.0963601297       26.7726731451
Li               1.7154885166        4.4068314474       27.5267906216
Li               1.7159492740        1.0164350657       29.0073622326
Li              -0.0026215574        3.4421318038       29.7570285142
Li               3.4378173866       -0.1839667576       20.1768053392
Li               5.1543208465        2.2418335441       20.9264245424
Li               3.4372805756        4.2837859898       22.4057059118
Li               3.4359034460        1.1626806659       23.1597554336
Li               5.1537122764        3.1849898734       24.5345656040
Li               5.1518029332        0.0745815052       25.3969980581
Li               3.4343493611        2.0964646496       26.7727292839
Li               5.1505951796        4.4068402191       27.5267004056
Li               5.1511558625        1.0164651852       29.0072448978
Li               3.4324895583        3.4421049801       29.7569263517
Li               6.8729261096       -0.1838487881       20.1767589956
End final coordinates



     Writing all to output data dir ./Li/Lithium.save/ :
     XML data file
     init_run     :     11.33s CPU     19.18s WALL (       1 calls)
     electrons    :   6214.77s CPU   8275.78s WALL (      27 calls)
     update_pot   :      1.50s CPU      1.85s WALL (      26 calls)
     forces       :     78.79s CPU     84.67s WALL (      27 calls)

     Called by init_run:
     wfcinit      :      1.51s CPU      2.21s WALL (       1 calls)
     wfcinit:wfcr :      1.45s CPU      2.14s WALL (      31 calls)
     potinit      :      0.71s CPU      0.77s WALL (       1 calls)
     hinit0       :      5.40s CPU     12.36s WALL (       1 calls)

     Called by electrons:
     c_bands      :   4510.46s CPU   6171.01s WALL (     495 calls)
     sum_band     :    356.67s CPU    502.99s WALL (     495 calls)
     v_of_rho     :     19.52s CPU     23.74s WALL (     496 calls)
     v_h          :      1.95s CPU      2.26s WALL (     496 calls)
     v_xc         :     17.56s CPU     21.47s WALL (     496 calls)
     newd         :     12.94s CPU     22.55s WALL (     496 calls)
     PAW_pot      :      3.62s CPU      5.39s WALL (     522 calls)
     mix_rho      :     59.06s CPU     75.70s WALL (     495 calls)

     Called by c_bands:
     init_us_2    :     20.73s CPU     24.03s WALL (   32364 calls)
     cegterg      :   4181.17s CPU   5333.32s WALL (   15540 calls)

     Called by sum_band:
     sum_band:wei :      0.94s CPU      1.15s WALL (     495 calls)
     sum_band:loo :    344.95s CPU    489.11s WALL (     495 calls)
     sum_band:buf :      2.88s CPU      3.32s WALL (   15345 calls)
     sum_band:ini :      7.16s CPU      7.90s WALL (   15345 calls)
     sum_band:cal :     41.11s CPU     50.90s WALL (   16151 calls)
     sum_band:bec :      0.85s CPU      1.00s WALL (   16151 calls)
     addusdens    :      7.59s CPU      8.00s WALL (     495 calls)
                                        0.00s GPU  (     495 calls)
     addusd:skk   :      1.15s CPU      1.19s WALL (     495 calls)
                                        0.00s GPU  (     495 calls)

     Called by *egterg:
     cdiaghg      :    984.99s CPU   1030.03s WALL (  157298 calls)
     cegterg:over :    214.95s CPU    240.83s WALL (  143497 calls)
     cegterg:upda :    181.76s CPU    189.56s WALL (  143497 calls)
     cegterg:last :     40.52s CPU     41.53s WALL (   18489 calls)
     h_psi        :   2539.50s CPU   3594.20s WALL (  159068 calls)
     s_psi        :    130.64s CPU    140.44s WALL (  159068 calls)
     g_psi        :      3.02s CPU      3.24s WALL (  143497 calls)

     Called by h_psi:
     h_psi:calbec :    210.54s CPU    268.03s WALL (  159068 calls)
     vloc_psi     :   2182.85s CPU   3159.09s WALL (  159068 calls)
                                        0.00s GPU  (  159068 calls)
     add_vuspsi   :    134.70s CPU    154.51s WALL (  159068 calls)

     General routines
     calbec       :    258.18s CPU    326.23s WALL (  178567 calls)
     fft          :     21.12s CPU     32.82s WALL (    6500 calls)
     ffts         :     46.52s CPU     59.89s WALL (   55357 calls)
     fftw         :   2380.76s CPU   3454.83s WALL ( 5762667 calls)
     interpolate  :      2.37s CPU      2.78s WALL (     496 calls)

     Parallel routines

     PAW routines
     PAW_pot      :      3.62s CPU      5.39s WALL (     522 calls)

     Environ routines

     PWSCF        :      1h46m CPU      2h21m WALL


   This run was terminated on:  21:36:55   4Jan2025            

=------------------------------------------------------------------------------=
   JOB DONE.
=------------------------------------------------------------------------------=
