
     Program PWSCF v.7.4 starts on  2Jan2025 at 10:54:35 

     This program is part of the open-source Quantum ESPRESSO suite
     for quantum simulation of materials; please cite
         "P. Giannozzi et al., J. Phys.:Condens. Matter 21 395502 (2009);
         "P. Giannozzi et al., J. Phys.:Condens. Matter 29 465901 (2017);
         "P. Giannozzi et al., J. Chem. Phys. 152 154105 (2020);
          URL http://www.quantum-espresso.org", 
     in publications or presentations arising from this work. More details at
     http://www.quantum-espresso.org/quote

     Parallel version (MPI & OpenMP), running on     512 processor cores
     Number of MPI processes:               512
     Threads/MPI process:                     1

     MPI processes distributed on     4 nodes
     231121 MiB available memory on the printing compute node when the environment starts

     Reading input from espresso.pwi
Warning: card &CELL ignored
Warning: card    PRESS_CONV_THR   = 0.1 ignored
Warning: card    CELL_DOFREE      = 'ALL' ignored
Warning: card / ignored
Warning: card &FCP ignored
Warning: card / ignored
Warning: card &RISM ignored
Warning: card / ignored

     Current dimensions of program PWSCF are:
     Max number of different atomic species (ntypx) = 10
     Max number of k-points (npk) =  40000
     Max angular momentum in pseudopotentials (lmaxx) =  4

     IMPORTANT: XC functional enforced from input :
     Exchange-correlation= PBE
                           (   1   4   3   4   0   0   0)
     Any further DFT definition will be discarded
     Please, verify this is what you really want


     Reading input from environ.in:
     * using ionic solvent mode
     * setting boundary derivatives method to SSCS default
     * setting electrolyte-boundary derivatives method to SSCS default

Environ Warning (1001): card EOF ignored

     
     Found identity + (  0.5000 -0.0000 -0.0000) symmetry
     This is a supercell, fractional translations are disabled

     K-points division:     npool     =       2
     R & G space division:  proc/nbgrp/npool/nimage =     256
     Subspace diagonalization in iterative solution of the eigenvalue problem:
     a serial algorithm will be used


     Parallelization info
     --------------------
     sticks:   dense  smooth     PW     G-vecs:    dense   smooth      PW
     Min          75      30      8                44583    11270    1514
     Max          76      31      9                44636    11296    1560
     Sum       19367    7745   2063             11420683  2888861  395615

     Using Slab Decomposition



     bravais-lattice index     =            8
     lattice parameter (alat)  =      12.9830  a.u.
     unit-cell volume          =   29886.2289 (a.u.)^3
     number of atoms/cell      =           52
     number of atomic types    =            1
     number of electrons       =       156.00
     number of Kohn-Sham states=          117
     kinetic-energy cutoff     =      80.0000  Ry
     charge density cutoff     =     800.0000  Ry
     scf convergence threshold =      1.0E-06
     mixing beta               =       0.2000
     number of iterations used =            8  local-TF  mixing
     energy convergence thresh.=      1.0E-05
     force convergence thresh. =      3.9E-04
     Exchange-correlation= PBE
                           (   1   4   3   4   0   0   0)
     nstep                     =          999


     ================================================================================

                                  Environ Setup Summary

     ================================================================================

     Please cite

          O. Andreussi, I. Dabo and N. Marzari, J. Chem. Phys. 136, 064102 (2012)
          F. Nattino, M. Truscott, N. Marzari, and O. Andreussi, J. Chem. Phys. 150, 041722 (2019)

     in publications or presentations arising from this work.

     ================================================================================

     Parameters
     ==========

     compensation onset threshold      =               0.1000E+00
     static permittivity               =                    89.90
     surface tension in input (dyn/cm) =                    37.30
     surface tension in internal units =               0.4792E-04

     Solvent Boundary
     ================

     solvent mode                      =                    ionic
     derivatives method                =                   lowmem
     electrolyte derivatives method    =                   lowmem
     numerical core for derivatives    =                      fft
     switching function adopted        =                     SCCS
     density limit for vacuum region   =               0.5000E-02
     density limit for bulk solvent    =               0.1000E-03
     soft-sphere radius mode           =                    bondi
     soft-sphere softness              =                     0.50
     alpha                             =                     1.32

     Electrostatic Setup
     ===================

     electrostatic problem to solve    =                    modpb
     numerical solver adopted          =                   newton
     type of auxiliary density adopted =                     none
     numerical core for poisson        =                      fft
     adopting a nested solver scheme
     inner solver                      =                       cg
     inner core                        =                      fft
     type of pbc corrections           =                parabolic
     numerical core for corrections    =                      1da

     ================================================================================


     >>>>> Grand-Canonical SCF is activated <<<<<
     Initial Total Charge  =     0.000000 e
     Target Fermi Energy   =    -2.904000 eV
     Thr. of Fermi Energy  =     0.001000 eV
     Wave-shift of Kerker  =     0.400000 bohr^-1
     Wave-shift of Hartree =     1.500000 bohr^-1
     Mixing Rate of Fermi  =     0.050000

     celldm(1)=  12.983009  celldm(2)=   1.802776  celldm(3)=   7.575360
     celldm(4)=   0.000000  celldm(5)=   0.000000  celldm(6)=   0.000000

     crystal axes: (cart. coord. in units of alat)
               a(1) = (   1.000000   0.000000   0.000000 )  
               a(2) = (   0.000000   1.802776   0.000000 )  
               a(3) = (   0.000000   0.000000   7.575360 )  

     reciprocal axes: (cart. coord. in units 2 pi/alat)
               b(1) = (  1.000000  0.000000  0.000000 )  
               b(2) = (  0.000000  0.554700  0.000000 )  
               b(3) = (  0.000000  0.000000  0.132007 )  


     PseudoPot. # 1 for Li read from file:
     /work/e89/e89/ba3g18/Repos/Pseudopotentials/Pslibrary/Li.pbe-sl-kjpaw_psl.1.0.0.UPF
     MD5 check sum: 3f4d2cafebb47c6c3aa8ed472e6f074d
     Pseudo is Projector augmented-wave, Zval =  3.0
     Generated using 'atomic' code by A. Dal Corso  v.7.4
     Shape of augmentation charge: PSQ
     Using radial grid of 1017 points,  4 beta functions with: 
                l(1) =   0
                l(2) =   0
                l(3) =   1
                l(4) =   1
     Q(r) pseudized with 0 coefficients 


     atomic species   valence    mass     pseudopotential
     Li                3.00     6.94000     Li( 1.00)

      2 Sym. Ops. (no inversion) found


                                    s                        frac. trans.

      isym =  1     identity                                     

 cryst.   s( 1) = (     1          0          0      )
                  (     0          1          0      )
                  (     0          0          1      )

 cart.    s( 1) = (  1.0000000  0.0000000  0.0000000 )
                  (  0.0000000  1.0000000  0.0000000 )
                  (  0.0000000  0.0000000  1.0000000 )


      isym =  2     inv. 180 deg rotation - cart. axis [1,0,0]   

 cryst.   s( 2) = (    -1          0          0      )
                  (     0          1          0      )
                  (     0          0          1      )

 cart.    s( 2) = ( -1.0000000  0.0000000  0.0000000 )
                  (  0.0000000  1.0000000  0.0000000 )
                  (  0.0000000  0.0000000  1.0000000 )


     point group C_s (m)    
     there are  2 classes
     the character table:

       E     s    
A'     1.00  1.00
A''    1.00 -1.00

     the symmetry operations in each class and the name of the first element:

     E        1
          identity                                               
     s        2
          inv. 180 deg rotation - cart. axis [1,0,0]             

   Cartesian axes

     site n.     atom                  positions (alat units)
         1        Li     tau(   1) = (  -0.0000000   1.1565666   4.5290623  )
         2        Li     tau(   2) = (  -0.0000000   1.5196834   4.2580893  )
         3        Li     tau(   3) = (  -0.0000000   0.4125476   4.3393654  )
         4        Li     tau(   4) = (  -0.0000000   0.8381985   4.1091470  )
         5        Li     tau(   5) = (  -0.0000000   1.2439183   3.8233970  )
         6        Li     tau(   6) = (  -0.0000000   1.6531174   3.5646117  )
         7        Li     tau(   7) = (  -0.0000000   0.1343946   3.9643155  )
         8        Li     tau(   8) = (  -0.0000000   0.5626870   3.6641920  )
         9        Li     tau(   9) = (  -0.0000000   0.9693911   3.3922369  )
        10        Li     tau(  10) = (  -0.0000000   1.3805557   3.1228449  )
        11        Li     tau(  11) = (  -0.0000000   0.2887334   3.2582292  )
        12        Li     tau(  12) = (  -0.0000000   0.6067691   2.9656408  )
        13        Li     tau(  13) = (  -0.0000000   0.1345181   4.6807896  )
        14        Li     tau(  14) = (   0.2500000   1.1800719   4.1831249  )
        15        Li     tau(  15) = (   0.2500000   1.5867784   3.9111704  )
        16        Li     tau(  16) = (   0.2500000   0.4963473   4.0107507  )
        17        Li     tau(  17) = (   0.2500000   0.9055470   3.7519657  )
        18        Li     tau(  18) = (   0.2500000   1.3112661   3.4662157  )
        19        Li     tau(  19) = (   0.2500000   1.7369144   3.2359965  )
        20        Li     tau(  20) = (   0.2500000   0.2122942   3.6110458  )
        21        Li     tau(  21) = (   0.2500000   0.6297803   3.3172727  )
        22        Li     tau(  22) = (   0.2500000   0.9928939   3.0462992  )
        23        Li     tau(  23) = (   0.2500000   1.5426925   4.6097197  )
        24        Li     tau(  24) = (   0.2500000   0.2121678   2.8945711  )
        25        Li     tau(  25) = (   0.2500000   0.7689066   4.4525171  )
        26        Li     tau(  26) = (   0.2500000   0.0579524   4.3171315  )
        27        Li     tau(  27) = (   0.5000000   1.1565666   4.5290622  )
        28        Li     tau(  28) = (   0.5000000   1.5196834   4.2580893  )
        29        Li     tau(  29) = (   0.5000000   0.4125477   4.3393654  )
        30        Li     tau(  30) = (   0.5000000   0.8381985   4.1091469  )
        31        Li     tau(  31) = (   0.5000000   1.2439183   3.8233970  )
        32        Li     tau(  32) = (   0.5000000   1.6531174   3.5646117  )
        33        Li     tau(  33) = (   0.5000000   0.1343945   3.9643155  )
        34        Li     tau(  34) = (   0.5000000   0.5626870   3.6641921  )
        35        Li     tau(  35) = (   0.5000000   0.9693911   3.3922369  )
        36        Li     tau(  36) = (   0.5000000   1.3805557   3.1228449  )
        37        Li     tau(  37) = (   0.5000000   0.2887334   3.2582292  )
        38        Li     tau(  38) = (   0.5000000   0.6067691   2.9656408  )
        39        Li     tau(  39) = (   0.5000000   0.1345181   4.6807896  )
        40        Li     tau(  40) = (   0.7500000   1.1800719   4.1831249  )
        41        Li     tau(  41) = (   0.7500000   1.5867784   3.9111704  )
        42        Li     tau(  42) = (   0.7500000   0.4963473   4.0107507  )
        43        Li     tau(  43) = (   0.7500000   0.9055470   3.7519657  )
        44        Li     tau(  44) = (   0.7500000   1.3112661   3.4662157  )
        45        Li     tau(  45) = (   0.7500000   1.7369144   3.2359965  )
        46        Li     tau(  46) = (   0.7500000   0.2122942   3.6110458  )
        47        Li     tau(  47) = (   0.7500000   0.6297803   3.3172727  )
        48        Li     tau(  48) = (   0.7500000   0.9928939   3.0462992  )
        49        Li     tau(  49) = (   0.7500000   1.5426925   4.6097197  )
        50        Li     tau(  50) = (   0.7500000   0.2121678   2.8945711  )
        51        Li     tau(  51) = (   0.7500000   0.7689066   4.4525171  )
        52        Li     tau(  52) = (   0.7500000   0.0579524   4.3171315  )

   Crystallographic axes

     site n.     atom                  positions (cryst. coord.)
         1        Li     tau(   1) = (  0.0000000  0.6415476  0.5978676  )
         2        Li     tau(   2) = (  0.0000000  0.8429685  0.5620973  )
         3        Li     tau(   3) = (  0.0000000  0.2288402  0.5728263  )
         4        Li     tau(   4) = (  0.0000000  0.4649488  0.5424359  )
         5        Li     tau(   5) = (  0.0000000  0.6900016  0.5047149  )
         6        Li     tau(   6) = (  0.0000000  0.9169844  0.4705534  )
         7        Li     tau(   7) = (  0.0000000  0.0745487  0.5233171  )
         8        Li     tau(   8) = (  0.0000000  0.3121225  0.4836987  )
         9        Li     tau(   9) = (  0.0000000  0.5377213  0.4477988  )
        10        Li     tau(  10) = (  0.0000000  0.7657943  0.4122372  )
        11        Li     tau(  11) = (  0.0000000  0.1601605  0.4301088  )
        12        Li     tau(  12) = (  0.0000000  0.3365749  0.3914851  )
        13        Li     tau(  13) = (  0.0000000  0.0746172  0.6178967  )
        14        Li     tau(  14) = (  0.2500000  0.6545860  0.5522015  )
        15        Li     tau(  15) = (  0.2500000  0.8801861  0.5163016  )
        16        Li     tau(  16) = (  0.2500000  0.2753239  0.5294469  )
        17        Li     tau(  17) = (  0.2500000  0.5023070  0.4952855  )
        18        Li     tau(  18) = (  0.2500000  0.7273594  0.4575645  )
        19        Li     tau(  19) = (  0.2500000  0.9634666  0.4271740  )
        20        Li     tau(  20) = (  0.2500000  0.1177596  0.4766831  )
        21        Li     tau(  21) = (  0.2500000  0.3493392  0.4379030  )
        22        Li     tau(  22) = (  0.2500000  0.5507584  0.4021326  )
        23        Li     tau(  23) = (  0.2500000  0.8557317  0.6085149  )
        24        Li     tau(  24) = (  0.2500000  0.1176895  0.3821034  )
        25        Li     tau(  25) = (  0.2500000  0.4265126  0.5877631  )
        26        Li     tau(  26) = (  0.2500000  0.0321462  0.5698913  )
        27        Li     tau(  27) = (  0.5000000  0.6415476  0.5978676  )
        28        Li     tau(  28) = (  0.5000000  0.8429685  0.5620973  )
        29        Li     tau(  29) = (  0.5000000  0.2288402  0.5728263  )
        30        Li     tau(  30) = (  0.5000000  0.4649488  0.5424359  )
        31        Li     tau(  31) = (  0.5000000  0.6900016  0.5047149  )
        32        Li     tau(  32) = (  0.5000000  0.9169844  0.4705534  )
        33        Li     tau(  33) = (  0.5000000  0.0745487  0.5233171  )
        34        Li     tau(  34) = (  0.5000000  0.3121225  0.4836987  )
        35        Li     tau(  35) = (  0.5000000  0.5377213  0.4477988  )
        36        Li     tau(  36) = (  0.5000000  0.7657943  0.4122372  )
        37        Li     tau(  37) = (  0.5000000  0.1601605  0.4301088  )
        38        Li     tau(  38) = (  0.5000000  0.3365749  0.3914851  )
        39        Li     tau(  39) = (  0.5000000  0.0746172  0.6178967  )
        40        Li     tau(  40) = (  0.7500000  0.6545860  0.5522015  )
        41        Li     tau(  41) = (  0.7500000  0.8801861  0.5163016  )
        42        Li     tau(  42) = (  0.7500000  0.2753239  0.5294469  )
        43        Li     tau(  43) = (  0.7500000  0.5023070  0.4952855  )
        44        Li     tau(  44) = (  0.7500000  0.7273594  0.4575645  )
        45        Li     tau(  45) = (  0.7500000  0.9634666  0.4271740  )
        46        Li     tau(  46) = (  0.7500000  0.1177596  0.4766831  )
        47        Li     tau(  47) = (  0.7500000  0.3493392  0.4379030  )
        48        Li     tau(  48) = (  0.7500000  0.5507584  0.4021326  )
        49        Li     tau(  49) = (  0.7500000  0.8557317  0.6085149  )
        50        Li     tau(  50) = (  0.7500000  0.1176895  0.3821034  )
        51        Li     tau(  51) = (  0.7500000  0.4265126  0.5877631  )
        52        Li     tau(  52) = (  0.7500000  0.0321462  0.5698913  )

     number of k points=    24  Marzari-Vanderbilt smearing, width (Ry)=  0.0100
                       cart. coord. in units 2pi/alat
        k(    1) = (   0.0000000   0.0000000   0.0000000), wk =   0.0333333
        k(    2) = (   0.0000000   0.0924500   0.0000000), wk =   0.0666667
        k(    3) = (   0.0000000   0.1849000   0.0000000), wk =   0.0666667
        k(    4) = (   0.0000000  -0.2773500   0.0000000), wk =   0.0333333
        k(    5) = (   0.1000000   0.0000000   0.0000000), wk =   0.0666667
        k(    6) = (   0.1000000   0.0924500   0.0000000), wk =   0.1333333
        k(    7) = (   0.1000000   0.1849000   0.0000000), wk =   0.1333333
        k(    8) = (   0.1000000  -0.2773500   0.0000000), wk =   0.0666667
        k(    9) = (   0.2000000   0.0000000   0.0000000), wk =   0.0666667
        k(   10) = (   0.2000000   0.0924500   0.0000000), wk =   0.1333333
        k(   11) = (   0.2000000   0.1849000   0.0000000), wk =   0.1333333
        k(   12) = (   0.2000000  -0.2773500   0.0000000), wk =   0.0666667
        k(   13) = (   0.3000000   0.0000000   0.0000000), wk =   0.0666667
        k(   14) = (   0.3000000   0.0924500   0.0000000), wk =   0.1333333
        k(   15) = (   0.3000000   0.1849000   0.0000000), wk =   0.1333333
        k(   16) = (   0.3000000  -0.2773500   0.0000000), wk =   0.0666667
        k(   17) = (   0.4000000   0.0000000   0.0000000), wk =   0.0666667
        k(   18) = (   0.4000000   0.0924500   0.0000000), wk =   0.1333333
        k(   19) = (   0.4000000   0.1849000   0.0000000), wk =   0.1333333
        k(   20) = (   0.4000000  -0.2773500   0.0000000), wk =   0.0666667
        k(   21) = (  -0.5000000   0.0000000   0.0000000), wk =   0.0333333
        k(   22) = (  -0.5000000   0.0924500   0.0000000), wk =   0.0666667
        k(   23) = (  -0.5000000   0.1849000   0.0000000), wk =   0.0666667
        k(   24) = (  -0.5000000  -0.2773500   0.0000000), wk =   0.0333333

                       cryst. coord.
        k(    1) = (   0.0000000   0.0000000   0.0000000), wk =   0.0333333
        k(    2) = (   0.0000000   0.1666667   0.0000000), wk =   0.0666667
        k(    3) = (   0.0000000   0.3333333   0.0000000), wk =   0.0666667
        k(    4) = (   0.0000000  -0.5000000   0.0000000), wk =   0.0333333
        k(    5) = (   0.1000000   0.0000000   0.0000000), wk =   0.0666667
        k(    6) = (   0.1000000   0.1666667   0.0000000), wk =   0.1333333
        k(    7) = (   0.1000000   0.3333333   0.0000000), wk =   0.1333333
        k(    8) = (   0.1000000  -0.5000000   0.0000000), wk =   0.0666667
        k(    9) = (   0.2000000   0.0000000   0.0000000), wk =   0.0666667
        k(   10) = (   0.2000000   0.1666667   0.0000000), wk =   0.1333333
        k(   11) = (   0.2000000   0.3333333   0.0000000), wk =   0.1333333
        k(   12) = (   0.2000000  -0.5000000   0.0000000), wk =   0.0666667
        k(   13) = (   0.3000000   0.0000000   0.0000000), wk =   0.0666667
        k(   14) = (   0.3000000   0.1666667   0.0000000), wk =   0.1333333
        k(   15) = (   0.3000000   0.3333333   0.0000000), wk =   0.1333333
        k(   16) = (   0.3000000  -0.5000000   0.0000000), wk =   0.0666667
        k(   17) = (   0.4000000   0.0000000   0.0000000), wk =   0.0666667
        k(   18) = (   0.4000000   0.1666667   0.0000000), wk =   0.1333333
        k(   19) = (   0.4000000   0.3333333   0.0000000), wk =   0.1333333
        k(   20) = (   0.4000000  -0.5000000   0.0000000), wk =   0.0666667
        k(   21) = (  -0.5000000   0.0000000   0.0000000), wk =   0.0333333
        k(   22) = (  -0.5000000   0.1666667   0.0000000), wk =   0.0666667
        k(   23) = (  -0.5000000   0.3333333   0.0000000), wk =   0.0666667
        k(   24) = (  -0.5000000  -0.5000000   0.0000000), wk =   0.0333333

     Dense  grid: 11420683 G-vectors     FFT dimensions: ( 120, 216, 900)

     Smooth grid:  2888861 G-vectors     FFT dimensions: (  75, 135, 576)

     Dynamical RAM for                 wfc:       2.52 MB

     Dynamical RAM for     wfc (w. buffer):      32.72 MB

     Dynamical RAM for           str. fact:       0.68 MB

     Dynamical RAM for           local pot:       0.00 MB

     Dynamical RAM for          nlocal pot:       8.95 MB

     Dynamical RAM for                qrad:       0.65 MB

     Dynamical RAM for          rho,v,vnew:       4.42 MB

     Dynamical RAM for               rhoin:       1.47 MB

     Dynamical RAM for            rho*nmix:      10.90 MB

     Dynamical RAM for           G-vectors:       2.64 MB

     Dynamical RAM for          h,s,v(r/c):      10.03 MB

     Dynamical RAM for          <psi|beta>:       0.74 MB

     Dynamical RAM for                 psi:      10.07 MB

     Dynamical RAM for                hpsi:      10.07 MB

     Dynamical RAM for                spsi:      10.07 MB

     Dynamical RAM for      wfcinit/wfcrot:       5.35 MB

     Dynamical RAM for           addusdens:      32.69 MB

     Dynamical RAM for          addusforce:      67.46 MB

     Estimated static dynamical RAM per process >      56.85 MB

     Estimated max dynamical RAM per process >     174.27 MB

     Estimated total dynamical RAM >      64.88 GB

     Initial potential from superposition of free atoms

     starting charge     155.7603, renormalised to     156.0000

     negative rho (up, down):  5.060E-03 0.000E+00
     Starting wfcs are random
     Checking if some PAW data can be deallocated... 

     total cpu time spent up to now is       37.0 secs

     Self-consistent Calculation

     iteration #  1     ecut=    80.00 Ry     beta= 0.20
     Davidson diagonalization with overlap

---- Real-time Memory Report at c_bands before calling an iterative solver
           817 MiB given to the printing process from OS
             0 MiB allocation reported by mallinfo(arena+hblkhd)
        214754 MiB available memory on the node where the printing process lives
------------------
     c_bands:  1 eigenvalues not converged
     c_bands:  1 eigenvalues not converged
     c_bands:  1 eigenvalues not converged
     ethr =  1.00E-12,  avg # of iterations =141.9

     negative rho (up, down):  3.735E-03 0.000E+00

     total cpu time spent up to now is      470.3 secs

     total energy              =    -781.83432068 Ry
     estimated scf accuracy    <       0.18526156 Ry

     total charge of GC-SCF    =       0.03860930 e
     the Fermi energy          =      -4.43718662 eV
                        (error :       1.53318662 eV)
     electrostatic embedding   =       0.00000000 Ry
     cavitation energy         =       0.03572867 Ry
     electrolyte free energy   =       0.01286340 Ry
     correction to one-el term =      -0.00000000 Ry

     iteration #  2     ecut=    80.00 Ry     beta= 0.20
     Davidson diagonalization with overlap

---- Real-time Memory Report at c_bands before calling an iterative solver
           817 MiB given to the printing process from OS
             0 MiB allocation reported by mallinfo(arena+hblkhd)
        210138 MiB available memory on the node where the printing process lives
------------------
     ethr =  1.00E-05,  avg # of iterations = 11.7

     negative rho (up, down):  2.857E-03 0.000E+00

     add environment contribution to local potential

     total cpu time spent up to now is      520.7 secs

     total energy              =    -781.94292148 Ry
     estimated scf accuracy    <       0.06534758 Ry

     total charge of GC-SCF    =       0.07175747 e
     the Fermi energy          =      -3.45158398 eV
                        (error :       0.54758398 eV)
     electrostatic embedding   =       0.00031657 Ry
     cavitation energy         =       0.03572867 Ry
     electrolyte free energy   =       0.01286340 Ry
     correction to one-el term =      -0.00000000 Ry

     iteration #  3     ecut=    80.00 Ry     beta= 0.20
     Davidson diagonalization with overlap

---- Real-time Memory Report at c_bands before calling an iterative solver
           817 MiB given to the printing process from OS
             0 MiB allocation reported by mallinfo(arena+hblkhd)
        209916 MiB available memory on the node where the printing process lives
------------------
     ethr =  1.00E-05,  avg # of iterations = 28.8

     negative rho (up, down):  2.327E-03 0.000E+00

     add environment contribution to local potential

     total cpu time spent up to now is      607.9 secs

     total energy              =    -781.85208167 Ry
     estimated scf accuracy    <       0.04046763 Ry

     total charge of GC-SCF    =       0.04518352 e
     the Fermi energy          =      -3.01976511 eV
                        (error :       0.11576511 eV)
     electrostatic embedding   =      -0.03911416 Ry
     cavitation energy         =       0.03572867 Ry
     electrolyte free energy   =      -0.00541782 Ry
     correction to one-el term =      -2.19946973 Ry

     iteration #  4     ecut=    80.00 Ry     beta= 0.20
     Davidson diagonalization with overlap

---- Real-time Memory Report at c_bands before calling an iterative solver
           817 MiB given to the printing process from OS
             0 MiB allocation reported by mallinfo(arena+hblkhd)
        209635 MiB available memory on the node where the printing process lives
------------------
     ethr =  1.00E-05,  avg # of iterations = 12.8

     negative rho (up, down):  1.868E-03 0.000E+00

     add environment contribution to local potential

     total cpu time spent up to now is      663.4 secs

     total energy              =    -781.87348290 Ry
     estimated scf accuracy    <       0.02762714 Ry

     total charge of GC-SCF    =       0.06119056 e
     the Fermi energy          =      -3.39098242 eV
                        (error :       0.48698242 eV)
     electrostatic embedding   =      -0.03781538 Ry
     cavitation energy         =       0.03572867 Ry
     electrolyte free energy   =      -0.00710737 Ry
     correction to one-el term =       0.50472572 Ry

     iteration #  5     ecut=    80.00 Ry     beta= 0.20
     Davidson diagonalization with overlap

---- Real-time Memory Report at c_bands before calling an iterative solver
           817 MiB given to the printing process from OS
             0 MiB allocation reported by mallinfo(arena+hblkhd)
        209558 MiB available memory on the node where the printing process lives
------------------
     ethr =  1.00E-05,  avg # of iterations = 21.0

     negative rho (up, down):  1.556E-03 0.000E+00

     add environment contribution to local potential

     total cpu time spent up to now is      737.7 secs

     total energy              =    -781.86523952 Ry
     estimated scf accuracy    <       0.00801146 Ry

     total charge of GC-SCF    =       0.11819406 e
     the Fermi energy          =      -3.00417156 eV
                        (error :       0.10017156 eV)
     electrostatic embedding   =      -0.03429842 Ry
     cavitation energy         =       0.03572867 Ry
     electrolyte free energy   =      -0.00450815 Ry
     correction to one-el term =       0.59937796 Ry

     iteration #  6     ecut=    80.00 Ry     beta= 0.20
     Davidson diagonalization with overlap

---- Real-time Memory Report at c_bands before calling an iterative solver
           817 MiB given to the printing process from OS
             0 MiB allocation reported by mallinfo(arena+hblkhd)
        209578 MiB available memory on the node where the printing process lives
------------------
     ethr =  5.14E-06,  avg # of iterations = 22.2

     negative rho (up, down):  1.347E-03 0.000E+00

     add environment contribution to local potential

     total cpu time spent up to now is      812.3 secs

     total energy              =    -781.90964006 Ry
     estimated scf accuracy    <       0.00293235 Ry

     total charge of GC-SCF    =       0.18476276 e
     the Fermi energy          =      -2.72112046 eV
                        (error :       0.18287954 eV)
     electrostatic embedding   =      -0.03275300 Ry
     cavitation energy         =       0.03572867 Ry
     electrolyte free energy   =      -0.00239422 Ry
     correction to one-el term =       0.46989261 Ry

     iteration #  7     ecut=    80.00 Ry     beta= 0.20
     Davidson diagonalization with overlap

---- Real-time Memory Report at c_bands before calling an iterative solver
           817 MiB given to the printing process from OS
             0 MiB allocation reported by mallinfo(arena+hblkhd)
        209503 MiB available memory on the node where the printing process lives
------------------
     ethr =  1.88E-06,  avg # of iterations = 19.6

     negative rho (up, down):  1.205E-03 0.000E+00

     add environment contribution to local potential

     total cpu time spent up to now is      885.7 secs

     total energy              =    -781.91055575 Ry
     estimated scf accuracy    <       0.00202024 Ry

     total charge of GC-SCF    =       0.23729726 e
     the Fermi energy          =      -2.58430205 eV
                        (error :       0.31969795 eV)
     electrostatic embedding   =      -0.03725602 Ry
     cavitation energy         =       0.03572867 Ry
     electrolyte free energy   =      -0.00186498 Ry
     correction to one-el term =       1.50987579 Ry

     iteration #  8     ecut=    80.00 Ry     beta= 0.20
     Davidson diagonalization with overlap

---- Real-time Memory Report at c_bands before calling an iterative solver
           817 MiB given to the printing process from OS
             0 MiB allocation reported by mallinfo(arena+hblkhd)
        209430 MiB available memory on the node where the printing process lives
------------------
     ethr =  1.30E-06,  avg # of iterations = 10.2

     negative rho (up, down):  1.154E-03 0.000E+00

     add environment contribution to local potential

     total cpu time spent up to now is      928.7 secs

     total energy              =    -781.89792071 Ry
     estimated scf accuracy    <       0.00156910 Ry

     total charge of GC-SCF    =       0.30685227 e
     the Fermi energy          =      -2.58751655 eV
                        (error :       0.31648345 eV)
     electrostatic embedding   =      -0.04000958 Ry
     cavitation energy         =       0.03572867 Ry
     electrolyte free energy   =      -0.00192223 Ry
     correction to one-el term =       0.61974252 Ry

     iteration #  9     ecut=    80.00 Ry     beta= 0.20
     Davidson diagonalization with overlap

---- Real-time Memory Report at c_bands before calling an iterative solver
           817 MiB given to the printing process from OS
             0 MiB allocation reported by mallinfo(arena+hblkhd)
        209449 MiB available memory on the node where the printing process lives
------------------
     ethr =  1.01E-06,  avg # of iterations = 14.0

     negative rho (up, down):  1.116E-03 0.000E+00

     add environment contribution to local potential

     total cpu time spent up to now is      984.5 secs

     total energy              =    -781.90199347 Ry
     estimated scf accuracy    <       0.00035284 Ry

     total charge of GC-SCF    =       0.36521800 e
     the Fermi energy          =      -2.69515120 eV
                        (error :       0.20884880 eV)
     electrostatic embedding   =      -0.04321226 Ry
     cavitation energy         =       0.03572867 Ry
     electrolyte free energy   =      -0.00235087 Ry
     correction to one-el term =      -1.61109459 Ry

     iteration # 10     ecut=    80.00 Ry     beta= 0.20
     Davidson diagonalization with overlap

---- Real-time Memory Report at c_bands before calling an iterative solver
           817 MiB given to the printing process from OS
             0 MiB allocation reported by mallinfo(arena+hblkhd)
        209382 MiB available memory on the node where the printing process lives
------------------
     ethr =  2.27E-07,  avg # of iterations = 31.2

     negative rho (up, down):  9.459E-04 0.000E+00

     add environment contribution to local potential

     total cpu time spent up to now is     1071.2 secs

     total energy              =    -781.89333972 Ry
     estimated scf accuracy    <       0.00151252 Ry

     total charge of GC-SCF    =       0.40088200 e
     the Fermi energy          =      -2.78593100 eV
                        (error :       0.11806900 eV)
     electrostatic embedding   =      -0.04610127 Ry
     cavitation energy         =       0.03572867 Ry
     electrolyte free energy   =      -0.00296166 Ry
     correction to one-el term =      -3.49052528 Ry

     iteration # 11     ecut=    80.00 Ry     beta= 0.20
     Davidson diagonalization with overlap

---- Real-time Memory Report at c_bands before calling an iterative solver
           817 MiB given to the printing process from OS
             0 MiB allocation reported by mallinfo(arena+hblkhd)
        209120 MiB available memory on the node where the printing process lives
------------------
     ethr =  2.27E-07,  avg # of iterations = 32.8

     negative rho (up, down):  8.774E-04 0.000E+00

     add environment contribution to local potential

     total cpu time spent up to now is     1164.7 secs

     total energy              =    -781.90155610 Ry
     estimated scf accuracy    <       0.00124263 Ry

     total charge of GC-SCF    =       0.44988590 e
     the Fermi energy          =      -2.67276315 eV
                        (error :       0.23123685 eV)
     electrostatic embedding   =      -0.04754362 Ry
     cavitation energy         =       0.03572867 Ry
     electrolyte free energy   =      -0.00245314 Ry
     correction to one-el term =      -4.75378988 Ry

     iteration # 12     ecut=    80.00 Ry     beta= 0.20
     Davidson diagonalization with overlap

---- Real-time Memory Report at c_bands before calling an iterative solver
           817 MiB given to the printing process from OS
             0 MiB allocation reported by mallinfo(arena+hblkhd)
        209156 MiB available memory on the node where the printing process lives
------------------
     ethr =  2.27E-07,  avg # of iterations = 14.4

     negative rho (up, down):  8.179E-04 0.000E+00

     add environment contribution to local potential

     total cpu time spent up to now is     1222.0 secs

     total energy              =    -781.90178895 Ry
     estimated scf accuracy    <       0.00025404 Ry

     total charge of GC-SCF    =       0.55526819 e
     the Fermi energy          =      -2.72832929 eV
                        (error :       0.17567071 eV)
     electrostatic embedding   =      -0.04922118 Ry
     cavitation energy         =       0.03572867 Ry
     electrolyte free energy   =      -0.00278504 Ry
     correction to one-el term =      -6.97984733 Ry

     iteration # 13     ecut=    80.00 Ry     beta= 0.20
     Davidson diagonalization with overlap

---- Real-time Memory Report at c_bands before calling an iterative solver
           817 MiB given to the printing process from OS
             0 MiB allocation reported by mallinfo(arena+hblkhd)
        209169 MiB available memory on the node where the printing process lives
------------------
     ethr =  1.63E-07,  avg # of iterations = 16.3

     negative rho (up, down):  7.404E-04 0.000E+00

     add environment contribution to local potential

     total cpu time spent up to now is     1289.2 secs

     total energy              =    -781.90578201 Ry
     estimated scf accuracy    <       0.00003096 Ry

     total charge of GC-SCF    =       0.58885054 e
     the Fermi energy          =      -2.78053284 eV
                        (error :       0.12346716 eV)
     electrostatic embedding   =      -0.05595164 Ry
     cavitation energy         =       0.03572867 Ry
     electrolyte free energy   =      -0.00323422 Ry
     correction to one-el term =     -10.73252177 Ry

     iteration # 14     ecut=    80.00 Ry     beta= 0.20
     Davidson diagonalization with overlap

---- Real-time Memory Report at c_bands before calling an iterative solver
           817 MiB given to the printing process from OS
             0 MiB allocation reported by mallinfo(arena+hblkhd)
        209197 MiB available memory on the node where the printing process lives
------------------
     ethr =  1.99E-08,  avg # of iterations = 19.2

     negative rho (up, down):  6.883E-04 0.000E+00

     add environment contribution to local potential

     total cpu time spent up to now is     1356.5 secs

     total energy              =    -781.90426287 Ry
     estimated scf accuracy    <       0.00011691 Ry

     total charge of GC-SCF    =       0.68634344 e
     the Fermi energy          =      -2.76515630 eV
                        (error :       0.13884370 eV)
     electrostatic embedding   =      -0.05757643 Ry
     cavitation energy         =       0.03572867 Ry
     electrolyte free energy   =      -0.00318434 Ry
     correction to one-el term =     -12.09345274 Ry

     iteration # 15     ecut=    80.00 Ry     beta= 0.20
     Davidson diagonalization with overlap

---- Real-time Memory Report at c_bands before calling an iterative solver
           817 MiB given to the printing process from OS
             0 MiB allocation reported by mallinfo(arena+hblkhd)
        209182 MiB available memory on the node where the printing process lives
------------------
     c_bands:  1 eigenvalues not converged
     ethr =  1.99E-08,  avg # of iterations = 33.7

     negative rho (up, down):  6.532E-04 0.000E+00

     add environment contribution to local potential

     total cpu time spent up to now is     1452.3 secs

     total energy              =    -781.90578846 Ry
     estimated scf accuracy    <       0.00001972 Ry

     total charge of GC-SCF    =       0.78930729 e
     the Fermi energy          =      -2.80004684 eV
                        (error :       0.10395316 eV)
     electrostatic embedding   =      -0.06527663 Ry
     cavitation energy         =       0.03572867 Ry
     electrolyte free energy   =      -0.00352780 Ry
     correction to one-el term =     -15.65217384 Ry

     iteration # 16     ecut=    80.00 Ry     beta= 0.20
     Davidson diagonalization with overlap

---- Real-time Memory Report at c_bands before calling an iterative solver
           817 MiB given to the printing process from OS
             0 MiB allocation reported by mallinfo(arena+hblkhd)
        209179 MiB available memory on the node where the printing process lives
------------------
     c_bands:  2 eigenvalues not converged
     ethr =  1.27E-08,  avg # of iterations = 36.9

     negative rho (up, down):  6.383E-04 0.000E+00

     add environment contribution to local potential

     total cpu time spent up to now is     1558.0 secs

     total energy              =    -781.90717005 Ry
     estimated scf accuracy    <       0.00001755 Ry

     total charge of GC-SCF    =       0.96386873 e
     the Fermi energy          =      -2.81620196 eV
                        (error :       0.08779804 eV)
     electrostatic embedding   =      -0.07643030 Ry
     cavitation energy         =       0.03572867 Ry
     electrolyte free energy   =      -0.00379623 Ry
     correction to one-el term =     -19.28129720 Ry

     iteration # 17     ecut=    80.00 Ry     beta= 0.20
     Davidson diagonalization with overlap

---- Real-time Memory Report at c_bands before calling an iterative solver
           817 MiB given to the printing process from OS
             0 MiB allocation reported by mallinfo(arena+hblkhd)
        209163 MiB available memory on the node where the printing process lives
------------------
     ethr =  1.13E-08,  avg # of iterations = 39.4

     negative rho (up, down):  6.288E-04 0.000E+00

     add environment contribution to local potential

     total cpu time spent up to now is     1670.7 secs

     total energy              =    -781.90840349 Ry
     estimated scf accuracy    <       0.00002150 Ry

     total charge of GC-SCF    =       1.00481052 e
     the Fermi energy          =      -2.85852776 eV
                        (error :       0.04547224 eV)
     electrostatic embedding   =      -0.10173633 Ry
     cavitation energy         =       0.03572867 Ry
     electrolyte free energy   =      -0.00440087 Ry
     correction to one-el term =     -25.27628564 Ry

     iteration # 18     ecut=    80.00 Ry     beta= 0.20
     Davidson diagonalization with overlap

---- Real-time Memory Report at c_bands before calling an iterative solver
           817 MiB given to the printing process from OS
             0 MiB allocation reported by mallinfo(arena+hblkhd)
        209111 MiB available memory on the node where the printing process lives
------------------
     ethr =  1.13E-08,  avg # of iterations = 19.9

     negative rho (up, down):  6.308E-04 0.000E+00

     add environment contribution to local potential

     total cpu time spent up to now is     1745.8 secs

     total energy              =    -781.90864477 Ry
     estimated scf accuracy    <       0.00000402 Ry

     total charge of GC-SCF    =       1.08500932 e
     the Fermi energy          =      -2.85652802 eV
                        (error :       0.04747198 eV)
     electrostatic embedding   =      -0.10870732 Ry
     cavitation energy         =       0.03572867 Ry
     electrolyte free energy   =      -0.00447764 Ry
     correction to one-el term =     -26.74644399 Ry

     iteration # 19     ecut=    80.00 Ry     beta= 0.20
     Davidson diagonalization with overlap

---- Real-time Memory Report at c_bands before calling an iterative solver
           817 MiB given to the printing process from OS
             0 MiB allocation reported by mallinfo(arena+hblkhd)
        209174 MiB available memory on the node where the printing process lives
------------------
     ethr =  2.60E-09,  avg # of iterations = 33.2

     negative rho (up, down):  6.340E-04 0.000E+00

     add environment contribution to local potential

     total cpu time spent up to now is     1846.4 secs

     total energy              =    -781.90900496 Ry
     estimated scf accuracy    <       0.00000564 Ry

     total charge of GC-SCF    =       1.13533182 e
     the Fermi energy          =      -2.87401167 eV
                        (error :       0.02998833 eV)
     electrostatic embedding   =      -0.12352215 Ry
     cavitation energy         =       0.03572867 Ry
     electrolyte free energy   =      -0.00476892 Ry
     correction to one-el term =     -29.47149295 Ry

     iteration # 20     ecut=    80.00 Ry     beta= 0.20
     Davidson diagonalization with overlap

---- Real-time Memory Report at c_bands before calling an iterative solver
           817 MiB given to the printing process from OS
             0 MiB allocation reported by mallinfo(arena+hblkhd)
        209161 MiB available memory on the node where the printing process lives
------------------
     ethr =  2.60E-09,  avg # of iterations = 38.9

     negative rho (up, down):  6.367E-04 0.000E+00

     add environment contribution to local potential

     total cpu time spent up to now is     1951.3 secs

     total energy              =    -781.90928380 Ry
     estimated scf accuracy    <       0.00000298 Ry

     total charge of GC-SCF    =       1.19834226 e
     the Fermi energy          =      -2.88175532 eV
                        (error :       0.02224468 eV)
     electrostatic embedding   =      -0.13387070 Ry
     cavitation energy         =       0.03572867 Ry
     electrolyte free energy   =      -0.00494240 Ry
     correction to one-el term =     -31.17497647 Ry

     iteration # 21     ecut=    80.00 Ry     beta= 0.20
     Davidson diagonalization with overlap

---- Real-time Memory Report at c_bands before calling an iterative solver
           817 MiB given to the printing process from OS
             0 MiB allocation reported by mallinfo(arena+hblkhd)
        209065 MiB available memory on the node where the printing process lives
------------------
     ethr =  1.93E-09,  avg # of iterations = 41.2

     negative rho (up, down):  6.315E-04 0.000E+00

     add environment contribution to local potential

     total cpu time spent up to now is     2066.9 secs

     total energy              =    -781.90932974 Ry
     estimated scf accuracy    <       0.00000082 Ry

     total charge of GC-SCF    =       1.23141371 e
     the Fermi energy          =      -2.89233604 eV
                        (error :       0.01166396 eV)
     electrostatic embedding   =      -0.14787734 Ry
     cavitation energy         =       0.03572867 Ry
     electrolyte free energy   =      -0.00517608 Ry
     correction to one-el term =     -33.33624486 Ry

     iteration # 22     ecut=    80.00 Ry     beta= 0.20
     Davidson diagonalization with overlap

---- Real-time Memory Report at c_bands before calling an iterative solver
           817 MiB given to the printing process from OS
             0 MiB allocation reported by mallinfo(arena+hblkhd)
        209048 MiB available memory on the node where the printing process lives
------------------
     ethr =  5.28E-10,  avg # of iterations = 40.5

     negative rho (up, down):  6.205E-04 0.000E+00

     add environment contribution to local potential

     total cpu time spent up to now is     2181.3 secs

     total energy              =    -781.90932790 Ry
     estimated scf accuracy    <       0.00000071 Ry

     total charge of GC-SCF    =       1.24306541 e
     the Fermi energy          =      -2.89920492 eV
                        (error :       0.00479508 eV)
     electrostatic embedding   =      -0.15555701 Ry
     cavitation energy         =       0.03572867 Ry
     electrolyte free energy   =      -0.00530893 Ry
     correction to one-el term =     -34.46512020 Ry

     iteration # 23     ecut=    80.00 Ry     beta= 0.20
     Davidson diagonalization with overlap

---- Real-time Memory Report at c_bands before calling an iterative solver
           817 MiB given to the printing process from OS
             0 MiB allocation reported by mallinfo(arena+hblkhd)
        209046 MiB available memory on the node where the printing process lives
------------------
     ethr =  4.61E-10,  avg # of iterations = 20.7

     negative rho (up, down):  6.116E-04 0.000E+00

     add environment contribution to local potential

     total cpu time spent up to now is     2256.6 secs

     total energy              =    -781.90933037 Ry
     estimated scf accuracy    <       0.00000021 Ry

     total charge of GC-SCF    =       1.24659681 e
     the Fermi energy          =      -2.90111602 eV
                        (error :       0.00288398 eV)
     electrostatic embedding   =      -0.15845271 Ry
     cavitation energy         =       0.03572867 Ry
     electrolyte free energy   =      -0.00535543 Ry
     correction to one-el term =     -34.88400275 Ry

     iteration # 24     ecut=    80.00 Ry     beta= 0.20
     Davidson diagonalization with overlap

---- Real-time Memory Report at c_bands before calling an iterative solver
           817 MiB given to the printing process from OS
             0 MiB allocation reported by mallinfo(arena+hblkhd)
        209045 MiB available memory on the node where the printing process lives
------------------
     ethr =  1.37E-10,  avg # of iterations = 16.0

     negative rho (up, down):  6.074E-04 0.000E+00

     add environment contribution to local potential

     total cpu time spent up to now is     2319.5 secs

     total energy              =    -781.90933116 Ry
     estimated scf accuracy    <       0.00000011 Ry

     total charge of GC-SCF    =       1.24842382 e
     the Fermi energy          =      -2.90201867 eV
                        (error :       0.00198133 eV)
     electrostatic embedding   =      -0.15931285 Ry
     cavitation energy         =       0.03572867 Ry
     electrolyte free energy   =      -0.00537011 Ry
     correction to one-el term =     -35.00643202 Ry

     iteration # 25     ecut=    80.00 Ry     beta= 0.20
     Davidson diagonalization with overlap

---- Real-time Memory Report at c_bands before calling an iterative solver
           817 MiB given to the printing process from OS
             0 MiB allocation reported by mallinfo(arena+hblkhd)
        209043 MiB available memory on the node where the printing process lives
------------------
     c_bands:  1 eigenvalues not converged
     ethr =  7.25E-11,  avg # of iterations = 22.4

     negative rho (up, down):  6.041E-04 0.000E+00

     add environment contribution to local potential

     total cpu time spent up to now is     2401.0 secs

     total energy              =    -781.90933134 Ry
     estimated scf accuracy    <       0.00000006 Ry

     total charge of GC-SCF    =       1.24832327 e
     the Fermi energy          =      -2.90239501 eV
                        (error :       0.00160499 eV)
     electrostatic embedding   =      -0.15977393 Ry
     cavitation energy         =       0.03572867 Ry
     electrolyte free energy   =      -0.00537740 Ry
     correction to one-el term =     -35.05776467 Ry

     iteration # 26     ecut=    80.00 Ry     beta= 0.20
     Davidson diagonalization with overlap

---- Real-time Memory Report at c_bands before calling an iterative solver
           817 MiB given to the printing process from OS
             0 MiB allocation reported by mallinfo(arena+hblkhd)
        209061 MiB available memory on the node where the printing process lives
------------------
     ethr =  3.57E-11,  avg # of iterations = 20.5

     negative rho (up, down):  6.012E-04 0.000E+00

     add environment contribution to local potential

     total cpu time spent up to now is     2473.1 secs

     total energy              =    -781.90933075 Ry
     estimated scf accuracy    <       0.00000004 Ry

     total charge of GC-SCF    =       1.25136928 e
     the Fermi energy          =      -2.90234291 eV
                        (error :       0.00165709 eV)
     electrostatic embedding   =      -0.15973295 Ry
     cavitation energy         =       0.03572867 Ry
     electrolyte free energy   =      -0.00537601 Ry
     correction to one-el term =     -35.04644621 Ry

     iteration # 27     ecut=    80.00 Ry     beta= 0.20
     Davidson diagonalization with overlap

---- Real-time Memory Report at c_bands before calling an iterative solver
           817 MiB given to the printing process from OS
             0 MiB allocation reported by mallinfo(arena+hblkhd)
        209100 MiB available memory on the node where the printing process lives
------------------
     ethr =  2.38E-11,  avg # of iterations = 21.2

     negative rho (up, down):  5.993E-04 0.000E+00

     add environment contribution to local potential

     total cpu time spent up to now is     2543.4 secs

     total energy              =    -781.90933329 Ry
     estimated scf accuracy    <       0.00000003 Ry

     total charge of GC-SCF    =       1.25790942 e
     the Fermi energy          =      -2.90276199 eV
                        (error :       0.00123801 eV)
     electrostatic embedding   =      -0.16046607 Ry
     cavitation energy         =       0.03572867 Ry
     electrolyte free energy   =      -0.00538704 Ry
     correction to one-el term =     -35.15226615 Ry

     iteration # 28     ecut=    80.00 Ry     beta= 0.20
     Davidson diagonalization with overlap

---- Real-time Memory Report at c_bands before calling an iterative solver
           817 MiB given to the printing process from OS
             0 MiB allocation reported by mallinfo(arena+hblkhd)
        209047 MiB available memory on the node where the printing process lives
------------------
     ethr =  1.69E-11,  avg # of iterations = 30.2

     negative rho (up, down):  5.893E-04 0.000E+00

     total cpu time spent up to now is     2625.3 secs

     End of self-consistent calculation

          k = 0.0000 0.0000 0.0000 (361215 PWs)   bands (ev):

   -50.5214 -50.5214 -50.5200 -50.5200 -50.1060 -50.1059 -50.1044 -50.1043
   -50.0848 -50.0848 -50.0834 -50.0834 -50.0516 -50.0515 -50.0502 -50.0501
   -49.6251 -49.6249 -49.6234 -49.6232 -49.4554 -49.4471 -49.4456 -49.4454
   -49.4445 -49.4435 -49.4418 -49.4418 -49.4379 -49.4353 -49.4351 -49.4350
   -49.4339 -49.4334 -49.4309 -49.4305 -49.4276 -49.4265 -49.4264 -49.4259
   -49.4208 -49.4205 -49.4194 -49.4178 -49.4084 -49.4082 -49.4067 -49.4065
   -49.3928 -49.3927 -49.3924 -49.3923  -6.3313  -5.9359  -5.5947  -5.5930
    -5.3403  -5.1979  -5.0698  -4.5980  -4.5124  -4.1806  -3.9150  -3.9150
    -3.6532  -3.6275  -3.5462  -3.5462  -3.4608  -3.4339  -3.2701  -3.2701
    -3.2387  -3.2387  -3.1518  -3.0807  -3.0807  -3.0475  -3.0336  -2.9357
    -2.9357  -2.8097  -2.8096  -2.5932  -2.5931  -2.5687  -2.3982  -2.3520
    -2.3088  -2.3088  -2.2165  -2.1372  -1.9978  -1.9519  -1.9518  -1.6706
    -1.6705  -1.5314  -1.3282  -1.2843  -1.2843  -1.1641  -1.1641  -0.9140
    -0.8966  -0.3083  -0.2460  -0.1883  -0.1883  -0.1819  -0.0800  -0.0752
     0.1059   0.1261   0.2815   0.2815   0.3089

     occupation numbers 
     1.0000   1.0000   1.0000   1.0000   1.0000   1.0000   1.0000   1.0000
     1.0000   1.0000   1.0000   1.0000   1.0000   1.0000   1.0000   1.0000
     1.0000   1.0000   1.0000   1.0000   1.0000   1.0000   1.0000   1.0000
     1.0000   1.0000   1.0000   1.0000   1.0000   1.0000   1.0000   1.0000
     1.0000   1.0000   1.0000   1.0000   1.0000   1.0000   1.0000   1.0000
     1.0000   1.0000   1.0000   1.0000   1.0000   1.0000   1.0000   1.0000
     1.0000   1.0000   1.0000   1.0000   1.0000   1.0000   1.0000   1.0000
     1.0000   1.0000   1.0000   1.0000   1.0000   1.0000   1.0000   1.0000
     1.0000   1.0000   1.0000   1.0000   1.0000   1.0000   1.0052   1.0052
     1.0118   1.0118   1.0575   1.0799   1.0799   1.0425   1.0120   0.5711
     0.5711   0.0804   0.0803   0.0001   0.0001   0.0000   0.0000   0.0000
     0.0000   0.0000   0.0000   0.0000   0.0000   0.0000   0.0000   0.0000
     0.0000   0.0000   0.0000   0.0000   0.0000   0.0000   0.0000   0.0000
     0.0000   0.0000   0.0000   0.0000   0.0000   0.0000   0.0000   0.0000
     0.0000   0.0000   0.0000   0.0000   0.0000

          k = 0.0000 0.0925 0.0000 (361251 PWs)   bands (ev):

   -50.5214 -50.5214 -50.5200 -50.5200 -50.1060 -50.1059 -50.1044 -50.1043
   -50.0848 -50.0848 -50.0834 -50.0834 -50.0516 -50.0515 -50.0502 -50.0501
   -49.6251 -49.6249 -49.6234 -49.6232 -49.4553 -49.4471 -49.4456 -49.4454
   -49.4446 -49.4435 -49.4418 -49.4418 -49.4377 -49.4353 -49.4352 -49.4350
   -49.4339 -49.4335 -49.4309 -49.4305 -49.4276 -49.4265 -49.4264 -49.4259
   -49.4208 -49.4205 -49.4194 -49.4178 -49.4084 -49.4082 -49.4067 -49.4065
   -49.3928 -49.3927 -49.3924 -49.3923  -6.3111  -5.9221  -5.8098  -5.4486
    -5.3285  -5.2134  -4.8929  -4.7409  -4.4071  -4.0852  -3.9130  -3.8968
    -3.8968  -3.7936  -3.5404  -3.5404  -3.4656  -3.4392  -3.4391  -3.4391
    -3.1668  -3.1668  -3.1354  -3.0325  -3.0325  -2.9924  -2.8958  -2.8957
    -2.7634  -2.7571  -2.7570  -2.6537  -2.5903  -2.5902  -2.5622  -2.3265
    -2.3040  -2.3040  -2.1501  -2.0567  -1.9842  -1.9842  -1.8384  -1.7208
    -1.7208  -1.5451  -1.5195  -1.5195  -1.4892  -0.9185  -0.9185  -0.9046
    -0.6987  -0.5296  -0.2501  -0.1576  -0.1575  -0.1424  -0.0979   0.0104
     0.1159   0.2676   0.2908   0.2908   0.3437

     occupation numbers 
     1.0000   1.0000   1.0000   1.0000   1.0000   1.0000   1.0000   1.0000
     1.0000   1.0000   1.0000   1.0000   1.0000   1.0000   1.0000   1.0000
     1.0000   1.0000   1.0000   1.0000   1.0000   1.0000   1.0000   1.0000
     1.0000   1.0000   1.0000   1.0000   1.0000   1.0000   1.0000   1.0000
     1.0000   1.0000   1.0000   1.0000   1.0000   1.0000   1.0000   1.0000
     1.0000   1.0000   1.0000   1.0000   1.0000   1.0000   1.0000   1.0000
     1.0000   1.0000   1.0000   1.0000   1.0000   1.0000   1.0000   1.0000
     1.0000   1.0000   1.0000   1.0000   1.0000   1.0000   1.0000   1.0000
     1.0000   1.0000   1.0000   1.0000   1.0000   1.0000   1.0000   1.0000
     1.0472   1.0472   1.0685   1.0093   1.0092   0.8666   0.3615   0.3613
     0.0264   0.0223   0.0222   0.0008   0.0001   0.0001   0.0000   0.0000
     0.0000   0.0000   0.0000   0.0000   0.0000   0.0000   0.0000   0.0000
     0.0000   0.0000   0.0000   0.0000   0.0000   0.0000   0.0000   0.0000
     0.0000   0.0000   0.0000   0.0000   0.0000   0.0000   0.0000   0.0000
     0.0000   0.0000   0.0000   0.0000   0.0000

          k = 0.0000 0.1849 0.0000 (361298 PWs)   bands (ev):

   -50.5214 -50.5214 -50.5200 -50.5200 -50.1060 -50.1059 -50.1044 -50.1043
   -50.0848 -50.0848 -50.0834 -50.0834 -50.0516 -50.0515 -50.0502 -50.0501
   -49.6251 -49.6249 -49.6234 -49.6232 -49.4553 -49.4471 -49.4456 -49.4454
   -49.4447 -49.4435 -49.4418 -49.4418 -49.4372 -49.4353 -49.4353 -49.4350
   -49.4341 -49.4337 -49.4309 -49.4305 -49.4275 -49.4265 -49.4264 -49.4259
   -49.4208 -49.4205 -49.4194 -49.4178 -49.4084 -49.4082 -49.4067 -49.4065
   -49.3928 -49.3927 -49.3924 -49.3923  -6.2504  -6.0109  -5.8435  -5.6110
    -5.1654  -5.0256  -4.9134  -4.5982  -4.3398  -4.2858  -3.9781  -3.8630
    -3.8423  -3.8423  -3.8341  -3.6287  -3.6287  -3.4667  -3.4666  -3.3376
    -3.2862  -3.2862  -3.1030  -2.9178  -2.8896  -2.8896  -2.7925  -2.7900
    -2.7899  -2.6902  -2.6902  -2.6465  -2.5272  -2.5272  -2.3729  -2.3107
    -2.3107  -2.2672  -2.1667  -2.0712  -2.0711  -1.9299  -1.9299  -1.9240
    -1.8342  -1.6168  -1.6168  -1.5113  -1.4345  -1.0043  -0.7636  -0.7277
    -0.7277  -0.4673  -0.1894  -0.0601  -0.0574  -0.0574  -0.0470   0.0664
     0.1649   0.1784   0.2785   0.2799   0.2799

     occupation numbers 
     1.0000   1.0000   1.0000   1.0000   1.0000   1.0000   1.0000   1.0000
     1.0000   1.0000   1.0000   1.0000   1.0000   1.0000   1.0000   1.0000
     1.0000   1.0000   1.0000   1.0000   1.0000   1.0000   1.0000   1.0000
     1.0000   1.0000   1.0000   1.0000   1.0000   1.0000   1.0000   1.0000
     1.0000   1.0000   1.0000   1.0000   1.0000   1.0000   1.0000   1.0000
     1.0000   1.0000   1.0000   1.0000   1.0000   1.0000   1.0000   1.0000
     1.0000   1.0000   1.0000   1.0000   1.0000   1.0000   1.0000   1.0000
     1.0000   1.0000   1.0000   1.0000   1.0000   1.0000   1.0000   1.0000
     1.0000   1.0000   1.0000   1.0000   1.0000   1.0000   1.0000   1.0006
     1.0033   1.0033   1.0827   0.4738   0.3326   0.3325   0.0546   0.0514
     0.0514   0.0029   0.0029   0.0006   0.0000   0.0000   0.0000   0.0000
     0.0000   0.0000   0.0000   0.0000   0.0000   0.0000   0.0000   0.0000
     0.0000   0.0000   0.0000   0.0000   0.0000   0.0000   0.0000   0.0000
     0.0000   0.0000   0.0000   0.0000   0.0000   0.0000   0.0000   0.0000
     0.0000   0.0000   0.0000   0.0000   0.0000

          k = 0.0000-0.2774 0.0000 (361286 PWs)   bands (ev):

   -50.5214 -50.5214 -50.5200 -50.5200 -50.1060 -50.1059 -50.1044 -50.1043
   -50.0848 -50.0848 -50.0834 -50.0834 -50.0516 -50.0515 -50.0502 -50.0501
   -49.6251 -49.6249 -49.6234 -49.6232 -49.4553 -49.4471 -49.4456 -49.4454
   -49.4447 -49.4435 -49.4418 -49.4418 -49.4369 -49.4353 -49.4353 -49.4350
   -49.4343 -49.4337 -49.4309 -49.4305 -49.4274 -49.4265 -49.4264 -49.4259
   -49.4208 -49.4205 -49.4195 -49.4178 -49.4084 -49.4082 -49.4067 -49.4065
   -49.3928 -49.3927 -49.3924 -49.3923  -6.1545  -6.1445  -5.7534  -5.7414
    -5.1024  -5.0144  -4.6889  -4.6814  -4.3495  -4.2274  -4.1901  -4.0564
    -3.7586  -3.7586  -3.7447  -3.7447  -3.5886  -3.4590  -3.4120  -3.4119
    -3.3716  -3.3715  -3.1921  -2.9393  -2.8705  -2.8704  -2.7452  -2.7452
    -2.6256  -2.6222  -2.5709  -2.5708  -2.4801  -2.4800  -2.3957  -2.3523
    -2.3523  -2.2157  -2.1261  -2.1260  -2.1177  -2.0599  -2.0599  -2.0246
    -1.6569  -1.6301  -1.6300  -1.5058  -1.3380  -1.2191  -0.7149  -0.6703
    -0.6703  -0.4342  -0.1686  -0.0410   0.0142   0.0143   0.0408   0.0908
     0.0921   0.1183   0.2433   0.2781   0.3004

     occupation numbers 
     1.0000   1.0000   1.0000   1.0000   1.0000   1.0000   1.0000   1.0000
     1.0000   1.0000   1.0000   1.0000   1.0000   1.0000   1.0000   1.0000
     1.0000   1.0000   1.0000   1.0000   1.0000   1.0000   1.0000   1.0000
     1.0000   1.0000   1.0000   1.0000   1.0000   1.0000   1.0000   1.0000
     1.0000   1.0000   1.0000   1.0000   1.0000   1.0000   1.0000   1.0000
     1.0000   1.0000   1.0000   1.0000   1.0000   1.0000   1.0000   1.0000
     1.0000   1.0000   1.0000   1.0000   1.0000   1.0000   1.0000   1.0000
     1.0000   1.0000   1.0000   1.0000   1.0000   1.0000   1.0000   1.0000
     1.0000   1.0000   1.0000   1.0000   1.0000   1.0000   1.0000   1.0000
     1.0002   1.0002   1.0314   0.5915   0.2505   0.2503   0.0161   0.0161
     0.0003   0.0002   0.0000   0.0000   0.0000   0.0000   0.0000   0.0000
     0.0000   0.0000   0.0000   0.0000   0.0000   0.0000   0.0000   0.0000
     0.0000   0.0000   0.0000   0.0000   0.0000   0.0000   0.0000   0.0000
     0.0000   0.0000   0.0000   0.0000   0.0000   0.0000   0.0000   0.0000
     0.0000   0.0000   0.0000   0.0000   0.0000

          k = 0.1000 0.0000 0.0000 (361205 PWs)   bands (ev):

   -50.5213 -50.5213 -50.5200 -50.5200 -50.1059 -50.1058 -50.1044 -50.1043
   -50.0848 -50.0848 -50.0834 -50.0834 -50.0516 -50.0515 -50.0503 -50.0501
   -49.6250 -49.6249 -49.6234 -49.6233 -49.4552 -49.4470 -49.4465 -49.4448
   -49.4444 -49.4434 -49.4419 -49.4418 -49.4377 -49.4353 -49.4351 -49.4350
   -49.4339 -49.4334 -49.4311 -49.4307 -49.4276 -49.4269 -49.4259 -49.4258
   -49.4207 -49.4204 -49.4194 -49.4179 -49.4084 -49.4081 -49.4068 -49.4066
   -49.3928 -49.3927 -49.3924 -49.3923  -6.3075  -5.9121  -5.5711  -5.5692
    -5.3164  -5.1742  -5.0458  -4.5740  -4.4886  -4.3791  -4.1561  -3.9987
    -3.6932  -3.6814  -3.6287  -3.6031  -3.4585  -3.4351  -3.4084  -3.4013
    -3.3536  -3.1991  -3.1270  -3.0487  -3.0222  -3.0076  -2.8792  -2.8526
    -2.7660  -2.7475  -2.6495  -2.5563  -2.5420  -2.4383  -2.3732  -2.3237
    -2.3082  -2.1926  -2.1675  -2.1228  -2.1135  -1.9686  -1.8410  -1.7088
    -1.6843  -1.5060  -1.4625  -1.4465  -1.3039  -1.1803  -1.0316  -0.8893
    -0.8746  -0.2812  -0.2439  -0.2212  -0.2205  -0.1507  -0.0540  -0.0447
     0.1345   0.1496   0.2544   0.2834   0.3260

     occupation numbers 
     1.0000   1.0000   1.0000   1.0000   1.0000   1.0000   1.0000   1.0000
     1.0000   1.0000   1.0000   1.0000   1.0000   1.0000   1.0000   1.0000
     1.0000   1.0000   1.0000   1.0000   1.0000   1.0000   1.0000   1.0000
     1.0000   1.0000   1.0000   1.0000   1.0000   1.0000   1.0000   1.0000
     1.0000   1.0000   1.0000   1.0000   1.0000   1.0000   1.0000   1.0000
     1.0000   1.0000   1.0000   1.0000   1.0000   1.0000   1.0000   1.0000
     1.0000   1.0000   1.0000   1.0000   1.0000   1.0000   1.0000   1.0000
     1.0000   1.0000   1.0000   1.0000   1.0000   1.0000   1.0000   1.0000
     1.0000   1.0000   1.0000   1.0000   1.0000   1.0000   1.0000   1.0001
     1.0003   1.0276   1.0735   1.0447   0.9799   0.9295   0.2864   0.1863
     0.0282   0.0171   0.0007   0.0000   0.0000   0.0000   0.0000   0.0000
     0.0000   0.0000   0.0000   0.0000   0.0000   0.0000   0.0000   0.0000
     0.0000   0.0000   0.0000   0.0000   0.0000   0.0000   0.0000   0.0000
     0.0000   0.0000   0.0000   0.0000   0.0000   0.0000   0.0000   0.0000
     0.0000   0.0000   0.0000   0.0000   0.0000

          k = 0.1000 0.0925 0.0000 (361249 PWs)   bands (ev):

   -50.5213 -50.5213 -50.5200 -50.5200 -50.1059 -50.1058 -50.1044 -50.1043
   -50.0848 -50.0848 -50.0834 -50.0834 -50.0516 -50.0515 -50.0503 -50.0501
   -49.6250 -49.6249 -49.6234 -49.6233 -49.4552 -49.4470 -49.4465 -49.4448
   -49.4445 -49.4434 -49.4419 -49.4418 -49.4375 -49.4353 -49.4351 -49.4350
   -49.4338 -49.4335 -49.4311 -49.4307 -49.4276 -49.4269 -49.4259 -49.4258
   -49.4207 -49.4204 -49.4194 -49.4178 -49.4084 -49.4081 -49.4068 -49.4066
   -49.3928 -49.3927 -49.3924 -49.3923  -6.2873  -5.8983  -5.7860  -5.4249
    -5.3048  -5.1893  -4.8692  -4.7170  -4.3829  -4.3602  -4.0610  -3.9901
    -3.8881  -3.8850  -3.7691  -3.5708  -3.4428  -3.4413  -3.4148  -3.3838
    -3.3159  -3.1096  -3.0912  -3.0489  -2.9702  -2.9658  -2.9395  -2.7680
    -2.7367  -2.6597  -2.6278  -2.5839  -2.5386  -2.5297  -2.4366  -2.3038
    -2.2979  -2.2233  -2.1239  -2.1078  -2.0282  -1.9653  -1.8333  -1.8140
    -1.7367  -1.5330  -1.5218  -1.4631  -1.3573  -1.0745  -0.9042  -0.8787
    -0.6748  -0.5062  -0.2953  -0.2272  -0.1283  -0.1115  -0.0690   0.0400
     0.1457   0.2419   0.2731   0.2950   0.3178

     occupation numbers 
     1.0000   1.0000   1.0000   1.0000   1.0000   1.0000   1.0000   1.0000
     1.0000   1.0000   1.0000   1.0000   1.0000   1.0000   1.0000   1.0000
     1.0000   1.0000   1.0000   1.0000   1.0000   1.0000   1.0000   1.0000
     1.0000   1.0000   1.0000   1.0000   1.0000   1.0000   1.0000   1.0000
     1.0000   1.0000   1.0000   1.0000   1.0000   1.0000   1.0000   1.0000
     1.0000   1.0000   1.0000   1.0000   1.0000   1.0000   1.0000   1.0000
     1.0000   1.0000   1.0000   1.0000   1.0000   1.0000   1.0000   1.0000
     1.0000   1.0000   1.0000   1.0000   1.0000   1.0000   1.0000   1.0000
     1.0000   1.0000   1.0000   1.0000   1.0000   1.0000   1.0000   1.0001
     1.0013   1.0812   1.0830   1.0451   0.7588   0.7362   0.5924   0.0298
     0.0126   0.0010   0.0003   0.0000   0.0000   0.0000   0.0000   0.0000
     0.0000   0.0000   0.0000   0.0000   0.0000   0.0000   0.0000   0.0000
     0.0000   0.0000   0.0000   0.0000   0.0000   0.0000   0.0000   0.0000
     0.0000   0.0000   0.0000   0.0000   0.0000   0.0000   0.0000   0.0000
     0.0000   0.0000   0.0000   0.0000   0.0000

          k = 0.1000 0.1849 0.0000 (361237 PWs)   bands (ev):

   -50.5213 -50.5213 -50.5200 -50.5200 -50.1059 -50.1058 -50.1044 -50.1043
   -50.0848 -50.0848 -50.0834 -50.0834 -50.0516 -50.0515 -50.0503 -50.0501
   -49.6250 -49.6249 -49.6234 -49.6233 -49.4552 -49.4470 -49.4465 -49.4448
   -49.4446 -49.4434 -49.4419 -49.4418 -49.4371 -49.4353 -49.4352 -49.4350
   -49.4340 -49.4337 -49.4311 -49.4307 -49.4275 -49.4269 -49.4259 -49.4259
   -49.4207 -49.4204 -49.4195 -49.4178 -49.4084 -49.4081 -49.4068 -49.4066
   -49.3928 -49.3927 -49.3924 -49.3923  -6.2267  -5.9872  -5.8197  -5.5873
    -5.1413  -5.0018  -4.8894  -4.5745  -4.3155  -4.3035  -4.2615  -4.0804
    -3.9534  -3.9130  -3.8391  -3.8102  -3.7128  -3.3334  -3.3129  -3.2749
    -3.1710  -3.1282  -3.0786  -3.0745  -2.9753  -2.8949  -2.8931  -2.7918
    -2.7665  -2.6310  -2.6176  -2.5617  -2.4478  -2.4377  -2.3979  -2.3452
    -2.2570  -2.2388  -2.1400  -2.0985  -2.0941  -1.9531  -1.8962  -1.8095
    -1.8046  -1.6505  -1.4879  -1.4060  -1.3965  -0.9808  -0.8557  -0.7405
    -0.6903  -0.4405  -0.2393  -0.1707  -0.0404  -0.0300  -0.0164   0.0946
     0.1760   0.1908   0.2075   0.2840   0.3066

     occupation numbers 
     1.0000   1.0000   1.0000   1.0000   1.0000   1.0000   1.0000   1.0000
     1.0000   1.0000   1.0000   1.0000   1.0000   1.0000   1.0000   1.0000
     1.0000   1.0000   1.0000   1.0000   1.0000   1.0000   1.0000   1.0000
     1.0000   1.0000   1.0000   1.0000   1.0000   1.0000   1.0000   1.0000
     1.0000   1.0000   1.0000   1.0000   1.0000   1.0000   1.0000   1.0000
     1.0000   1.0000   1.0000   1.0000   1.0000   1.0000   1.0000   1.0000
     1.0000   1.0000   1.0000   1.0000   1.0000   1.0000   1.0000   1.0000
     1.0000   1.0000   1.0000   1.0000   1.0000   1.0000   1.0000   1.0000
     1.0000   1.0000   1.0000   1.0000   1.0000   1.0007   1.0014   1.0046
     1.0444   1.0728   1.0788   1.0762   0.7850   0.3572   0.3489   0.0536
     0.0286   0.0003   0.0002   0.0000   0.0000   0.0000   0.0000   0.0000
     0.0000   0.0000   0.0000   0.0000   0.0000   0.0000   0.0000   0.0000
     0.0000   0.0000   0.0000   0.0000   0.0000   0.0000   0.0000   0.0000
     0.0000   0.0000   0.0000   0.0000   0.0000   0.0000   0.0000   0.0000
     0.0000   0.0000   0.0000   0.0000   0.0000

          k = 0.1000-0.2774 0.0000 (361248 PWs)   bands (ev):

   -50.5213 -50.5213 -50.5200 -50.5200 -50.1059 -50.1058 -50.1044 -50.1043
   -50.0848 -50.0848 -50.0834 -50.0834 -50.0516 -50.0515 -50.0503 -50.0501
   -49.6250 -49.6249 -49.6234 -49.6233 -49.4552 -49.4470 -49.4465 -49.4448
   -49.4446 -49.4434 -49.4419 -49.4418 -49.4368 -49.4353 -49.4353 -49.4350
   -49.4342 -49.4337 -49.4311 -49.4307 -49.4274 -49.4269 -49.4259 -49.4259
   -49.4207 -49.4204 -49.4195 -49.4178 -49.4084 -49.4081 -49.4068 -49.4066
   -49.3928 -49.3927 -49.3924 -49.3923  -6.1308  -6.1207  -5.7296  -5.7176
    -5.0783  -4.9902  -4.6649  -4.6575  -4.3254  -4.2155  -4.2037  -4.2027
    -4.1661  -4.0315  -3.8379  -3.8234  -3.5648  -3.4349  -3.2661  -3.2427
    -3.2271  -3.1677  -3.1305  -2.9412  -2.9142  -2.9040  -2.8769  -2.8533
    -2.6513  -2.5977  -2.5955  -2.5832  -2.5243  -2.4247  -2.4215  -2.3682
    -2.2498  -2.1875  -2.0989  -2.0908  -2.0884  -1.9981  -1.8804  -1.8707
    -1.8161  -1.6297  -1.4751  -1.3798  -1.3180  -1.1958  -0.8007  -0.6898
    -0.6003  -0.4083  -0.1554  -0.0150  -0.0069   0.0228   0.0495   0.0709
     0.1189   0.1232   0.1490   0.1529   0.2736

     occupation numbers 
     1.0000   1.0000   1.0000   1.0000   1.0000   1.0000   1.0000   1.0000
     1.0000   1.0000   1.0000   1.0000   1.0000   1.0000   1.0000   1.0000
     1.0000   1.0000   1.0000   1.0000   1.0000   1.0000   1.0000   1.0000
     1.0000   1.0000   1.0000   1.0000   1.0000   1.0000   1.0000   1.0000
     1.0000   1.0000   1.0000   1.0000   1.0000   1.0000   1.0000   1.0000
     1.0000   1.0000   1.0000   1.0000   1.0000   1.0000   1.0000   1.0000
     1.0000   1.0000   1.0000   1.0000   1.0000   1.0000   1.0000   1.0000
     1.0000   1.0000   1.0000   1.0000   1.0000   1.0000   1.0000   1.0000
     1.0000   1.0000   1.0000   1.0000   1.0000   1.0000   1.0059   1.0107
     1.0154   1.0467   1.0715   0.6018   0.4547   0.4018   0.2766   0.1886
     0.0007   0.0001   0.0001   0.0000   0.0000   0.0000   0.0000   0.0000
     0.0000   0.0000   0.0000   0.0000   0.0000   0.0000   0.0000   0.0000
     0.0000   0.0000   0.0000   0.0000   0.0000   0.0000   0.0000   0.0000
     0.0000   0.0000   0.0000   0.0000   0.0000   0.0000   0.0000   0.0000
     0.0000   0.0000   0.0000   0.0000   0.0000

          k = 0.2000 0.0000 0.0000 (361073 PWs)   bands (ev):

   -50.5212 -50.5212 -50.5201 -50.5201 -50.1058 -50.1057 -50.1045 -50.1045
   -50.0847 -50.0847 -50.0835 -50.0835 -50.0515 -50.0514 -50.0504 -50.0502
   -49.6249 -49.6247 -49.6236 -49.6234 -49.4547 -49.4477 -49.4468 -49.4445
   -49.4442 -49.4433 -49.4421 -49.4418 -49.4373 -49.4352 -49.4350 -49.4349
   -49.4339 -49.4333 -49.4317 -49.4310 -49.4276 -49.4272 -49.4258 -49.4255
   -49.4206 -49.4202 -49.4195 -49.4180 -49.4083 -49.4080 -49.4069 -49.4067
   -49.3927 -49.3927 -49.3924 -49.3923  -6.2361  -5.8406  -5.5000  -5.4978
    -5.2449  -5.1031  -4.9740  -4.7927  -4.5021  -4.4175  -4.4054  -4.0873
    -4.0827  -4.0774  -3.8388  -3.7196  -3.5713  -3.5554  -3.5303  -3.3584
    -3.3322  -3.1530  -3.1117  -3.0531  -2.9469  -2.9302  -2.8373  -2.7554
    -2.5097  -2.4623  -2.4251  -2.3880  -2.2992  -2.2935  -2.2908  -2.2399
    -2.1748  -2.1359  -2.1212  -2.0437  -1.9861  -1.9435  -1.8810  -1.8165
    -1.7345  -1.6097  -1.5363  -1.4314  -1.2578  -1.2333  -1.0778  -0.8176
    -0.8120  -0.4576  -0.3600  -0.2051  -0.1456  -0.0573   0.0232   0.0460
     0.1367   0.1495   0.2117   0.2206   0.2757

     occupation numbers 
     1.0000   1.0000   1.0000   1.0000   1.0000   1.0000   1.0000   1.0000
     1.0000   1.0000   1.0000   1.0000   1.0000   1.0000   1.0000   1.0000
     1.0000   1.0000   1.0000   1.0000   1.0000   1.0000   1.0000   1.0000
     1.0000   1.0000   1.0000   1.0000   1.0000   1.0000   1.0000   1.0000
     1.0000   1.0000   1.0000   1.0000   1.0000   1.0000   1.0000   1.0000
     1.0000   1.0000   1.0000   1.0000   1.0000   1.0000   1.0000   1.0000
     1.0000   1.0000   1.0000   1.0000   1.0000   1.0000   1.0000   1.0000
     1.0000   1.0000   1.0000   1.0000   1.0000   1.0000   1.0000   1.0000
     1.0000   1.0000   1.0000   1.0000   1.0000   1.0000   1.0000   1.0003
     1.0007   1.0567   1.0805   1.0522   0.6336   0.5412   0.1410   0.0213
     0.0000   0.0000   0.0000   0.0000   0.0000   0.0000   0.0000   0.0000
     0.0000   0.0000   0.0000   0.0000   0.0000   0.0000   0.0000   0.0000
     0.0000   0.0000   0.0000   0.0000   0.0000   0.0000   0.0000   0.0000
     0.0000   0.0000   0.0000   0.0000   0.0000   0.0000   0.0000   0.0000
     0.0000   0.0000   0.0000   0.0000   0.0000

          k = 0.2000 0.0925 0.0000 (361173 PWs)   bands (ev):

   -50.5212 -50.5212 -50.5201 -50.5201 -50.1058 -50.1057 -50.1045 -50.1045
   -50.0847 -50.0847 -50.0835 -50.0835 -50.0515 -50.0514 -50.0504 -50.0502
   -49.6249 -49.6247 -49.6236 -49.6234 -49.4547 -49.4477 -49.4468 -49.4445
   -49.4443 -49.4433 -49.4421 -49.4418 -49.4372 -49.4352 -49.4351 -49.4349
   -49.4339 -49.4334 -49.4317 -49.4311 -49.4275 -49.4272 -49.4258 -49.4255
   -49.4206 -49.4202 -49.4195 -49.4180 -49.4083 -49.4080 -49.4069 -49.4067
   -49.3927 -49.3927 -49.3924 -49.3923  -6.2159  -5.8269  -5.7147  -5.3538
    -5.2335  -5.1170  -4.7981  -4.7733  -4.6454  -4.3952  -4.3105  -4.2874
    -3.9889  -3.9528  -3.8280  -3.8140  -3.6984  -3.6957  -3.4315  -3.3686
    -3.3419  -3.2894  -3.0330  -2.9796  -2.8865  -2.8214  -2.7280  -2.6573
    -2.5508  -2.5169  -2.4938  -2.4684  -2.4604  -2.4216  -2.3219  -2.2597
    -2.2127  -2.0933  -2.0597  -2.0463  -1.9430  -1.8863  -1.8714  -1.7440
    -1.7422  -1.5207  -1.4544  -1.3859  -1.3312  -1.2369  -1.0096  -0.8029
    -0.6067  -0.4907  -0.4403  -0.3151  -0.1631  -0.0192   0.0180   0.0601
     0.1278   0.1911   0.2347   0.2717   0.3597

     occupation numbers 
     1.0000   1.0000   1.0000   1.0000   1.0000   1.0000   1.0000   1.0000
     1.0000   1.0000   1.0000   1.0000   1.0000   1.0000   1.0000   1.0000
     1.0000   1.0000   1.0000   1.0000   1.0000   1.0000   1.0000   1.0000
     1.0000   1.0000   1.0000   1.0000   1.0000   1.0000   1.0000   1.0000
     1.0000   1.0000   1.0000   1.0000   1.0000   1.0000   1.0000   1.0000
     1.0000   1.0000   1.0000   1.0000   1.0000   1.0000   1.0000   1.0000
     1.0000   1.0000   1.0000   1.0000   1.0000   1.0000   1.0000   1.0000
     1.0000   1.0000   1.0000   1.0000   1.0000   1.0000   1.0000   1.0000
     1.0000   1.0000   1.0000   1.0000   1.0000   1.0000   1.0000   1.0002
     1.0005   1.0030   1.0106   0.8064   0.3184   0.1030   0.0097   0.0009
     0.0000   0.0000   0.0000   0.0000   0.0000   0.0000   0.0000   0.0000
     0.0000   0.0000   0.0000   0.0000   0.0000   0.0000   0.0000   0.0000
     0.0000   0.0000   0.0000   0.0000   0.0000   0.0000   0.0000   0.0000
     0.0000   0.0000   0.0000   0.0000   0.0000   0.0000   0.0000   0.0000
     0.0000   0.0000   0.0000   0.0000   0.0000

          k = 0.2000 0.1849 0.0000 (361156 PWs)   bands (ev):

   -50.5212 -50.5212 -50.5201 -50.5201 -50.1058 -50.1057 -50.1045 -50.1045
   -50.0847 -50.0847 -50.0835 -50.0835 -50.0515 -50.0514 -50.0504 -50.0502
   -49.6249 -49.6247 -49.6236 -49.6234 -49.4547 -49.4477 -49.4468 -49.4445
   -49.4443 -49.4433 -49.4421 -49.4418 -49.4368 -49.4352 -49.4352 -49.4349
   -49.4338 -49.4337 -49.4316 -49.4311 -49.4274 -49.4272 -49.4258 -49.4255
   -49.4206 -49.4202 -49.4195 -49.4180 -49.4083 -49.4080 -49.4069 -49.4067
   -49.3927 -49.3927 -49.3924 -49.3923  -6.1553  -5.9160  -5.7481  -5.5161
    -5.0690  -4.9304  -4.8174  -4.7152  -4.5035  -4.4860  -4.3166  -4.2428
    -4.1888  -4.1038  -3.8793  -3.7678  -3.7388  -3.6536  -3.5374  -3.4280
    -3.2393  -3.1744  -3.0062  -2.8930  -2.8436  -2.8200  -2.7744  -2.6890
    -2.6447  -2.5758  -2.5485  -2.5309  -2.5169  -2.4311  -2.3209  -2.2629
    -2.1539  -2.1474  -2.0604  -2.0318  -1.9497  -1.8210  -1.8140  -1.7364
    -1.6816  -1.4198  -1.4185  -1.3430  -1.3207  -1.0029  -0.9129  -0.7345
    -0.6742  -0.5481  -0.3616  -0.2181  -0.1230  -0.0194   0.0593   0.0749
     0.1100   0.1757   0.2537   0.2585   0.2967

     occupation numbers 
     1.0000   1.0000   1.0000   1.0000   1.0000   1.0000   1.0000   1.0000
     1.0000   1.0000   1.0000   1.0000   1.0000   1.0000   1.0000   1.0000
     1.0000   1.0000   1.0000   1.0000   1.0000   1.0000   1.0000   1.0000
     1.0000   1.0000   1.0000   1.0000   1.0000   1.0000   1.0000   1.0000
     1.0000   1.0000   1.0000   1.0000   1.0000   1.0000   1.0000   1.0000
     1.0000   1.0000   1.0000   1.0000   1.0000   1.0000   1.0000   1.0000
     1.0000   1.0000   1.0000   1.0000   1.0000   1.0000   1.0000   1.0000
     1.0000   1.0000   1.0000   1.0000   1.0000   1.0000   1.0000   1.0000
     1.0000   1.0000   1.0000   1.0000   1.0000   1.0000   1.0000   1.0000
     1.0116   1.0422   0.9239   0.3481   0.1587   0.1000   0.0350   0.0028
     0.0005   0.0000   0.0000   0.0000   0.0000   0.0000   0.0000   0.0000
     0.0000   0.0000   0.0000   0.0000   0.0000   0.0000   0.0000   0.0000
     0.0000   0.0000   0.0000   0.0000   0.0000   0.0000   0.0000   0.0000
     0.0000   0.0000   0.0000   0.0000   0.0000   0.0000   0.0000   0.0000
     0.0000   0.0000   0.0000   0.0000   0.0000

          k = 0.2000-0.2774 0.0000 (361250 PWs)   bands (ev):

   -50.5212 -50.5212 -50.5201 -50.5201 -50.1058 -50.1057 -50.1045 -50.1045
   -50.0847 -50.0847 -50.0835 -50.0835 -50.0515 -50.0514 -50.0504 -50.0502
   -49.6249 -49.6247 -49.6236 -49.6234 -49.4547 -49.4477 -49.4468 -49.4445
   -49.4444 -49.4433 -49.4421 -49.4418 -49.4365 -49.4352 -49.4352 -49.4349
   -49.4340 -49.4338 -49.4316 -49.4311 -49.4274 -49.4272 -49.4258 -49.4255
   -49.4206 -49.4202 -49.4195 -49.4180 -49.4083 -49.4080 -49.4069 -49.4067
   -49.3927 -49.3927 -49.3924 -49.3923  -6.0596  -6.0493  -5.6582  -5.6463
    -5.0063  -4.9179  -4.6246  -4.6122  -4.5927  -4.5860  -4.2536  -4.2355
    -4.2227  -4.1325  -4.0944  -3.9571  -3.6079  -3.5050  -3.4936  -3.3632
    -3.2150  -3.2069  -3.0950  -2.9387  -2.8535  -2.8394  -2.7889  -2.7172
    -2.6918  -2.5803  -2.5164  -2.5150  -2.4812  -2.4410  -2.2931  -2.2857
    -2.2643  -2.1030  -2.0009  -1.9947  -1.9817  -1.9192  -1.7808  -1.5849
    -1.5489  -1.5114  -1.3833  -1.3380  -1.2611  -1.1286  -0.8216  -0.6619
    -0.6170  -0.4459  -0.3331  -0.1622  -0.1256  -0.0639  -0.0218   0.0584
     0.1608   0.1799   0.2005   0.2164   0.2412

     occupation numbers 
     1.0000   1.0000   1.0000   1.0000   1.0000   1.0000   1.0000   1.0000
     1.0000   1.0000   1.0000   1.0000   1.0000   1.0000   1.0000   1.0000
     1.0000   1.0000   1.0000   1.0000   1.0000   1.0000   1.0000   1.0000
     1.0000   1.0000   1.0000   1.0000   1.0000   1.0000   1.0000   1.0000
     1.0000   1.0000   1.0000   1.0000   1.0000   1.0000   1.0000   1.0000
     1.0000   1.0000   1.0000   1.0000   1.0000   1.0000   1.0000   1.0000
     1.0000   1.0000   1.0000   1.0000   1.0000   1.0000   1.0000   1.0000
     1.0000   1.0000   1.0000   1.0000   1.0000   1.0000   1.0000   1.0000
     1.0000   1.0000   1.0000   1.0000   1.0000   1.0000   1.0000   1.0002
     1.0201   1.0237   1.0833   0.5878   0.1891   0.1468   0.0501   0.0069
     0.0030   0.0000   0.0000   0.0000   0.0000   0.0000   0.0000   0.0000
     0.0000   0.0000   0.0000   0.0000   0.0000   0.0000   0.0000   0.0000
     0.0000   0.0000   0.0000   0.0000   0.0000   0.0000   0.0000   0.0000
     0.0000   0.0000   0.0000   0.0000   0.0000   0.0000   0.0000   0.0000
     0.0000   0.0000   0.0000   0.0000   0.0000

[...]
     atom   52 type  1   force =     0.00000001   -0.23001143   -8.33520338
     The core correction contribution to forces
     atom    1 type  1   force =     0.00000000    0.00000000    0.00000000
     atom    2 type  1   force =     0.00000000    0.00000000    0.00000000
     atom    3 type  1   force =     0.00000000    0.00000000    0.00000000
     atom    4 type  1   force =     0.00000000    0.00000000    0.00000000
     atom    5 type  1   force =     0.00000000    0.00000000    0.00000000
     atom    6 type  1   force =     0.00000000    0.00000000    0.00000000
     atom    7 type  1   force =     0.00000000    0.00000000    0.00000000
     atom    8 type  1   force =     0.00000000    0.00000000    0.00000000
     atom    9 type  1   force =     0.00000000    0.00000000    0.00000000
     atom   10 type  1   force =     0.00000000    0.00000000    0.00000000
     atom   11 type  1   force =     0.00000000    0.00000000    0.00000000
     atom   12 type  1   force =     0.00000000    0.00000000    0.00000000
     atom   13 type  1   force =     0.00000000    0.00000000    0.00000000
     atom   14 type  1   force =     0.00000000    0.00000000    0.00000000
     atom   15 type  1   force =     0.00000000    0.00000000    0.00000000
     atom   16 type  1   force =     0.00000000    0.00000000    0.00000000
     atom   17 type  1   force =     0.00000000    0.00000000    0.00000000
     atom   18 type  1   force =     0.00000000    0.00000000    0.00000000
     atom   19 type  1   force =     0.00000000    0.00000000    0.00000000
     atom   20 type  1   force =     0.00000000    0.00000000    0.00000000
     atom   21 type  1   force =     0.00000000    0.00000000    0.00000000
     atom   22 type  1   force =     0.00000000    0.00000000    0.00000000
     atom   23 type  1   force =     0.00000000    0.00000000    0.00000000
     atom   24 type  1   force =     0.00000000    0.00000000    0.00000000
     atom   25 type  1   force =     0.00000000    0.00000000    0.00000000
     atom   26 type  1   force =     0.00000000    0.00000000    0.00000000
     atom   27 type  1   force =     0.00000000    0.00000000    0.00000000
     atom   28 type  1   force =     0.00000000    0.00000000    0.00000000
     atom   29 type  1   force =     0.00000000    0.00000000    0.00000000
     atom   30 type  1   force =     0.00000000    0.00000000    0.00000000
     atom   31 type  1   force =     0.00000000    0.00000000    0.00000000
     atom   32 type  1   force =     0.00000000    0.00000000    0.00000000
     atom   33 type  1   force =     0.00000000    0.00000000    0.00000000
     atom   34 type  1   force =     0.00000000    0.00000000    0.00000000
     atom   35 type  1   force =     0.00000000    0.00000000    0.00000000
     atom   36 type  1   force =     0.00000000    0.00000000    0.00000000
     atom   37 type  1   force =     0.00000000    0.00000000    0.00000000
     atom   38 type  1   force =     0.00000000    0.00000000    0.00000000
     atom   39 type  1   force =     0.00000000    0.00000000    0.00000000
     atom   40 type  1   force =     0.00000000    0.00000000    0.00000000
     atom   41 type  1   force =     0.00000000    0.00000000    0.00000000
     atom   42 type  1   force =     0.00000000    0.00000000    0.00000000
     atom   43 type  1   force =     0.00000000    0.00000000    0.00000000
     atom   44 type  1   force =     0.00000000    0.00000000    0.00000000
     atom   45 type  1   force =     0.00000000    0.00000000    0.00000000
     atom   46 type  1   force =     0.00000000    0.00000000    0.00000000
     atom   47 type  1   force =     0.00000000    0.00000000    0.00000000
     atom   48 type  1   force =     0.00000000    0.00000000    0.00000000
     atom   49 type  1   force =     0.00000000    0.00000000    0.00000000
     atom   50 type  1   force =     0.00000000    0.00000000    0.00000000
     atom   51 type  1   force =     0.00000000    0.00000000    0.00000000
     atom   52 type  1   force =     0.00000000    0.00000000    0.00000000
     The Hubbard contrib.    to forces
     atom    1 type  1   force =     0.00000000    0.00000000    0.00000000
     atom    2 type  1   force =     0.00000000    0.00000000    0.00000000
     atom    3 type  1   force =     0.00000000    0.00000000    0.00000000
     atom    4 type  1   force =     0.00000000    0.00000000    0.00000000
     atom    5 type  1   force =     0.00000000    0.00000000    0.00000000
     atom    6 type  1   force =     0.00000000    0.00000000    0.00000000
     atom    7 type  1   force =     0.00000000    0.00000000    0.00000000
     atom    8 type  1   force =     0.00000000    0.00000000    0.00000000
     atom    9 type  1   force =     0.00000000    0.00000000    0.00000000
     atom   10 type  1   force =     0.00000000    0.00000000    0.00000000
     atom   11 type  1   force =     0.00000000    0.00000000    0.00000000
     atom   12 type  1   force =     0.00000000    0.00000000    0.00000000
     atom   13 type  1   force =     0.00000000    0.00000000    0.00000000
     atom   14 type  1   force =     0.00000000    0.00000000    0.00000000
     atom   15 type  1   force =     0.00000000    0.00000000    0.00000000
     atom   16 type  1   force =     0.00000000    0.00000000    0.00000000
     atom   17 type  1   force =     0.00000000    0.00000000    0.00000000
     atom   18 type  1   force =     0.00000000    0.00000000    0.00000000
     atom   19 type  1   force =     0.00000000    0.00000000    0.00000000
     atom   20 type  1   force =     0.00000000    0.00000000    0.00000000
     atom   21 type  1   force =     0.00000000    0.00000000    0.00000000
     atom   22 type  1   force =     0.00000000    0.00000000    0.00000000
     atom   23 type  1   force =     0.00000000    0.00000000    0.00000000
     atom   24 type  1   force =     0.00000000    0.00000000    0.00000000
     atom   25 type  1   force =     0.00000000    0.00000000    0.00000000
     atom   26 type  1   force =     0.00000000    0.00000000    0.00000000
     atom   27 type  1   force =     0.00000000    0.00000000    0.00000000
     atom   28 type  1   force =     0.00000000    0.00000000    0.00000000
     atom   29 type  1   force =     0.00000000    0.00000000    0.00000000
     atom   30 type  1   force =     0.00000000    0.00000000    0.00000000
     atom   31 type  1   force =     0.00000000    0.00000000    0.00000000
     atom   32 type  1   force =     0.00000000    0.00000000    0.00000000
     atom   33 type  1   force =     0.00000000    0.00000000    0.00000000
     atom   34 type  1   force =     0.00000000    0.00000000    0.00000000
     atom   35 type  1   force =     0.00000000    0.00000000    0.00000000
     atom   36 type  1   force =     0.00000000    0.00000000    0.00000000
     atom   37 type  1   force =     0.00000000    0.00000000    0.00000000
     atom   38 type  1   force =     0.00000000    0.00000000    0.00000000
     atom   39 type  1   force =     0.00000000    0.00000000    0.00000000
     atom   40 type  1   force =     0.00000000    0.00000000    0.00000000
     atom   41 type  1   force =     0.00000000    0.00000000    0.00000000
     atom   42 type  1   force =     0.00000000    0.00000000    0.00000000
     atom   43 type  1   force =     0.00000000    0.00000000    0.00000000
     atom   44 type  1   force =     0.00000000    0.00000000    0.00000000
     atom   45 type  1   force =     0.00000000    0.00000000    0.00000000
     atom   46 type  1   force =     0.00000000    0.00000000    0.00000000
     atom   47 type  1   force =     0.00000000    0.00000000    0.00000000
     atom   48 type  1   force =     0.00000000    0.00000000    0.00000000
     atom   49 type  1   force =     0.00000000    0.00000000    0.00000000
     atom   50 type  1   force =     0.00000000    0.00000000    0.00000000
     atom   51 type  1   force =     0.00000000    0.00000000    0.00000000
     atom   52 type  1   force =     0.00000000    0.00000000    0.00000000
     The SCF correction term to forces
     atom    1 type  1   force =     0.00000000    0.00000027   -0.00000047
     atom    2 type  1   force =    -0.00000000   -0.00000021   -0.00000058
     atom    3 type  1   force =    -0.00000000    0.00000004    0.00000040
     atom    4 type  1   force =     0.00000000    0.00000025   -0.00000064
     atom    5 type  1   force =     0.00000000   -0.00000003   -0.00000028
     atom    6 type  1   force =     0.00000000   -0.00000028   -0.00000003
     atom    7 type  1   force =     0.00000000   -0.00000016   -0.00000051
     atom    8 type  1   force =     0.00000000    0.00000014    0.00000005
     atom    9 type  1   force =     0.00000000    0.00000005    0.00000052
     atom   10 type  1   force =     0.00000000   -0.00000004    0.00000041
     atom   11 type  1   force =    -0.00000000    0.00000019    0.00000063
     atom   12 type  1   force =     0.00000000   -0.00000022    0.00000003
     atom   13 type  1   force =     0.00000000    0.00000008    0.00000001
     atom   14 type  1   force =    -0.00000000    0.00000014   -0.00000074
     atom   15 type  1   force =     0.00000000   -0.00000018   -0.00000048
     atom   16 type  1   force =    -0.00000000    0.00000018   -0.00000032
     atom   17 type  1   force =     0.00000000    0.00000024   -0.00000018
     atom   18 type  1   force =     0.00000000   -0.00000011    0.00000038
     atom   19 type  1   force =    -0.00000000   -0.00000012   -0.00000027
     atom   20 type  1   force =    -0.00000000   -0.00000007    0.00000008
     atom   21 type  1   force =     0.00000000    0.00000022    0.00000028
     atom   22 type  1   force =     0.00000000   -0.00000017    0.00000075
     atom   23 type  1   force =     0.00000000    0.00000012   -0.00000004
     atom   24 type  1   force =     0.00000000   -0.00000034   -0.00000003
     atom   25 type  1   force =     0.00000000    0.00000010   -0.00000008
     atom   26 type  1   force =     0.00000000   -0.00000035   -0.00000082
     atom   27 type  1   force =     0.00000000    0.00000026   -0.00000047
     atom   28 type  1   force =     0.00000000   -0.00000021   -0.00000058
     atom   29 type  1   force =     0.00000000    0.00000005    0.00000040
     atom   30 type  1   force =    -0.00000000    0.00000025   -0.00000064
     atom   31 type  1   force =    -0.00000000   -0.00000003   -0.00000028
     atom   32 type  1   force =     0.00000000   -0.00000028   -0.00000003
     atom   33 type  1   force =     0.00000000   -0.00000016   -0.00000051
     atom   34 type  1   force =     0.00000000    0.00000014    0.00000005
     atom   35 type  1   force =    -0.00000000    0.00000005    0.00000052
     atom   36 type  1   force =    -0.00000000   -0.00000004    0.00000041
     atom   37 type  1   force =    -0.00000000    0.00000019    0.00000063
     atom   38 type  1   force =     0.00000000   -0.00000022    0.00000003
     atom   39 type  1   force =    -0.00000000    0.00000009    0.00000001
     atom   40 type  1   force =     0.00000000    0.00000014   -0.00000074
     atom   41 type  1   force =    -0.00000000   -0.00000018   -0.00000048
     atom   42 type  1   force =     0.00000000    0.00000018   -0.00000032
     atom   43 type  1   force =    -0.00000000    0.00000024   -0.00000018
     atom   44 type  1   force =    -0.00000000   -0.00000011    0.00000038
     atom   45 type  1   force =     0.00000000   -0.00000012   -0.00000027
     atom   46 type  1   force =     0.00000000   -0.00000007    0.00000008
     atom   47 type  1   force =    -0.00000000    0.00000022    0.00000028
     atom   48 type  1   force =    -0.00000000   -0.00000017    0.00000075
     atom   49 type  1   force =    -0.00000000    0.00000012   -0.00000004
     atom   50 type  1   force =    -0.00000000   -0.00000034   -0.00000003
     atom   51 type  1   force =    -0.00000000    0.00000010   -0.00000008
     atom   52 type  1   force =    -0.00000000   -0.00000035   -0.00000082

     Total force =     0.001083     Total SCF correction =     0.000003
     Energy error            =      9.7E-06 Ry
     Gradient error          =      2.4E-04 Ry/Bohr

     bfgs converged in  22 scf cycles and  21 bfgs steps
     (criteria: energy <  1.0E-05 Ry, force <  3.9E-04 Ry/Bohr)

     End of BFGS Geometry Optimization

     Final energy             =    -781.9118118913 Ry

     File ./Li/Lithium.bfgs deleted, as requested
Begin final coordinates

ATOMIC_POSITIONS (angstrom)
Li               0.0000000000        7.9082177190       31.0790576979
Li               0.0000000000       10.4489872397       29.2818272083
Li               0.0000000000        2.8857092377       29.8466180388
Li               0.0000000000        5.7155171561       28.2198622009
Li               0.0000000000        8.5674104711       26.2780815835
Li               0.0000000000       11.3987335881       24.5232346211
Li               0.0000000000        0.9357238695       27.2359901852
Li               0.0000000000        3.8440291409       25.1436558634
Li               0.0000000000        6.6853871967       23.3273690991
Li               0.0000000000        9.4920649868       21.4463850146
Li               0.0000000000        1.9174473276       22.3848571065
Li               0.0000000000        4.1845998769       20.3812659244
Li               0.0000000000        0.9322600193       32.0996940162
Li               1.7175778468        8.0830800246       28.7177394690
Li               1.7175779048       10.9232018266       26.9014221809
Li               1.7175783341        3.3680913102       27.5221143351
Li               1.7175778093        6.2010302007       25.7669622286
Li               1.7175779438        9.0524126840       23.8256165251
Li               1.7175783235       11.8812072993       22.1984714277
Li               1.7175782363        1.4451340189       24.8091726482
Li               1.7175777599        4.3185514666       22.7628820306
Li               1.7175781978        6.8599798402       20.9658970862
Li               1.7175779396       10.5830302920       31.6635028839
Li               1.7175781923        1.4491161010       19.9454493863
Li               1.7175780094        5.2755055636       30.5990749026
Li               1.7175786068        0.4639595765       29.6601261230
Li               3.4351562293        7.9082173673       31.0790585726
Li               3.4351562293       10.4489879863       29.2818284209
Li               3.4351562293        2.8857090680       29.8466187239
Li               3.4351562293        5.7155163078       28.2198625144
Li               3.4351562293        8.5674100921       26.2780816156
Li               3.4351562293       11.3987340768       24.5232343601
Li               3.4351562293        0.9357253375       27.2359906334
Li               3.4351562293        3.8440286791       25.1436565880
Li               3.4351562293        6.6853868925       23.3273688751
Li               3.4351562293        9.4920645792       21.4463843275
Li               3.4351562293        1.9174474388       22.3848566904
Li               3.4351562293        4.1845996196       20.3812651395
Li               3.4351562293        0.9322593968       32.0996942905
Li               5.1527346119        8.0830800246       28.7177394690
Li               5.1527345538       10.9232018266       26.9014221809
Li               5.1527341245        3.3680913102       27.5221143351
Li               5.1527346494        6.2010302007       25.7669622286
Li               5.1527345149        9.0524126840       23.8256165251
Li               5.1527341351       11.8812072993       22.1984714277
Li               5.1527342224        1.4451340189       24.8091726482
Li               5.1527346988        4.3185514666       22.7628820306
Li               5.1527342609        6.8599798402       20.9658970862
Li               5.1527345191       10.5830302920       31.6635028839
Li               5.1527342664        1.4491161010       19.9454493863
Li               5.1527344493        5.2755055636       30.5990749026
Li               5.1527338518        0.4639595765       29.6601261230
End final coordinates



     Writing all to output data dir ./Li/Lithium.save/ :
     XML data file
     init_run     :     25.81s CPU     36.80s WALL (       1 calls)
     electrons    :  25931.33s CPU  33193.85s WALL (      22 calls)
     update_pot   :      3.09s CPU      3.72s WALL (      21 calls)
     forces       :    976.27s CPU   1021.94s WALL (      22 calls)

     Called by init_run:
     wfcinit      :      4.66s CPU      6.48s WALL (       1 calls)
     wfcinit:wfcr :      4.32s CPU      6.13s WALL (      12 calls)
     potinit      :      0.78s CPU      0.86s WALL (       1 calls)
     hinit0       :      5.66s CPU      6.40s WALL (       1 calls)

     Called by electrons:
     c_bands      :  21298.88s CPU  27492.37s WALL (     510 calls)
     sum_band     :   1091.05s CPU   1578.03s WALL (     510 calls)
     v_of_rho     :     54.20s CPU     63.52s WALL (     511 calls)
     v_h          :      4.63s CPU      5.57s WALL (     511 calls)
     v_xc         :     49.55s CPU     57.92s WALL (     511 calls)
     newd         :     27.90s CPU     30.91s WALL (     511 calls)
     PAW_pot      :      4.85s CPU      6.28s WALL (     532 calls)
     mix_rho      :    166.82s CPU    199.68s WALL (     510 calls)

     Called by c_bands:
     init_us_2    :    207.60s CPU    209.38s WALL (   12768 calls)
     cegterg      :  20330.20s CPU  25138.28s WALL (    8569 calls)

     Called by sum_band:
     sum_band:wei :      1.06s CPU      1.24s WALL (     510 calls)
     sum_band:loo :   1053.50s CPU   1525.91s WALL (     510 calls)
     sum_band:buf :     21.18s CPU     21.49s WALL (    6120 calls)
     sum_band:ini :    101.68s CPU    102.01s WALL (    6120 calls)
     sum_band:cal :    174.91s CPU    190.58s WALL (    6372 calls)
     sum_band:bec :      1.55s CPU      1.81s WALL (    6372 calls)
     addusdens    :     25.09s CPU     32.66s WALL (     510 calls)
                                        0.00s GPU  (     510 calls)
     addusd:skk   :      4.54s CPU      8.17s WALL (     510 calls)
                                        0.00s GPU  (     510 calls)

     Called by *egterg:
     cdiaghg      :   7074.10s CPU   7311.88s WALL (  130181 calls)
     cegterg:over :   1169.82s CPU   1260.71s WALL (  122344 calls)
     cegterg:upda :   1000.59s CPU   1021.43s WALL (  122344 calls)
     cegterg:last :    311.74s CPU    312.91s WALL (   10138 calls)
     h_psi        :   9324.00s CPU  13666.87s WALL (  130925 calls)
     s_psi        :   1036.77s CPU   1046.58s WALL (  130925 calls)
     g_psi        :      9.98s CPU     11.23s WALL (  122344 calls)

     Called by h_psi:
     h_psi:calbec :   1224.73s CPU   1360.31s WALL (  130925 calls)
     vloc_psi     :   6998.51s CPU  11172.83s WALL (  130925 calls)
                                        0.00s GPU  (  130925 calls)
     add_vuspsi   :   1054.95s CPU   1066.00s WALL (  130925 calls)

     General routines
     calbec       :   1424.34s CPU   1577.51s WALL (  138353 calls)
     fft          :     36.63s CPU     49.96s WALL (    6685 calls)
     ffts         :     90.73s CPU    112.58s WALL (   58462 calls)
     fftw         :   7502.63s CPU  12006.96s WALL ( 7345226 calls)
     interpolate  :      4.88s CPU      5.98s WALL (     511 calls)

     Parallel routines

     PAW routines
     PAW_pot      :      4.85s CPU      6.28s WALL (     532 calls)
     PAW_symme    :      0.20s CPU      0.28s WALL (    1042 calls)

     Environ routines

     PWSCF        :      7h33m CPU      9h35m WALL


   This run was terminated on:  20:30:33   2Jan2025            

=------------------------------------------------------------------------------=
   JOB DONE.
=------------------------------------------------------------------------------=
