
     Program PWSCF v.7.4 starts on 24Jan2025 at  1:57:13 

     This program is part of the open-source Quantum ESPRESSO suite
     for quantum simulation of materials; please cite
         "P. Giannozzi et al., J. Phys.:Condens. Matter 21 395502 (2009);
         "P. Giannozzi et al., J. Phys.:Condens. Matter 29 465901 (2017);
         "P. Giannozzi et al., J. Chem. Phys. 152 154105 (2020);
          URL http://www.quantum-espresso.org", 
     in publications or presentations arising from this work. More details at
     http://www.quantum-espresso.org/quote

     Parallel version (MPI & OpenMP), running on     256 processor cores
     Number of MPI processes:               256
     Threads/MPI process:                     1

     MPI processes distributed on     2 nodes
     233114 MiB available memory on the printing compute node when the environment starts

     Reading input from espresso.pwi
Warning: card &CELL ignored
Warning: card    PRESS_CONV_THR   = 0.1 ignored
Warning: card    CELL_DOFREE      = 'ALL' ignored
Warning: card / ignored
Warning: card &FCP ignored
Warning: card / ignored
Warning: card &RISM ignored
Warning: card / ignored

     Current dimensions of program PWSCF are:
     Max number of different atomic species (ntypx) = 10
     Max number of k-points (npk) =  40000
     Max angular momentum in pseudopotentials (lmaxx) =  4

     IMPORTANT: XC functional enforced from input :
     Exchange-correlation= PBE
                           (   1   4   3   4   0   0   0)
     Any further DFT definition will be discarded
     Please, verify this is what you really want


     Reading input from environ.in:
     * using ionic solvent mode
     * setting boundary derivatives method to SSCS default
     * setting electrolyte-boundary derivatives method to SSCS default

Environ Warning (1001): card EOF ignored

     

     R & G space division:  proc/nbgrp/npool/nimage =     256
     Subspace diagonalization in iterative solution of the eigenvalue problem:
     a serial algorithm will be used


     Parallelization info
     --------------------
     sticks:   dense  smooth     PW     G-vecs:    dense   smooth      PW
     Min          29      11      3                15801     3945     551
     Max          30      12      4                15890     4040     600
     Sum        7593    3025    841              4056641  1025567  148303

     Using Slab Decomposition



     bravais-lattice index     =           14
     lattice parameter (alat)  =      11.2436  a.u.
     unit-cell volume          =   10615.2838 (a.u.)^3
     number of atoms/cell      =           16
     number of atomic types    =            1
     number of electrons       =        48.00
     number of Kohn-Sham states=           36
     kinetic-energy cutoff     =      80.0000  Ry
     charge density cutoff     =     800.0000  Ry
     scf convergence threshold =      1.0E-06
     mixing beta               =       0.2000
     number of iterations used =            8  local-TF  mixing
     energy convergence thresh.=      1.0E-05
     force convergence thresh. =      3.9E-04
     Exchange-correlation= PBE
                           (   1   4   3   4   0   0   0)
     nstep                     =          999


     ================================================================================

                                  Environ Setup Summary

     ================================================================================

     Please cite

          O. Andreussi, I. Dabo and N. Marzari, J. Chem. Phys. 136, 064102 (2012)
          F. Nattino, M. Truscott, N. Marzari, and O. Andreussi, J. Chem. Phys. 150, 041722 (2019)

     in publications or presentations arising from this work.

     ================================================================================

     Parameters
     ==========

     compensation onset threshold      =               0.1000E+00
     static permittivity               =                    89.90
     surface tension in input (dyn/cm) =                    37.30
     surface tension in internal units =               0.4792E-04

     Solvent Boundary
     ================

     solvent mode                      =                    ionic
     derivatives method                =                   lowmem
     electrolyte derivatives method    =                   lowmem
     numerical core for derivatives    =                      fft
     switching function adopted        =                     SCCS
     density limit for vacuum region   =               0.5000E-02
     density limit for bulk solvent    =               0.1000E-03
     soft-sphere radius mode           =                    bondi
     soft-sphere softness              =                     0.50
     alpha                             =                     1.32

     Electrostatic Setup
     ===================

     electrostatic problem to solve    =                    modpb
     numerical solver adopted          =                   newton
     type of auxiliary density adopted =                     none
     numerical core for poisson        =                      fft
     adopting a nested solver scheme
     inner solver                      =                       cg
     inner core                        =                      fft
     type of pbc corrections           =                parabolic
     numerical core for corrections    =                      1da

     ================================================================================


     >>>>> Grand-Canonical SCF is activated <<<<<
     Initial Total Charge  =     0.000000 e
     Target Fermi Energy   =    -1.654000 eV
     Thr. of Fermi Energy  =     0.001000 eV
     Wave-shift of Kerker  =     0.400000 bohr^-1
     Wave-shift of Hartree =     1.500000 bohr^-1
     Mixing Rate of Fermi  =     0.050000

     celldm(1)=  11.243615  celldm(2)=   1.000000  celldm(3)=   7.921182
     celldm(4)=   0.000000  celldm(5)=   0.000000  celldm(6)=  -0.333333

     crystal axes: (cart. coord. in units of alat)
               a(1) = (   1.000000   0.000000   0.000000 )  
               a(2) = (  -0.333333   0.942809   0.000000 )  
               a(3) = (   0.000000   0.000000   7.921182 )  

     reciprocal axes: (cart. coord. in units 2 pi/alat)
               b(1) = (  1.000000  0.353553 -0.000000 )  
               b(2) = (  0.000000  1.060660  0.000000 )  
               b(3) = (  0.000000 -0.000000  0.126244 )  


     PseudoPot. # 1 for Li read from file:
     /work/e89/e89/ba3g18/Repos/Pseudopotentials/Pslibrary/Li.pbe-sl-kjpaw_psl.1.0.0.UPF
     MD5 check sum: 3f4d2cafebb47c6c3aa8ed472e6f074d
     Pseudo is Projector augmented-wave, Zval =  3.0
     Generated using 'atomic' code by A. Dal Corso  v.7.4
     Shape of augmentation charge: PSQ
     Using radial grid of 1017 points,  4 beta functions with: 
                l(1) =   0
                l(2) =   0
                l(3) =   1
                l(4) =   1
     Q(r) pseudized with 0 coefficients 


     atomic species   valence    mass     pseudopotential
     Li                3.00     6.94000     Li( 1.00)

      2 Sym. Ops. (no inversion) found


                                    s                        frac. trans.

      isym =  1     identity                                     

 cryst.   s( 1) = (     1          0          0      )
                  (     0          1          0      )
                  (     0          0          1      )

 cart.    s( 1) = (  1.0000000 -0.0000000  0.0000000 )
                  (  0.0000000  1.0000000  0.0000000 )
                  (  0.0000000  0.0000000  1.0000000 )


      isym =  2     180 deg rotation - cart. axis [0,0,1]        

 cryst.   s( 2) = (    -1          0          0      )
                  (     0         -1          0      )
                  (     0          0          1      )

 cart.    s( 2) = ( -1.0000000  0.0000000  0.0000000 )
                  (  0.0000000 -1.0000000  0.0000000 )
                  (  0.0000000  0.0000000  1.0000000 )


     point group C_2  (2)   
     there are  2 classes
     the character table:

       E     C2   
A      1.00  1.00
B      1.00 -1.00

     the symmetry operations in each class and the name of the first element:

     E        1
          identity                                               
     C2       2
          180 deg rotation - cart. axis [0,0,1]                  

   Cartesian axes

     site n.     atom                  positions (alat units)
         1        Li     tau(   1) = (   0.1666578   0.2356939   3.3442038  )
         2        Li     tau(   2) = (   0.3333333   0.4714046   3.7533361  )
         3        Li     tau(   3) = (   0.1666670   0.2356844   4.1675908  )
         4        Li     tau(   4) = (   0.3333333   0.4714046   4.5772534  )
         5        Li     tau(   5) = (  -0.0000041   0.7071175   3.3441915  )
         6        Li     tau(   6) = (   0.1666667   0.9428090   3.7533389  )
         7        Li     tau(   7) = (   0.0000040   0.7071235   4.1675720  )
         8        Li     tau(   8) = (   0.1666667   0.9428090   4.5772518  )
         9        Li     tau(   9) = (   0.6666708   0.2356915   3.3441915  )
        10        Li     tau(  10) = (   0.8333333   0.4714046   3.7533443  )
        11        Li     tau(  11) = (   0.6666626   0.2356856   4.1675720  )
        12        Li     tau(  12) = (   0.8333333   0.4714046   4.5772625  )
        13        Li     tau(  13) = (   0.5000089   0.7071151   3.3442038  )
        14        Li     tau(  14) = (   0.6666667   0.9428090   3.7533497  )
        15        Li     tau(  15) = (   0.4999997   0.7071247   4.1675908  )
        16        Li     tau(  16) = (   0.6666667   0.9428090   4.5772444  )

   Crystallographic axes

     site n.     atom                  positions (cryst. coord.)
         1        Li     tau(   1) = (  0.2499881  0.2499912  0.4221850  )
         2        Li     tau(   2) = (  0.4999999  0.5000001  0.4738354  )
         3        Li     tau(   3) = (  0.2499939  0.2499811  0.5261324  )
         4        Li     tau(   4) = (  0.4999999  0.5000001  0.5778498  )
         5        Li     tau(   5) = (  0.2499995  0.7500115  0.4221834  )
         6        Li     tau(   6) = (  0.4999997  1.0000001  0.4738357  )
         7        Li     tau(   7) = (  0.2500097  0.7500177  0.5261301  )
         8        Li     tau(   8) = (  0.4999997  1.0000000  0.5778496  )
         9        Li     tau(   9) = (  0.7500002  0.2499886  0.4221834  )
        10        Li     tau(  10) = (  0.9999999  0.5000001  0.4738364  )
        11        Li     tau(  11) = (  0.7499900  0.2499823  0.5261301  )
        12        Li     tau(  12) = (  0.9999999  0.5000001  0.5778509  )
        13        Li     tau(  13) = (  0.7500116  0.7500089  0.4221850  )
        14        Li     tau(  14) = (  0.9999997  1.0000000  0.4738371  )
        15        Li     tau(  15) = (  0.7500058  0.7500190  0.5261324  )
        16        Li     tau(  16) = (  0.9999997  1.0000000  0.5778487  )

     number of k points=    61  Marzari-Vanderbilt smearing, width (Ry)=  0.0100
                       cart. coord. in units 2pi/alat
        k(    1) = (   0.0000000   0.0000000   0.0000000), wk =   0.0165289
        k(    2) = (   0.0000000   0.0964237   0.0000000), wk =   0.0330579
        k(    3) = (   0.0000000   0.1928473   0.0000000), wk =   0.0330579
        k(    4) = (   0.0000000   0.2892710   0.0000000), wk =   0.0330579
        k(    5) = (   0.0000000   0.3856946   0.0000000), wk =   0.0330579
        k(    6) = (   0.0000000   0.4821183   0.0000000), wk =   0.0330579
        k(    7) = (   0.0909091   0.0321412   0.0000000), wk =   0.0330579
        k(    8) = (   0.0909091   0.1285648   0.0000000), wk =   0.0330579
        k(    9) = (   0.0909091   0.2249885   0.0000000), wk =   0.0330579
        k(   10) = (   0.0909091   0.3214122   0.0000000), wk =   0.0330579
        k(   11) = (   0.0909091   0.4178358   0.0000000), wk =   0.0330579
        k(   12) = (   0.0909091   0.5142595   0.0000000), wk =   0.0330579
        k(   13) = (   0.0909091  -0.4499771   0.0000000), wk =   0.0330579
        k(   14) = (   0.0909091  -0.3535534   0.0000000), wk =   0.0330579
        k(   15) = (   0.0909091  -0.2571298   0.0000000), wk =   0.0330579
        k(   16) = (   0.0909091  -0.1607061   0.0000000), wk =   0.0330579
        k(   17) = (   0.0909091  -0.0642825   0.0000000), wk =   0.0330579
        k(   18) = (   0.1818182   0.0642824   0.0000000), wk =   0.0330579
        k(   19) = (   0.1818182   0.1607060   0.0000000), wk =   0.0330579
        k(   20) = (   0.1818182   0.2571297   0.0000000), wk =   0.0330579
        k(   21) = (   0.1818182   0.3535533   0.0000000), wk =   0.0330579
        k(   22) = (   0.1818182   0.4499770   0.0000000), wk =   0.0330579
        k(   23) = (   0.1818182   0.5464007   0.0000000), wk =   0.0330579
        k(   24) = (   0.1818182  -0.4178359   0.0000000), wk =   0.0330579
        k(   25) = (   0.1818182  -0.3214123   0.0000000), wk =   0.0330579
        k(   26) = (   0.1818182  -0.2249886   0.0000000), wk =   0.0330579
        k(   27) = (   0.1818182  -0.1285649   0.0000000), wk =   0.0330579
        k(   28) = (   0.1818182  -0.0321413   0.0000000), wk =   0.0330579
        k(   29) = (   0.2727273   0.0964236   0.0000000), wk =   0.0330579
        k(   30) = (   0.2727273   0.1928472   0.0000000), wk =   0.0330579
        k(   31) = (   0.2727273   0.2892709   0.0000000), wk =   0.0330579
        k(   32) = (   0.2727273   0.3856945   0.0000000), wk =   0.0330579
        k(   33) = (   0.2727273   0.4821182   0.0000000), wk =   0.0330579
        k(   34) = (   0.2727273   0.5785418   0.0000000), wk =   0.0330579
        k(   35) = (   0.2727273  -0.3856947   0.0000000), wk =   0.0330579
        k(   36) = (   0.2727273  -0.2892711   0.0000000), wk =   0.0330579
        k(   37) = (   0.2727273  -0.1928474   0.0000000), wk =   0.0330579
        k(   38) = (   0.2727273  -0.0964238   0.0000000), wk =   0.0330579
        k(   39) = (   0.2727273  -0.0000001   0.0000000), wk =   0.0330579
        k(   40) = (   0.3636364   0.1285647   0.0000000), wk =   0.0330579
        k(   41) = (   0.3636364   0.2249884   0.0000000), wk =   0.0330579
        k(   42) = (   0.3636364   0.3214121   0.0000000), wk =   0.0330579
        k(   43) = (   0.3636364   0.4178357   0.0000000), wk =   0.0330579
        k(   44) = (   0.3636364   0.5142594   0.0000000), wk =   0.0330579
        k(   45) = (   0.3636364   0.6106830   0.0000000), wk =   0.0330579
        k(   46) = (   0.3636364  -0.3535535   0.0000000), wk =   0.0330579
        k(   47) = (   0.3636364  -0.2571299   0.0000000), wk =   0.0330579
        k(   48) = (   0.3636364  -0.1607062   0.0000000), wk =   0.0330579
        k(   49) = (   0.3636364  -0.0642826   0.0000000), wk =   0.0330579
        k(   50) = (   0.3636364   0.0321411   0.0000000), wk =   0.0330579
        k(   51) = (   0.4545455   0.1607059   0.0000000), wk =   0.0330579
        k(   52) = (   0.4545455   0.2571296   0.0000000), wk =   0.0330579
        k(   53) = (   0.4545455   0.3535532   0.0000000), wk =   0.0330579
        k(   54) = (   0.4545455   0.4499769   0.0000000), wk =   0.0330579
        k(   55) = (   0.4545455   0.5464006   0.0000000), wk =   0.0330579
        k(   56) = (   0.4545455   0.6428242   0.0000000), wk =   0.0330579
        k(   57) = (   0.4545455  -0.3214123   0.0000000), wk =   0.0330579
        k(   58) = (   0.4545455  -0.2249887   0.0000000), wk =   0.0330579
        k(   59) = (   0.4545455  -0.1285650   0.0000000), wk =   0.0330579
        k(   60) = (   0.4545455  -0.0321414   0.0000000), wk =   0.0330579
        k(   61) = (   0.4545455   0.0642823   0.0000000), wk =   0.0330579

                       cryst. coord.
        k(    1) = (   0.0000000   0.0000000   0.0000000), wk =   0.0165289
        k(    2) = (   0.0000000   0.0909091   0.0000000), wk =   0.0330579
        k(    3) = (   0.0000000   0.1818182   0.0000000), wk =   0.0330579
        k(    4) = (   0.0000000   0.2727273   0.0000000), wk =   0.0330579
        k(    5) = (   0.0000000   0.3636364   0.0000000), wk =   0.0330579
        k(    6) = (   0.0000000   0.4545455   0.0000000), wk =   0.0330579
        k(    7) = (   0.0909091  -0.0000000   0.0000000), wk =   0.0330579
        k(    8) = (   0.0909091   0.0909091   0.0000000), wk =   0.0330579
        k(    9) = (   0.0909091   0.1818182   0.0000000), wk =   0.0330579
        k(   10) = (   0.0909091   0.2727273   0.0000000), wk =   0.0330579
        k(   11) = (   0.0909091   0.3636364   0.0000000), wk =   0.0330579
        k(   12) = (   0.0909091   0.4545455   0.0000000), wk =   0.0330579
        k(   13) = (   0.0909091  -0.4545455   0.0000000), wk =   0.0330579
        k(   14) = (   0.0909091  -0.3636364   0.0000000), wk =   0.0330579
        k(   15) = (   0.0909091  -0.2727273   0.0000000), wk =   0.0330579
        k(   16) = (   0.0909091  -0.1818182   0.0000000), wk =   0.0330579
        k(   17) = (   0.0909091  -0.0909091   0.0000000), wk =   0.0330579
        k(   18) = (   0.1818182  -0.0000000   0.0000000), wk =   0.0330579
        k(   19) = (   0.1818182   0.0909091   0.0000000), wk =   0.0330579
        k(   20) = (   0.1818182   0.1818182   0.0000000), wk =   0.0330579
        k(   21) = (   0.1818182   0.2727273   0.0000000), wk =   0.0330579
        k(   22) = (   0.1818182   0.3636364   0.0000000), wk =   0.0330579
        k(   23) = (   0.1818182   0.4545455   0.0000000), wk =   0.0330579
        k(   24) = (   0.1818182  -0.4545455   0.0000000), wk =   0.0330579
        k(   25) = (   0.1818182  -0.3636364   0.0000000), wk =   0.0330579
        k(   26) = (   0.1818182  -0.2727273   0.0000000), wk =   0.0330579
        k(   27) = (   0.1818182  -0.1818182   0.0000000), wk =   0.0330579
        k(   28) = (   0.1818182  -0.0909091   0.0000000), wk =   0.0330579
        k(   29) = (   0.2727273  -0.0000000   0.0000000), wk =   0.0330579
        k(   30) = (   0.2727273   0.0909091   0.0000000), wk =   0.0330579
        k(   31) = (   0.2727273   0.1818182   0.0000000), wk =   0.0330579
        k(   32) = (   0.2727273   0.2727273   0.0000000), wk =   0.0330579
        k(   33) = (   0.2727273   0.3636364   0.0000000), wk =   0.0330579
        k(   34) = (   0.2727273   0.4545455   0.0000000), wk =   0.0330579
        k(   35) = (   0.2727273  -0.4545455   0.0000000), wk =   0.0330579
        k(   36) = (   0.2727273  -0.3636364   0.0000000), wk =   0.0330579
        k(   37) = (   0.2727273  -0.2727273   0.0000000), wk =   0.0330579
        k(   38) = (   0.2727273  -0.1818182   0.0000000), wk =   0.0330579
        k(   39) = (   0.2727273  -0.0909091   0.0000000), wk =   0.0330579
        k(   40) = (   0.3636364  -0.0000000   0.0000000), wk =   0.0330579
        k(   41) = (   0.3636364   0.0909091   0.0000000), wk =   0.0330579
        k(   42) = (   0.3636364   0.1818182   0.0000000), wk =   0.0330579
        k(   43) = (   0.3636364   0.2727273   0.0000000), wk =   0.0330579
        k(   44) = (   0.3636364   0.3636364   0.0000000), wk =   0.0330579
        k(   45) = (   0.3636364   0.4545455   0.0000000), wk =   0.0330579
        k(   46) = (   0.3636364  -0.4545455   0.0000000), wk =   0.0330579
        k(   47) = (   0.3636364  -0.3636364   0.0000000), wk =   0.0330579
        k(   48) = (   0.3636364  -0.2727273   0.0000000), wk =   0.0330579
        k(   49) = (   0.3636364  -0.1818182   0.0000000), wk =   0.0330579
        k(   50) = (   0.3636364  -0.0909091   0.0000000), wk =   0.0330579
        k(   51) = (   0.4545455  -0.0000000   0.0000000), wk =   0.0330579
        k(   52) = (   0.4545455   0.0909091   0.0000000), wk =   0.0330579
        k(   53) = (   0.4545455   0.1818182   0.0000000), wk =   0.0330579
        k(   54) = (   0.4545455   0.2727273   0.0000000), wk =   0.0330579
        k(   55) = (   0.4545455   0.3636364   0.0000000), wk =   0.0330579
        k(   56) = (   0.4545455   0.4545455   0.0000000), wk =   0.0330579
        k(   57) = (   0.4545455  -0.4545455   0.0000000), wk =   0.0330579
        k(   58) = (   0.4545455  -0.3636364   0.0000000), wk =   0.0330579
        k(   59) = (   0.4545455  -0.2727273   0.0000000), wk =   0.0330579
        k(   60) = (   0.4545455  -0.1818182   0.0000000), wk =   0.0330579
        k(   61) = (   0.4545455  -0.0909091   0.0000000), wk =   0.0330579

     Dense  grid:  4056641 G-vectors     FFT dimensions: ( 108, 108, 810)

     Smooth grid:  1025567 G-vectors     FFT dimensions: (  72,  72, 512)

     Dynamical RAM for                 wfc:       0.28 MB

     Dynamical RAM for     wfc (w. buffer):      17.06 MB

     Dynamical RAM for           str. fact:       0.24 MB

     Dynamical RAM for           local pot:       0.00 MB

     Dynamical RAM for          nlocal pot:       0.98 MB

     Dynamical RAM for                qrad:       0.65 MB

     Dynamical RAM for          rho,v,vnew:       1.79 MB

     Dynamical RAM for               rhoin:       0.60 MB

     Dynamical RAM for            rho*nmix:       3.86 MB

     Dynamical RAM for           G-vectors:       0.94 MB

     Dynamical RAM for          h,s,v(r/c):       0.95 MB

     Dynamical RAM for          <psi|beta>:       0.07 MB

     Dynamical RAM for                 psi:       1.10 MB

     Dynamical RAM for                hpsi:       1.10 MB

     Dynamical RAM for                spsi:       1.10 MB

     Dynamical RAM for      wfcinit/wfcrot:       0.58 MB

     Dynamical RAM for           addusdens:      14.24 MB

     Dynamical RAM for          addusforce:      21.62 MB

     Estimated static dynamical RAM per process >      24.52 MB

     Estimated max dynamical RAM per process >      61.90 MB

     Estimated total dynamical RAM >      12.50 GB

     Initial potential from superposition of free atoms

     starting charge      47.9263, renormalised to      48.0000

     negative rho (up, down):  1.937E-03 0.000E+00
     Starting wfcs are random
     Checking if some PAW data can be deallocated... 

     total cpu time spent up to now is       17.9 secs

     Self-consistent Calculation

     iteration #  1     ecut=    80.00 Ry     beta= 0.20
     Davidson diagonalization with overlap

---- Real-time Memory Report at c_bands before calling an iterative solver
           245 MiB given to the printing process from OS
             0 MiB allocation reported by mallinfo(arena+hblkhd)
        222960 MiB available memory on the node where the printing process lives
------------------
     c_bands:  2 eigenvalues not converged
     c_bands:  1 eigenvalues not converged
     c_bands:  1 eigenvalues not converged
     c_bands:  1 eigenvalues not converged
     c_bands:  1 eigenvalues not converged
     c_bands:  1 eigenvalues not converged
     c_bands:  2 eigenvalues not converged
     c_bands:  1 eigenvalues not converged
     c_bands:  1 eigenvalues not converged
     ethr =  1.00E-12,  avg # of iterations =103.6

     negative rho (up, down):  1.462E-03 0.000E+00

     add environment contribution to local potential

     total cpu time spent up to now is      147.7 secs

     total energy              =    -240.69337261 Ry
     estimated scf accuracy    <       0.07367396 Ry

     total charge of GC-SCF    =       0.00018040 e
     the Fermi energy          =      -4.50240881 eV
                        (error :       2.84840881 eV)
     electrostatic embedding   =       0.00000000 Ry
     cavitation energy         =       0.01235683 Ry
     electrolyte free energy   =       0.00456895 Ry
     correction to one-el term =      -0.00000000 Ry

     iteration #  2     ecut=    80.00 Ry     beta= 0.20
     Davidson diagonalization with overlap

---- Real-time Memory Report at c_bands before calling an iterative solver
           245 MiB given to the printing process from OS
             0 MiB allocation reported by mallinfo(arena+hblkhd)
        223113 MiB available memory on the node where the printing process lives
------------------
     ethr =  1.00E-05,  avg # of iterations = 11.5

     negative rho (up, down):  1.120E-03 0.000E+00

     add environment contribution to local potential

     total cpu time spent up to now is      164.4 secs

     total energy              =    -240.63141169 Ry
     estimated scf accuracy    <       0.01929055 Ry

     total charge of GC-SCF    =      -0.02423662 e
     the Fermi energy          =      -3.67068172 eV
                        (error :       2.01668172 eV)
     electrostatic embedding   =      -0.01829198 Ry
     cavitation energy         =       0.01235683 Ry
     electrolyte free energy   =      -0.00239878 Ry
     correction to one-el term =      -0.18635439 Ry

     iteration #  3     ecut=    80.00 Ry     beta= 0.20
     Davidson diagonalization with overlap

---- Real-time Memory Report at c_bands before calling an iterative solver
           245 MiB given to the printing process from OS
             0 MiB allocation reported by mallinfo(arena+hblkhd)
        223126 MiB available memory on the node where the printing process lives
------------------
     ethr =  1.00E-05,  avg # of iterations = 14.4

     negative rho (up, down):  8.933E-04 0.000E+00

     add environment contribution to local potential

     total cpu time spent up to now is      183.0 secs

     total energy              =    -240.57080614 Ry
     estimated scf accuracy    <       0.01054571 Ry

     total charge of GC-SCF    =      -0.09984770 e
     the Fermi energy          =      -3.13667190 eV
                        (error :       1.48267190 eV)
     electrostatic embedding   =      -0.01669341 Ry
     cavitation energy         =       0.01235683 Ry
     electrolyte free energy   =      -0.00193181 Ry
     correction to one-el term =       0.28879574 Ry

     iteration #  4     ecut=    80.00 Ry     beta= 0.20
     Davidson diagonalization with overlap

---- Real-time Memory Report at c_bands before calling an iterative solver
           245 MiB given to the printing process from OS
             0 MiB allocation reported by mallinfo(arena+hblkhd)
        223129 MiB available memory on the node where the printing process lives
------------------
     ethr =  1.00E-05,  avg # of iterations = 11.1

     negative rho (up, down):  7.475E-04 0.000E+00

     add environment contribution to local potential

     total cpu time spent up to now is      199.5 secs

     total energy              =    -240.58933102 Ry
     estimated scf accuracy    <       0.00203825 Ry

     total charge of GC-SCF    =      -0.13015338 e
     the Fermi energy          =      -2.86019804 eV
                        (error :       1.20619804 eV)
     electrostatic embedding   =      -0.01808136 Ry
     cavitation energy         =       0.01235683 Ry
     electrolyte free energy   =      -0.00119960 Ry
     correction to one-el term =       2.73773682 Ry

     iteration #  5     ecut=    80.00 Ry     beta= 0.20
     Davidson diagonalization with overlap

---- Real-time Memory Report at c_bands before calling an iterative solver
           245 MiB given to the printing process from OS
             0 MiB allocation reported by mallinfo(arena+hblkhd)
        223128 MiB available memory on the node where the printing process lives
------------------
     ethr =  4.23E-06,  avg # of iterations =  9.2

     negative rho (up, down):  6.686E-04 0.000E+00

     add environment contribution to local potential

     total cpu time spent up to now is      213.2 secs

     total energy              =    -240.55032410 Ry
     estimated scf accuracy    <       0.00132645 Ry

     total charge of GC-SCF    =      -0.29736495 e
     the Fermi energy          =      -2.73248027 eV
                        (error :       1.07848027 eV)
     electrostatic embedding   =      -0.02016279 Ry
     cavitation energy         =       0.01235683 Ry
     electrolyte free energy   =      -0.00082470 Ry
     correction to one-el term =       3.66244071 Ry

     iteration #  6     ecut=    80.00 Ry     beta= 0.20
     Davidson diagonalization with overlap

---- Real-time Memory Report at c_bands before calling an iterative solver
           245 MiB given to the printing process from OS
             0 MiB allocation reported by mallinfo(arena+hblkhd)
        223061 MiB available memory on the node where the printing process lives
------------------
     ethr =  2.75E-06,  avg # of iterations = 10.8

     negative rho (up, down):  5.997E-04 0.000E+00

     add environment contribution to local potential

     total cpu time spent up to now is      229.6 secs

     total energy              =    -240.56651491 Ry
     estimated scf accuracy    <       0.00049143 Ry

     total charge of GC-SCF    =      -0.45805194 e
     the Fermi energy          =      -2.57684178 eV
                        (error :       0.92284178 eV)
     electrostatic embedding   =      -0.04684264 Ry
     cavitation energy         =       0.01235683 Ry
     electrolyte free energy   =      -0.00030947 Ry
     correction to one-el term =       8.92587342 Ry

     iteration #  7     ecut=    80.00 Ry     beta= 0.20
     Davidson diagonalization with overlap

---- Real-time Memory Report at c_bands before calling an iterative solver
           245 MiB given to the printing process from OS
             0 MiB allocation reported by mallinfo(arena+hblkhd)
        223057 MiB available memory on the node where the printing process lives
------------------
     ethr =  1.01E-06,  avg # of iterations =  7.8

     negative rho (up, down):  5.382E-04 0.000E+00

     add environment contribution to local potential

     total cpu time spent up to now is      244.2 secs

     total energy              =    -240.57016242 Ry
     estimated scf accuracy    <       0.00032381 Ry

     total charge of GC-SCF    =      -0.74403579 e
     the Fermi energy          =      -2.48179795 eV
                        (error :       0.82779795 eV)
     electrostatic embedding   =      -0.09045836 Ry
     cavitation energy         =       0.01235683 Ry
     electrolyte free energy   =      -0.00022701 Ry
     correction to one-el term =      13.99688306 Ry

     iteration #  8     ecut=    80.00 Ry     beta= 0.20
     Davidson diagonalization with overlap

---- Real-time Memory Report at c_bands before calling an iterative solver
           246 MiB given to the printing process from OS
             0 MiB allocation reported by mallinfo(arena+hblkhd)
        223058 MiB available memory on the node where the printing process lives
------------------
     ethr =  6.64E-07,  avg # of iterations =  9.5

     negative rho (up, down):  4.809E-04 0.000E+00

     add environment contribution to local potential

     total cpu time spent up to now is      260.5 secs

     total energy              =    -240.61085199 Ry
     estimated scf accuracy    <       0.00097521 Ry

     total charge of GC-SCF    =      -0.81797618 e
     the Fermi energy          =      -2.39911114 eV
                        (error :       0.74511114 eV)
     electrostatic embedding   =      -0.20800652 Ry
     cavitation energy         =       0.01235683 Ry
     electrolyte free energy   =      -0.00079394 Ry
     correction to one-el term =      22.39384830 Ry

     iteration #  9     ecut=    80.00 Ry     beta= 0.20
     Davidson diagonalization with overlap

---- Real-time Memory Report at c_bands before calling an iterative solver
           246 MiB given to the printing process from OS
             0 MiB allocation reported by mallinfo(arena+hblkhd)
        223048 MiB available memory on the node where the printing process lives
------------------
     ethr =  6.64E-07,  avg # of iterations =  7.2

     negative rho (up, down):  4.011E-04 0.000E+00

     add environment contribution to local potential

     total cpu time spent up to now is      273.1 secs

     total energy              =    -240.59490676 Ry
     estimated scf accuracy    <       0.00050060 Ry

     total charge of GC-SCF    =      -1.14707020 e
     the Fermi energy          =      -2.43096065 eV
                        (error :       0.77696065 eV)
     electrostatic embedding   =      -0.24766474 Ry
     cavitation energy         =       0.01235683 Ry
     electrolyte free energy   =      -0.00103874 Ry
     correction to one-el term =      24.44678246 Ry

     iteration # 10     ecut=    80.00 Ry     beta= 0.20
     Davidson diagonalization with overlap

---- Real-time Memory Report at c_bands before calling an iterative solver
           246 MiB given to the printing process from OS
             0 MiB allocation reported by mallinfo(arena+hblkhd)
        223045 MiB available memory on the node where the printing process lives
------------------
     ethr =  6.64E-07,  avg # of iterations = 11.5

     negative rho (up, down):  4.025E-04 0.000E+00

     add environment contribution to local potential

     total cpu time spent up to now is      290.8 secs

     total energy              =    -240.69535757 Ry
     estimated scf accuracy    <       0.00380963 Ry

     total charge of GC-SCF    =      -1.16258782 e
     the Fermi energy          =      -2.60872015 eV
                        (error :       0.95472015 eV)
     electrostatic embedding   =      -0.46436616 Ry
     cavitation energy         =       0.01235683 Ry
     electrolyte free energy   =      -0.00318414 Ry
     correction to one-el term =      33.45016885 Ry

     iteration # 11     ecut=    80.00 Ry     beta= 0.20
     Davidson diagonalization with overlap

---- Real-time Memory Report at c_bands before calling an iterative solver
           246 MiB given to the printing process from OS
             0 MiB allocation reported by mallinfo(arena+hblkhd)
        223030 MiB available memory on the node where the printing process lives
------------------
     ethr =  6.64E-07,  avg # of iterations = 11.6

     negative rho (up, down):  3.546E-04 0.000E+00

     add environment contribution to local potential

     total cpu time spent up to now is      309.0 secs

     total energy              =    -240.68464048 Ry
     estimated scf accuracy    <       0.02262467 Ry

     total charge of GC-SCF    =      -1.38030581 e
     the Fermi energy          =      -2.90257579 eV
                        (error :       1.24857579 eV)
     electrostatic embedding   =      -0.48309164 Ry
     cavitation energy         =       0.01235683 Ry
     electrolyte free energy   =      -0.00392963 Ry
     correction to one-el term =      34.18949405 Ry

     iteration # 12     ecut=    80.00 Ry     beta= 0.20
     Davidson diagonalization with overlap

---- Real-time Memory Report at c_bands before calling an iterative solver
           246 MiB given to the printing process from OS
             0 MiB allocation reported by mallinfo(arena+hblkhd)
        223013 MiB available memory on the node where the printing process lives
------------------
     ethr =  6.64E-07,  avg # of iterations =  7.3

     negative rho (up, down):  2.773E-04 0.000E+00

     add environment contribution to local potential

     total cpu time spent up to now is      323.2 secs

     total energy              =    -240.63136883 Ry
     estimated scf accuracy    <       0.02181714 Ry

     total charge of GC-SCF    =      -1.67143921 e
     the Fermi energy          =      -2.83125511 eV
                        (error :       1.17725511 eV)
     electrostatic embedding   =      -0.65941505 Ry
     cavitation energy         =       0.01235683 Ry
     electrolyte free energy   =      -0.00574343 Ry
     correction to one-el term =      40.25689308 Ry

     iteration # 13     ecut=    80.00 Ry     beta= 0.20
     Davidson diagonalization with overlap

---- Real-time Memory Report at c_bands before calling an iterative solver
           246 MiB given to the printing process from OS
             0 MiB allocation reported by mallinfo(arena+hblkhd)
        223037 MiB available memory on the node where the printing process lives
------------------
     ethr =  6.64E-07,  avg # of iterations = 10.1

     negative rho (up, down):  2.415E-04 0.000E+00

     add environment contribution to local potential

     total cpu time spent up to now is      340.3 secs

     total energy              =    -240.62734357 Ry
     estimated scf accuracy    <       0.00634611 Ry

     total charge of GC-SCF    =      -1.93745295 e
     the Fermi energy          =      -2.47810347 eV
                        (error :       0.82410347 eV)
     electrostatic embedding   =      -0.93073373 Ry
     cavitation energy         =       0.01235683 Ry
     electrolyte free energy   =      -0.00879812 Ry
     correction to one-el term =      48.43437206 Ry

     iteration # 14     ecut=    80.00 Ry     beta= 0.20
     Davidson diagonalization with overlap

---- Real-time Memory Report at c_bands before calling an iterative solver
           246 MiB given to the printing process from OS
             0 MiB allocation reported by mallinfo(arena+hblkhd)
        223036 MiB available memory on the node where the printing process lives
------------------
     ethr =  6.64E-07,  avg # of iterations = 11.7

     negative rho (up, down):  2.779E-04 0.000E+00

     add environment contribution to local potential

     total cpu time spent up to now is      358.6 secs

     total energy              =    -240.93143102 Ry
     estimated scf accuracy    <       0.00031953 Ry

     total charge of GC-SCF    =      -1.15400593 e
     the Fermi energy          =      -2.12907381 eV
                        (error :       0.47507381 eV)
     electrostatic embedding   =      -1.20811707 Ry
     cavitation energy         =       0.01235683 Ry
     electrolyte free energy   =      -0.01301082 Ry
     correction to one-el term =      56.27841512 Ry

     iteration # 15     ecut=    80.00 Ry     beta= 0.20
     Davidson diagonalization with overlap

---- Real-time Memory Report at c_bands before calling an iterative solver
           246 MiB given to the printing process from OS
             0 MiB allocation reported by mallinfo(arena+hblkhd)
        223029 MiB available memory on the node where the printing process lives
------------------
     ethr =  6.50E-07,  avg # of iterations = 14.7

     negative rho (up, down):  2.342E-04 0.000E+00

     add environment contribution to local potential

     total cpu time spent up to now is      378.4 secs

     total energy              =    -240.62239974 Ry
     estimated scf accuracy    <       0.00050890 Ry

     total charge of GC-SCF    =      -1.59676490 e
     the Fermi energy          =      -2.40158085 eV
                        (error :       0.74758085 eV)
     electrostatic embedding   =      -0.46351029 Ry
     cavitation energy         =       0.01235683 Ry
     electrolyte free energy   =      -0.00275111 Ry
     correction to one-el term =      34.01257222 Ry

     iteration # 16     ecut=    80.00 Ry     beta= 0.20
     Davidson diagonalization with overlap

---- Real-time Memory Report at c_bands before calling an iterative solver
           246 MiB given to the printing process from OS
             0 MiB allocation reported by mallinfo(arena+hblkhd)
        223029 MiB available memory on the node where the printing process lives
------------------
     ethr =  6.50E-07,  avg # of iterations =  9.1

     negative rho (up, down):  2.124E-04 0.000E+00

     add environment contribution to local potential

     total cpu time spent up to now is      395.2 secs

     total energy              =    -240.65044139 Ry
     estimated scf accuracy    <       0.00022520 Ry

     total charge of GC-SCF    =      -1.85926223 e
     the Fermi energy          =      -2.24167961 eV
                        (error :       0.58767961 eV)
     electrostatic embedding   =      -0.83889697 Ry
     cavitation energy         =       0.01235683 Ry
     electrolyte free energy   =      -0.00717303 Ry
     correction to one-el term =      46.48940137 Ry

     iteration # 17     ecut=    80.00 Ry     beta= 0.20
     Davidson diagonalization with overlap

---- Real-time Memory Report at c_bands before calling an iterative solver
           246 MiB given to the printing process from OS
             0 MiB allocation reported by mallinfo(arena+hblkhd)
        223011 MiB available memory on the node where the printing process lives
------------------
     ethr =  4.52E-07,  avg # of iterations =  8.2

     negative rho (up, down):  2.306E-04 0.000E+00

     add environment contribution to local potential

     total cpu time spent up to now is      411.7 secs

     total energy              =    -240.66794647 Ry
     estimated scf accuracy    <       0.00015630 Ry

     total charge of GC-SCF    =      -1.95157430 e
     the Fermi energy          =      -2.10383559 eV
                        (error :       0.44983559 eV)
     electrostatic embedding   =      -1.11806465 Ry
     cavitation energy         =       0.01235683 Ry
     electrolyte free energy   =      -0.01154853 Ry
     correction to one-el term =      54.16661464 Ry

     iteration # 18     ecut=    80.00 Ry     beta= 0.20
     Davidson diagonalization with overlap

---- Real-time Memory Report at c_bands before calling an iterative solver
           246 MiB given to the printing process from OS
             0 MiB allocation reported by mallinfo(arena+hblkhd)
        223009 MiB available memory on the node where the printing process lives
------------------
     ethr =  3.13E-07,  avg # of iterations =  8.7

     negative rho (up, down):  2.204E-04 0.000E+00

     add environment contribution to local potential

     total cpu time spent up to now is      428.5 secs

     total energy              =    -240.69134859 Ry
     estimated scf accuracy    <       0.00041221 Ry

     total charge of GC-SCF    =      -2.43839393 e
     the Fermi energy          =      -2.05286391 eV
                        (error :       0.39886391 eV)
     electrostatic embedding   =      -1.20520302 Ry
     cavitation energy         =       0.01235683 Ry
     electrolyte free energy   =      -0.01328146 Ry
     correction to one-el term =      55.86781158 Ry

     iteration # 19     ecut=    80.00 Ry     beta= 0.20
     Davidson diagonalization with overlap

---- Real-time Memory Report at c_bands before calling an iterative solver
           246 MiB given to the printing process from OS
             0 MiB allocation reported by mallinfo(arena+hblkhd)
        222982 MiB available memory on the node where the printing process lives
------------------
     ethr =  3.13E-07,  avg # of iterations =  9.2

     negative rho (up, down):  2.147E-04 0.000E+00

     add environment contribution to local potential

     total cpu time spent up to now is      445.6 secs

     total energy              =    -240.71360676 Ry
     estimated scf accuracy    <       0.00053745 Ry

     total charge of GC-SCF    =      -2.26762306 e
     the Fermi energy          =      -2.00579598 eV
                        (error :       0.35179598 eV)
     electrostatic embedding   =      -1.83923628 Ry
     cavitation energy         =       0.01235683 Ry
     electrolyte free energy   =      -0.02608626 Ry
     correction to one-el term =      69.42127925 Ry

     iteration # 20     ecut=    80.00 Ry     beta= 0.20
     Davidson diagonalization with overlap

---- Real-time Memory Report at c_bands before calling an iterative solver
           246 MiB given to the printing process from OS
             0 MiB allocation reported by mallinfo(arena+hblkhd)
        222987 MiB available memory on the node where the printing process lives
------------------
     ethr =  3.13E-07,  avg # of iterations =  6.5

     negative rho (up, down):  2.066E-04 0.000E+00

     add environment contribution to local potential

     total cpu time spent up to now is      460.4 secs

     total energy              =    -240.79995203 Ry
     estimated scf accuracy    <       0.00042892 Ry

     total charge of GC-SCF    =      -3.09077175 e
     the Fermi energy          =      -2.07548454 eV
                        (error :       0.42148454 eV)
     electrostatic embedding   =      -1.59636332 Ry
     cavitation energy         =       0.01235683 Ry
     electrolyte free energy   =      -0.02078201 Ry
     correction to one-el term =      64.32924058 Ry

     iteration # 21     ecut=    80.00 Ry     beta= 0.20
     Davidson diagonalization with overlap

---- Real-time Memory Report at c_bands before calling an iterative solver
           247 MiB given to the printing process from OS
             0 MiB allocation reported by mallinfo(arena+hblkhd)
        222982 MiB available memory on the node where the printing process lives
------------------
     ethr =  3.13E-07,  avg # of iterations = 11.8

     negative rho (up, down):  2.288E-04 0.000E+00

     add environment contribution to local potential

     total cpu time spent up to now is      479.7 secs

     total energy              =    -240.69441490 Ry
     estimated scf accuracy    <       0.00098892 Ry

     total charge of GC-SCF    =      -3.11312835 e
     the Fermi energy          =      -1.69549487 eV
                        (error :       0.04149487 eV)
     electrostatic embedding   =      -2.86533046 Ry
     cavitation energy         =       0.01235683 Ry
     electrolyte free energy   =      -0.05488220 Ry
     correction to one-el term =      87.37676305 Ry

     iteration # 22     ecut=    80.00 Ry     beta= 0.20
     Davidson diagonalization with overlap

---- Real-time Memory Report at c_bands before calling an iterative solver
           247 MiB given to the printing process from OS
             0 MiB allocation reported by mallinfo(arena+hblkhd)
        222986 MiB available memory on the node where the printing process lives
------------------
     ethr =  3.13E-07,  avg # of iterations =  7.7

     negative rho (up, down):  2.260E-04 0.000E+00

     add environment contribution to local potential

     total cpu time spent up to now is      495.9 secs

     total energy              =    -240.73281737 Ry
     estimated scf accuracy    <       0.00004796 Ry

     total charge of GC-SCF    =      -2.69206594 e
     the Fermi energy          =      -1.61366593 eV
                        (error :       0.04033407 eV)
     electrostatic embedding   =      -2.87203629 Ry
     cavitation energy         =       0.01235683 Ry
     electrolyte free energy   =      -0.05618219 Ry
     correction to one-el term =      87.05096988 Ry

     iteration # 23     ecut=    80.00 Ry     beta= 0.20
     Davidson diagonalization with overlap

---- Real-time Memory Report at c_bands before calling an iterative solver
           247 MiB given to the printing process from OS
             0 MiB allocation reported by mallinfo(arena+hblkhd)
        222988 MiB available memory on the node where the printing process lives
------------------
     ethr =  9.46E-08,  avg # of iterations = 10.5

     negative rho (up, down):  1.972E-04 0.000E+00

     add environment contribution to local potential

     total cpu time spent up to now is      515.1 secs

     total energy              =    -240.69760548 Ry
     estimated scf accuracy    <       0.00059450 Ry

     total charge of GC-SCF    =      -2.83848872 e
     the Fermi energy          =      -1.70675438 eV
                        (error :       0.05275438 eV)
     electrostatic embedding   =      -2.20158186 Ry
     cavitation energy         =       0.01235683 Ry
     electrolyte free energy   =      -0.03585270 Ry
     correction to one-el term =      76.25121637 Ry

     iteration # 24     ecut=    80.00 Ry     beta= 0.20
     Davidson diagonalization with overlap

---- Real-time Memory Report at c_bands before calling an iterative solver
           247 MiB given to the printing process from OS
             0 MiB allocation reported by mallinfo(arena+hblkhd)
        222943 MiB available memory on the node where the printing process lives
------------------
     ethr =  9.46E-08,  avg # of iterations =  8.0

     negative rho (up, down):  1.596E-04 0.000E+00

     add environment contribution to local potential

     total cpu time spent up to now is      532.0 secs

     total energy              =    -240.72163702 Ry
     estimated scf accuracy    <       0.00064471 Ry

     total charge of GC-SCF    =      -3.22669945 e
     the Fermi energy          =      -1.63097515 eV
                        (error :       0.02302485 eV)
     electrostatic embedding   =      -2.42353589 Ry
     cavitation energy         =       0.01235683 Ry
     electrolyte free energy   =      -0.04223947 Ry
     correction to one-el term =      80.05317785 Ry

     iteration # 25     ecut=    80.00 Ry     beta= 0.20
     Davidson diagonalization with overlap

---- Real-time Memory Report at c_bands before calling an iterative solver
           247 MiB given to the printing process from OS
             0 MiB allocation reported by mallinfo(arena+hblkhd)
        222946 MiB available memory on the node where the printing process lives
------------------
     ethr =  9.46E-08,  avg # of iterations = 10.7

     negative rho (up, down):  1.542E-04 0.000E+00

     add environment contribution to local potential

     total cpu time spent up to now is      550.2 secs

     total energy              =    -240.70437725 Ry
     estimated scf accuracy    <       0.00001230 Ry

     total charge of GC-SCF    =      -2.99539438 e
     the Fermi energy          =      -1.57508004 eV
                        (error :       0.07891996 eV)
     electrostatic embedding   =      -3.01715131 Ry
     cavitation energy         =       0.01235683 Ry
     electrolyte free energy   =      -0.06300317 Ry
     correction to one-el term =      88.59699220 Ry

     iteration # 26     ecut=    80.00 Ry     beta= 0.20
     Davidson diagonalization with overlap

---- Real-time Memory Report at c_bands before calling an iterative solver
           247 MiB given to the printing process from OS
             0 MiB allocation reported by mallinfo(arena+hblkhd)
        222947 MiB available memory on the node where the printing process lives
------------------
     ethr =  2.41E-08,  avg # of iterations = 10.9

     negative rho (up, down):  1.532E-04 0.000E+00

     add environment contribution to local potential

     total cpu time spent up to now is      569.8 secs

     total energy              =    -240.69542699 Ry
     estimated scf accuracy    <       0.00000298 Ry

     total charge of GC-SCF    =      -3.01392018 e
     the Fermi energy          =      -1.70759518 eV
                        (error :       0.05359518 eV)
     electrostatic embedding   =      -2.61868211 Ry
     cavitation energy         =       0.01235683 Ry
     electrolyte free energy   =      -0.04924028 Ry
     correction to one-el term =      82.21420920 Ry

     iteration # 27     ecut=    80.00 Ry     beta= 0.20
     Davidson diagonalization with overlap

---- Real-time Memory Report at c_bands before calling an iterative solver
           247 MiB given to the printing process from OS
             0 MiB allocation reported by mallinfo(arena+hblkhd)
        222966 MiB available memory on the node where the printing process lives
------------------
     ethr =  5.85E-09,  avg # of iterations =  6.0

     negative rho (up, down):  1.543E-04 0.000E+00

     add environment contribution to local potential

     total cpu time spent up to now is      583.7 secs

     total energy              =    -240.69588202 Ry
     estimated scf accuracy    <       0.00000247 Ry

     total charge of GC-SCF    =      -3.07113697 e
     the Fermi energy          =      -1.69716636 eV
                        (error :       0.04316636 eV)
     electrostatic embedding   =      -2.64910901 Ry
     cavitation energy         =       0.01235683 Ry
     electrolyte free energy   =      -0.05023075 Ry
     correction to one-el term =      82.71091504 Ry

     iteration # 28     ecut=    80.00 Ry     beta= 0.20
     Davidson diagonalization with overlap

---- Real-time Memory Report at c_bands before calling an iterative solver
           247 MiB given to the printing process from OS
             0 MiB allocation reported by mallinfo(arena+hblkhd)
        222976 MiB available memory on the node where the printing process lives
------------------
     ethr =  4.84E-09,  avg # of iterations =  9.7

     negative rho (up, down):  1.591E-04 0.000E+00

     add environment contribution to local potential

     total cpu time spent up to now is      601.2 secs

     total energy              =    -240.69601230 Ry
     estimated scf accuracy    <       0.00000208 Ry

     total charge of GC-SCF    =      -3.10995070 e
     the Fermi energy          =      -1.65873635 eV
                        (error :       0.00473635 eV)
     electrostatic embedding   =      -2.74202159 Ry
     cavitation energy         =       0.01235683 Ry
     electrolyte free energy   =      -0.05341071 Ry
     correction to one-el term =      84.20631660 Ry

     iteration # 29     ecut=    80.00 Ry     beta= 0.20
     Davidson diagonalization with overlap

---- Real-time Memory Report at c_bands before calling an iterative solver
           247 MiB given to the printing process from OS
             0 MiB allocation reported by mallinfo(arena+hblkhd)
        222981 MiB available memory on the node where the printing process lives
------------------
     ethr =  4.07E-09,  avg # of iterations =  7.8

     negative rho (up, down):  1.592E-04 0.000E+00

     add environment contribution to local potential

     total cpu time spent up to now is      617.9 secs

     total energy              =    -240.69569203 Ry
     estimated scf accuracy    <       0.00000121 Ry

     total charge of GC-SCF    =      -3.09078460 e
     the Fermi energy          =      -1.64011140 eV
                        (error :       0.01388860 eV)
     electrostatic embedding   =      -2.80526801 Ry
     cavitation energy         =       0.01235683 Ry
     electrolyte free energy   =      -0.05563591 Ry
     correction to one-el term =      85.17898098 Ry

     iteration # 30     ecut=    80.00 Ry     beta= 0.20
     Davidson diagonalization with overlap

---- Real-time Memory Report at c_bands before calling an iterative solver
           247 MiB given to the printing process from OS
             0 MiB allocation reported by mallinfo(arena+hblkhd)
        222958 MiB available memory on the node where the printing process lives
------------------
     ethr =  2.37E-09,  avg # of iterations =  8.5

     negative rho (up, down):  1.578E-04 0.000E+00

     add environment contribution to local potential

     total cpu time spent up to now is      634.9 secs

     total energy              =    -240.69568335 Ry
     estimated scf accuracy    <       0.00000010 Ry

     total charge of GC-SCF    =      -3.08660857 e
     the Fermi energy          =      -1.65534800 eV
                        (error :       0.00134800 eV)
     electrostatic embedding   =      -2.76926496 Ry
     cavitation energy         =       0.01235683 Ry
     electrolyte free energy   =      -0.05448583 Ry
     correction to one-el term =      84.55648385 Ry

     iteration # 31     ecut=    80.00 Ry     beta= 0.20
     Davidson diagonalization with overlap

---- Real-time Memory Report at c_bands before calling an iterative solver
           247 MiB given to the printing process from OS
             0 MiB allocation reported by mallinfo(arena+hblkhd)
        222960 MiB available memory on the node where the printing process lives
------------------
     ethr =  1.87E-10,  avg # of iterations =  9.2

     negative rho (up, down):  1.564E-04 0.000E+00

     add environment contribution to local potential

     total cpu time spent up to now is      652.4 secs

     total energy              =    -240.69569569 Ry
     estimated scf accuracy    <       0.00000007 Ry

     total charge of GC-SCF    =      -3.09737170 e
     the Fermi energy          =      -1.65777139 eV
                        (error :       0.00377139 eV)
     electrostatic embedding   =      -2.76267619 Ry
     cavitation energy         =       0.01235683 Ry
     electrolyte free energy   =      -0.05424674 Ry
     correction to one-el term =      84.45860011 Ry

     iteration # 32     ecut=    80.00 Ry     beta= 0.20
     Davidson diagonalization with overlap

---- Real-time Memory Report at c_bands before calling an iterative solver
           247 MiB given to the printing process from OS
             0 MiB allocation reported by mallinfo(arena+hblkhd)
        222967 MiB available memory on the node where the printing process lives
------------------
     ethr =  1.33E-10,  avg # of iterations =  8.8

     negative rho (up, down):  1.526E-04 0.000E+00

     total cpu time spent up to now is      666.7 secs

     End of self-consistent calculation

          k = 0.0000 0.0000 0.0000 (128001 PWs)   bands (ev):

   -48.4244 -48.4232 -48.4148 -48.4148 -48.4137 -48.4135 -48.4083 -48.4071
   -48.1695 -48.1607 -48.1565 -48.1561 -48.1549 -48.1546 -48.1519 -48.1458
    -5.0550  -4.5821  -3.8727  -3.1636  -2.3541  -1.5824  -1.5824  -1.5820
    -1.5819  -1.4043  -1.4043  -1.4039  -1.4039  -1.1631  -0.8845  -0.6632
    -0.5021  -0.0712   0.0716   0.2891

     occupation numbers 
     1.0000   1.0000   1.0000   1.0000   1.0000   1.0000   1.0000   1.0000
     1.0000   1.0000   1.0000   1.0000   1.0000   1.0000   1.0000   1.0000
     1.0000   1.0000   1.0000   1.0000   1.0000   0.1290   0.1290   0.1280
     0.1279   0.0008   0.0008   0.0008   0.0008   0.0000   0.0000   0.0000
     0.0000   0.0000   0.0000   0.0000

          k = 0.0000 0.0964 0.0000 (128124 PWs)   bands (ev):

   -48.4243 -48.4230 -48.4150 -48.4147 -48.4138 -48.4134 -48.4084 -48.4072
   -48.1692 -48.1605 -48.1567 -48.1562 -48.1548 -48.1544 -48.1520 -48.1460
    -5.0253  -4.5513  -3.8391  -3.1272  -2.3175  -2.1385  -1.7680  -1.7404
    -1.4779  -1.3612  -1.2979  -1.2978  -1.2057  -1.0591  -0.8487  -0.6243
    -0.5548  -0.0318   0.1106   0.3284

     occupation numbers 
     1.0000   1.0000   1.0000   1.0000   1.0000   1.0000   1.0000   1.0000
     1.0000   1.0000   1.0000   1.0000   1.0000   1.0000   1.0000   1.0000
     1.0000   1.0000   1.0000   1.0000   1.0000   1.0001   0.9674   0.8590
     0.0098   0.0001   0.0000   0.0000   0.0000   0.0000   0.0000   0.0000
     0.0000   0.0000   0.0000   0.0000

          k = 0.0000 0.1928 0.0000 (128159 PWs)   bands (ev):

   -48.4237 -48.4225 -48.4156 -48.4144 -48.4143 -48.4131 -48.4088 -48.4076
   -48.1685 -48.1601 -48.1577 -48.1561 -48.1548 -48.1538 -48.1523 -48.1465
    -4.9360  -4.4590  -3.7387  -3.0182  -2.6726  -2.2214  -2.2076  -1.8424
    -1.5115  -1.5056  -1.3170  -1.1583  -1.0885  -0.7867  -0.7416  -0.6905
    -0.5076   0.0867   0.2275   0.3904

     occupation numbers 
     1.0000   1.0000   1.0000   1.0000   1.0000   1.0000   1.0000   1.0000
     1.0000   1.0000   1.0000   1.0000   1.0000   1.0000   1.0000   1.0000
     1.0000   1.0000   1.0000   1.0000   1.0000   1.0000   1.0000   1.0832
     0.0253   0.0216   0.0000   0.0000   0.0000   0.0000   0.0000   0.0000
     0.0000   0.0000   0.0000   0.0000

          k = 0.0000 0.2893 0.0000 (128149 PWs)   bands (ev):

   -48.4228 -48.4216 -48.4165 -48.4153 -48.4137 -48.4125 -48.4094 -48.4082
   -48.1674 -48.1594 -48.1591 -48.1558 -48.1552 -48.1529 -48.1528 -48.1472
    -4.7873  -4.3057  -3.5724  -3.1635  -2.8371  -2.6797  -2.0245  -1.8927
    -1.8894  -1.4924  -1.4620  -1.0132  -0.9916  -0.8659  -0.7602  -0.5650
    -0.3131  -0.0628   0.1388   0.2841

     occupation numbers 
     1.0000   1.0000   1.0000   1.0000   1.0000   1.0000   1.0000   1.0000
     1.0000   1.0000   1.0000   1.0000   1.0000   1.0000   1.0000   1.0000
     1.0000   1.0000   1.0000   1.0000   1.0000   1.0000   1.0046   1.0636
     1.0657   0.0149   0.0060   0.0000   0.0000   0.0000   0.0000   0.0000
     0.0000   0.0000   0.0000   0.0000

          k = 0.0000 0.3857 0.0000 (128143 PWs)   bands (ev):

   -48.4216 -48.4204 -48.4176 -48.4164 -48.4129 -48.4117 -48.4102 -48.4090
   -48.1660 -48.1608 -48.1586 -48.1559 -48.1553 -48.1534 -48.1518 -48.1482
    -4.5792  -4.0920  -3.6026  -3.3417  -3.1077  -2.5850  -2.3084  -1.8844
    -1.7685  -1.6091  -1.4463  -1.4370  -1.0457  -0.8023  -0.5779  -0.3846
    -0.3224  -0.1188  -0.0412   0.5604

     occupation numbers 
     1.0000   1.0000   1.0000   1.0000   1.0000   1.0000   1.0000   1.0000
     1.0000   1.0000   1.0000   1.0000   1.0000   1.0000   1.0000   1.0000
     1.0000   1.0000   1.0000   1.0000   1.0000   1.0000   1.0000   1.0689
     0.9691   0.2093   0.0036   0.0026   0.0000   0.0000   0.0000   0.0000
     0.0000   0.0000   0.0000   0.0000

          k = 0.0000 0.4821 0.0000 (128153 PWs)   bands (ev):

   -48.4203 -48.4191 -48.4189 -48.4177 -48.4121 -48.4111 -48.4108 -48.4099
   -48.1643 -48.1625 -48.1576 -48.1567 -48.1547 -48.1541 -48.1506 -48.1494
    -4.3120  -3.9861  -3.8194  -3.4900  -3.0497  -2.7018  -2.2641  -1.8797
    -1.8316  -1.7369  -1.4404  -1.3410  -1.2082  -1.0420  -0.5931  -0.3648
    -0.0227   0.0238   0.3081   0.3091

     occupation numbers 
     1.0000   1.0000   1.0000   1.0000   1.0000   1.0000   1.0000   1.0000
     1.0000   1.0000   1.0000   1.0000   1.0000   1.0000   1.0000   1.0000
     1.0000   1.0000   1.0000   1.0000   1.0000   1.0000   1.0000   1.0718
     1.0804   0.8426   0.0029   0.0001   0.0000   0.0000   0.0000   0.0000
     0.0000   0.0000   0.0000   0.0000

          k = 0.0909 0.0321 0.0000 (128124 PWs)   bands (ev):

   -48.4243 -48.4230 -48.4150 -48.4147 -48.4138 -48.4134 -48.4084 -48.4072
   -48.1692 -48.1605 -48.1567 -48.1562 -48.1548 -48.1544 -48.1520 -48.1460
    -5.0253  -4.5513  -3.8391  -3.1272  -2.3175  -2.1385  -1.7680  -1.7404
    -1.4779  -1.3612  -1.2979  -1.2978  -1.2057  -1.0591  -0.8487  -0.6243
    -0.5548  -0.0318   0.1106   0.3284

     occupation numbers 
     1.0000   1.0000   1.0000   1.0000   1.0000   1.0000   1.0000   1.0000
     1.0000   1.0000   1.0000   1.0000   1.0000   1.0000   1.0000   1.0000
     1.0000   1.0000   1.0000   1.0000   1.0000   1.0001   0.9675   0.8590
     0.0098   0.0001   0.0000   0.0000   0.0000   0.0000   0.0000   0.0000
     0.0000   0.0000   0.0000   0.0000

          k = 0.0909 0.1286 0.0000 (128153 PWs)   bands (ev):

   -48.4240 -48.4228 -48.4150 -48.4149 -48.4138 -48.4136 -48.4085 -48.4073
   -48.1689 -48.1604 -48.1570 -48.1568 -48.1544 -48.1542 -48.1520 -48.1462
    -4.9757  -4.5002  -3.7837  -3.0670  -2.2949  -2.2949  -2.2566  -1.8858
    -1.8858  -1.3056  -1.3056  -1.0592  -0.8881  -0.8881  -0.7896  -0.5594
    -0.3984   0.0341   0.1755   0.3937

     occupation numbers 
     1.0000   1.0000   1.0000   1.0000   1.0000   1.0000   1.0000   1.0000
     1.0000   1.0000   1.0000   1.0000   1.0000   1.0000   1.0000   1.0000
     1.0000   1.0000   1.0000   1.0000   1.0000   1.0000   1.0000   1.0680
     1.0680   0.0000   0.0000   0.0000   0.0000   0.0000   0.0000   0.0000
     0.0000   0.0000   0.0000   0.0000

          k = 0.0909 0.2250 0.0000 (128141 PWs)   bands (ev):

   -48.4234 -48.4222 -48.4156 -48.4146 -48.4144 -48.4134 -48.4088 -48.4076
   -48.1681 -48.1599 -48.1580 -48.1569 -48.1545 -48.1537 -48.1521 -48.1467
    -4.8666  -4.3877  -3.6617  -2.9343  -2.8164  -2.3914  -2.3481  -2.1225
    -1.9496  -1.5968  -1.2809  -1.0029  -0.7798  -0.6896  -0.6596  -0.4167
    -0.3554   0.1788   0.3183   0.3194

     occupation numbers 
     1.0000   1.0000   1.0000   1.0000   1.0000   1.0000   1.0000   1.0000
     1.0000   1.0000   1.0000   1.0000   1.0000   1.0000   1.0000   1.0000
     1.0000   1.0000   1.0000   1.0000   1.0000   1.0000   1.0000   1.0002
     1.0272   0.1691   0.0000   0.0000   0.0000   0.0000   0.0000   0.0000
     0.0000   0.0000   0.0000   0.0000

          k = 0.0909 0.3214 0.0000 (128182 PWs)   bands (ev):

   -48.4224 -48.4212 -48.4165 -48.4153 -48.4141 -48.4128 -48.4094 -48.4082
   -48.1669 -48.1595 -48.1593 -48.1566 -48.1549 -48.1528 -48.1525 -48.1475
    -4.6979  -4.2142  -3.4740  -3.2905  -2.7991  -2.7296  -2.4300  -1.9999
    -1.9599  -1.9151  -1.2202  -1.1166  -1.0308  -0.4795  -0.4609  -0.4211
    -0.2046  -0.1963   0.4025   0.5806

     occupation numbers 
     1.0000   1.0000   1.0000   1.0000   1.0000   1.0000   1.0000   1.0000
     1.0000   1.0000   1.0000   1.0000   1.0000   1.0000   1.0000   1.0000
     1.0000   1.0000   1.0000   1.0000   1.0000   1.0000   1.0000   1.0089
     1.0222   1.0482   0.0000   0.0000   0.0000   0.0000   0.0000   0.0000
     0.0000   0.0000   0.0000   0.0000

          k = 0.0909 0.4178 0.0000 (128184 PWs)   bands (ev):

   -48.4213 -48.4200 -48.4177 -48.4165 -48.4133 -48.4121 -48.4102 -48.4089
   -48.1654 -48.1611 -48.1585 -48.1562 -48.1555 -48.1530 -48.1517 -48.1485
    -4.4696  -3.9806  -3.7112  -3.2227  -3.2129  -2.4544  -2.4134  -2.4121
    -1.9178  -1.6348  -1.5603  -1.1200  -1.1073  -0.7056  -0.5516  -0.2682
    -0.1982   0.1016   0.2752   0.5437

     occupation numbers 
     1.0000   1.0000   1.0000   1.0000   1.0000   1.0000   1.0000   1.0000
     1.0000   1.0000   1.0000   1.0000   1.0000   1.0000   1.0000   1.0000
     1.0000   1.0000   1.0000   1.0000   1.0000   1.0000   1.0000   1.0000
     1.0463   0.3119   0.0820   0.0000   0.0000   0.0000   0.0000   0.0000
     0.0000   0.0000   0.0000   0.0000

          k = 0.0909 0.5143 0.0000 (128204 PWs)   bands (ev):

   -48.4200 -48.4190 -48.4187 -48.4178 -48.4124 -48.4112 -48.4110 -48.4098
   -48.1637 -48.1629 -48.1576 -48.1565 -48.1555 -48.1536 -48.1505 -48.1497
    -4.1821  -4.0752  -3.6883  -3.5779  -2.9112  -2.7919  -2.3443  -2.1116
    -1.9801  -1.8254  -1.2826  -1.1957  -1.1486  -0.9778  -0.7053  -0.0767
    -0.0504   0.1168   0.1188   0.2315

     occupation numbers 
     1.0000   1.0000   1.0000   1.0000   1.0000   1.0000   1.0000   1.0000
     1.0000   1.0000   1.0000   1.0000   1.0000   1.0000   1.0000   1.0000
     1.0000   1.0000   1.0000   1.0000   1.0000   1.0000   1.0000   1.0003
     1.0143   1.0771   0.0000   0.0000   0.0000   0.0000   0.0000   0.0000
     0.0000   0.0000   0.0000   0.0000

          k = 0.0909-0.4500 0.0000 (128255 PWs)   bands (ev):

   -48.4204 -48.4191 -48.4186 -48.4174 -48.4120 -48.4114 -48.4108 -48.4103
   -48.1646 -48.1618 -48.1574 -48.1567 -48.1548 -48.1542 -48.1510 -48.1494
    -4.3813  -3.8886  -3.8360  -3.3399  -3.1220  -2.5461  -2.3443  -2.2265
    -1.7083  -1.6856  -1.5240  -1.2699  -0.8608  -0.8570  -0.7922  -0.4382
    -0.4128  -0.0943   0.1904   0.2172

     occupation numbers 
     1.0000   1.0000   1.0000   1.0000   1.0000   1.0000   1.0000   1.0000
     1.0000   1.0000   1.0000   1.0000   1.0000   1.0000   1.0000   1.0000
     1.0000   1.0000   1.0000   1.0000   1.0000   1.0000   1.0000   1.0000
     0.6971   0.5721   0.0350   0.0000   0.0000   0.0000   0.0000   0.0000
     0.0000   0.0000   0.0000   0.0000

          k = 0.0909-0.3536 0.0000 (128248 PWs)   bands (ev):

   -48.4217 -48.4204 -48.4173 -48.4161 -48.4129 -48.4117 -48.4105 -48.4093
   -48.1662 -48.1601 -48.1584 -48.1559 -48.1548 -48.1540 -48.1523 -48.1483
    -4.6287  -4.1416  -3.4326  -3.3941  -2.9402  -2.6430  -2.1406  -2.0650
    -1.8283  -1.5024  -1.3141  -1.2650  -0.9950  -0.8826  -0.7846  -0.5642
    -0.3767  -0.3762  -0.1062   0.4686

     occupation numbers 
     1.0000   1.0000   1.0000   1.0000   1.0000   1.0000   1.0000   1.0000
     1.0000   1.0000   1.0000   1.0000   1.0000   1.0000   1.0000   1.0000
     1.0000   1.0000   1.0000   1.0000   1.0000   1.0000   1.0001   1.0013
     1.0788   0.0198   0.0000   0.0000   0.0000   0.0000   0.0000   0.0000
     0.0000   0.0000   0.0000   0.0000

          k = 0.0909-0.2571 0.0000 (128274 PWs)   bands (ev):

   -48.4228 -48.4215 -48.4162 -48.4150 -48.4137 -48.4125 -48.4097 -48.4085
   -48.1675 -48.1592 -48.1585 -48.1555 -48.1552 -48.1534 -48.1533 -48.1473
    -4.8169  -4.3354  -3.6039  -2.9744  -2.8719  -2.4983  -2.0602  -1.8669
    -1.7254  -1.3193  -1.2957  -1.2825  -1.1053  -1.0987  -0.8612  -0.5982
    -0.3522  -0.2975   0.1488   0.2446

     occupation numbers 
     1.0000   1.0000   1.0000   1.0000   1.0000   1.0000   1.0000   1.0000
     1.0000   1.0000   1.0000   1.0000   1.0000   1.0000   1.0000   1.0000
     1.0000   1.0000   1.0000   1.0000   1.0000   1.0000   1.0016   1.0783
     0.7871   0.0000   0.0000   0.0000   0.0000   0.0000   0.0000   0.0000
     0.0000   0.0000   0.0000   0.0000

          k = 0.0909-0.1607 0.0000 (128233 PWs)   bands (ev):

   -48.4236 -48.4224 -48.4153 -48.4144 -48.4141 -48.4131 -48.4091 -48.4079
   -48.1685 -48.1599 -48.1571 -48.1558 -48.1549 -48.1542 -48.1527 -48.1466
    -4.9458  -4.4686  -3.7488  -3.0294  -2.4666  -2.2192  -2.0344  -1.6436
    -1.6397  -1.3780  -1.3748  -1.2756  -1.1962  -1.0366  -0.7907  -0.7523
    -0.5206  -0.0006   0.0735   0.2147

     occupation numbers 
     1.0000   1.0000   1.0000   1.0000   1.0000   1.0000   1.0000   1.0000
     1.0000   1.0000   1.0000   1.0000   1.0000   1.0000   1.0000   1.0000
     1.0000   1.0000   1.0000   1.0000   1.0000   1.0000   1.0035   0.3526
     0.3340   0.0003   0.0003   0.0000   0.0000   0.0000   0.0000   0.0000
     0.0000   0.0000   0.0000   0.0000

          k = 0.0909-0.0643 0.0000 (128178 PWs)   bands (ev):

   -48.4241 -48.4229 -48.4148 -48.4148 -48.4137 -48.4135 -48.4086 -48.4074
   -48.1691 -48.1604 -48.1565 -48.1561 -48.1549 -48.1546 -48.1523 -48.1461
    -5.0153  -4.5407  -3.8274  -3.1147  -2.3050  -1.9205  -1.9205  -1.5966
    -1.5966  -1.4135  -1.2608  -1.2607  -1.1907  -1.1907  -0.8362  -0.7834
    -0.6114  -0.0186   0.1237   0.3089

     occupation numbers 
     1.0000   1.0000   1.0000   1.0000   1.0000   1.0000   1.0000   1.0000
     1.0000   1.0000   1.0000   1.0000   1.0000   1.0000   1.0000   1.0000
     1.0000   1.0000   1.0000   1.0000   1.0000   1.0445   1.0445   0.1685
     0.1685   0.0011   0.0000   0.0000   0.0000   0.0000   0.0000   0.0000
     0.0000   0.0000   0.0000   0.0000

          k = 0.1818 0.0643 0.0000 (128159 PWs)   bands (ev):

   -48.4237 -48.4225 -48.4156 -48.4144 -48.4143 -48.4131 -48.4088 -48.4076
   -48.1685 -48.1601 -48.1577 -48.1561 -48.1548 -48.1538 -48.1523 -48.1465
    -4.9360  -4.4590  -3.7387  -3.0182  -2.6726  -2.2214  -2.2076  -1.8424
    -1.5115  -1.5056  -1.3170  -1.1583  -1.0885  -0.7867  -0.7416  -0.6905
    -0.5076   0.0867   0.2275   0.3904

     occupation numbers 
     1.0000   1.0000   1.0000   1.0000   1.0000   1.0000   1.0000   1.0000
     1.0000   1.0000   1.0000   1.0000   1.0000   1.0000   1.0000   1.0000
     1.0000   1.0000   1.0000   1.0000   1.0000   1.0000   1.0000   1.0832
     0.0253   0.0216   0.0000   0.0000   0.0000   0.0000   0.0000   0.0000
     0.0000   0.0000   0.0000   0.0000

          k = 0.1818 0.1607 0.0000 (128141 PWs)   bands (ev):

   -48.4234 -48.4222 -48.4156 -48.4146 -48.4144 -48.4134 -48.4088 -48.4076
   -48.1681 -48.1599 -48.1580 -48.1569 -48.1545 -48.1537 -48.1521 -48.1467
    -4.8666  -4.3877  -3.6617  -2.9343  -2.8164  -2.3914  -2.3481  -2.1225
    -1.9496  -1.5968  -1.2809  -1.0029  -0.7798  -0.6895  -0.6596  -0.4167
    -0.3554   0.1788   0.3183   0.3194

     occupation numbers 
     1.0000   1.0000   1.0000   1.0000   1.0000   1.0000   1.0000   1.0000
     1.0000   1.0000   1.0000   1.0000   1.0000   1.0000   1.0000   1.0000
     1.0000   1.0000   1.0000   1.0000   1.0000   1.0000   1.0000   1.0002
     1.0272   0.1691   0.0000   0.0000   0.0000   0.0000   0.0000   0.0000
     0.0000   0.0000   0.0000   0.0000

          k = 0.1818 0.2571 0.0000 (128129 PWs)   bands (ev):

   -48.4227 -48.4215 -48.4153 -48.4153 -48.4141 -48.4140 -48.4091 -48.4079
   -48.1672 -48.1595 -48.1581 -48.1580 -48.1539 -48.1538 -48.1522 -48.1472
    -4.7374  -4.2550  -3.5182  -2.8995  -2.8995  -2.7779  -2.4156  -2.4156
    -1.9639  -1.6310  -1.6310  -0.7599  -0.7599  -0.7475  -0.5074  -0.2480
    -0.0872   0.2501   0.2501   0.3499

     occupation numbers 
     1.0000   1.0000   1.0000   1.0000   1.0000   1.0000   1.0000   1.0000
     1.0000   1.0000   1.0000   1.0000   1.0000   1.0000   1.0000   1.0000
     1.0000   1.0000   1.0000   1.0000   1.0000   1.0000   1.0000   1.0000
     1.0205   0.2953   0.2952   0.0000   0.0000   0.0000   0.0000   0.0000
     0.0000   0.0000   0.0000   0.0000

          k = 0.1818 0.3536 0.0000 (128197 PWs)   bands (ev):

   -48.4218 -48.4205 -48.4162 -48.4150 -48.4147 -48.4135 -48.4097 -48.4085
   -48.1659 -48.1595 -48.1589 -48.1578 -48.1543 -48.1530 -48.1525 -48.1481
    -4.5483  -4.0612  -3.3569  -3.3096  -2.9237  -2.8575  -2.5499  -2.4250
    -2.0465  -1.7319  -1.6118  -1.1625  -0.7099  -0.6002  -0.2874  -0.2749
    -0.0016   0.0307   0.2450   0.5999

     occupation numbers 
     1.0000   1.0000   1.0000   1.0000   1.0000   1.0000   1.0000   1.0000
     1.0000   1.0000   1.0000   1.0000   1.0000   1.0000   1.0000   1.0000
     1.0000   1.0000   1.0000   1.0000   1.0000   1.0000   1.0000   1.0000
     1.0024   0.8191   0.2189   0.0000   0.0000   0.0000   0.0000   0.0000
     0.0000   0.0000   0.0000   0.0000

          k = 0.1818 0.4500 0.0000 (128249 PWs)   bands (ev):

   -48.4206 -48.4193 -48.4174 -48.4162 -48.4140 -48.4128 -48.4104 -48.4092
   -48.1644 -48.1611 -48.1581 -48.1573 -48.1550 -48.1529 -48.1519 -48.1492
    -4.2995  -3.8073  -3.7591  -3.2565  -3.0379  -2.8907  -2.4515  -2.3776
    -2.2518  -1.6054  -1.5380  -1.4270  -0.7593  -0.6152  -0.5686  -0.0416
    -0.0057   0.1294   0.3071   0.3222

     occupation numbers 
     1.0000   1.0000   1.0000   1.0000   1.0000   1.0000   1.0000   1.0000
     1.0000   1.0000   1.0000   1.0000   1.0000   1.0000   1.0000   1.0000
     1.0000   1.0000   1.0000   1.0000   1.0000   1.0000   1.0000   1.0000
     1.0000   0.1964   0.0493   0.0018   0.0000   0.0000   0.0000   0.0000
     0.0000   0.0000   0.0000   0.0000

          k = 0.1818 0.5464 0.0000 (128326 PWs)   bands (ev):

   -48.4193 -48.4187 -48.4180 -48.4175 -48.4131 -48.4119 -48.4113 -48.4101
   -48.1628 -48.1626 -48.1572 -48.1566 -48.1559 -48.1535 -48.1508 -48.1504
    -4.1040  -3.9913  -3.6041  -3.4951  -2.8163  -2.8026  -2.7073  -2.2750
    -2.0088  -1.8876  -1.4090  -1.1811  -1.0502  -0.6096  -0.4675  -0.4665
    -0.2369  -0.1962   0.2177   0.3219

     occupation numbers 
     1.0000   1.0000   1.0000   1.0000   1.0000   1.0000   1.0000   1.0000
     1.0000   1.0000   1.0000   1.0000   1.0000   1.0000   1.0000   1.0000
     1.0000   1.0000   1.0000   1.0000   1.0000   1.0000   1.0000   1.0000
     1.0071   1.0669   0.0010   0.0000   0.0000   0.0000   0.0000   0.0000
     0.0000   0.0000   0.0000   0.0000

          k = 0.1818-0.4178 0.0000 (128335 PWs)   bands (ev):

   -48.4201 -48.4189 -48.4179 -48.4167 -48.4124 -48.4120 -48.4111 -48.4109
   -48.1645 -48.1608 -48.1570 -48.1564 -48.1557 -48.1541 -48.1517 -48.1497
    -4.3905  -3.8959  -3.6243  -3.1280  -3.1273  -2.6615  -2.3522  -2.3256
    -2.1194  -1.5335  -1.4667  -1.2253  -0.9978  -0.6908  -0.6633  -0.6048
    -0.4866  -0.2588  -0.0971   0.2040

     occupation numbers 
     1.0000   1.0000   1.0000   1.0000   1.0000   1.0000   1.0000   1.0000
     1.0000   1.0000   1.0000   1.0000   1.0000   1.0000   1.0000   1.0000
     1.0000   1.0000   1.0000   1.0000   1.0000   1.0000   1.0000   1.0000
     1.0002   0.0443   0.0069   0.0000   0.0000   0.0000   0.0000   0.0000
     0.0000   0.0000   0.0000   0.0000

          k = 0.1818-0.3214 0.0000 (128355 PWs)   bands (ev):

   -48.4213 -48.4201 -48.4167 -48.4155 -48.4132 -48.4120 -48.4112 -48.4100
   -48.1660 -48.1591 -48.1579 -48.1557 -48.1549 -48.1548 -48.1530 -48.1486
    -4.6182  -4.1295  -3.3799  -3.2003  -2.7099  -2.6283  -2.4703  -1.9131
    -1.9094  -1.8143  -1.4632  -1.1089  -1.0193  -0.9885  -0.7441  -0.7321
    -0.3604  -0.1004  -0.0934   0.0100

     occupation numbers 
     1.0000   1.0000   1.0000   1.0000   1.0000   1.0000   1.0000   1.0000
     1.0000   1.0000   1.0000   1.0000   1.0000   1.0000   1.0000   1.0000
     1.0000   1.0000   1.0000   1.0000   1.0000   1.0000   1.0000   1.0495
     1.0521   1.0675   0.0062   0.0000   0.0000   0.0000   0.0000   0.0000
     0.0000   0.0000   0.0000   0.0000

          k = 0.1818-0.2250 0.0000 (128288 PWs)   bands (ev):

   -48.4224 -48.4212 -48.4156 -48.4144 -48.4141 -48.4129 -48.4103 -48.4091
   -48.1672 -48.1588 -48.1575 -48.1555 -48.1551 -48.1540 -48.1540 -48.1477
    -4.7867  -4.3034  -3.5685  -2.8340  -2.7223  -2.2542  -2.2327  -2.0224
    -1.8629  -1.6599  -1.4994  -1.4780  -0.9867  -0.7715  -0.7015  -0.6749
    -0.5602  -0.3135   0.2841   0.3393

     occupation numbers 
     1.0000   1.0000   1.0000   1.0000   1.0000   1.0000   1.0000   1.0000
     1.0000   1.0000   1.0000   1.0000   1.0000   1.0000   1.0000   1.0000
     1.0000   1.0000   1.0000   1.0000   1.0000   1.0000   1.0000   1.0049
     1.0800   0.4334   0.0182   0.0098   0.0000   0.0000   0.0000   0.0000
     0.0000   0.0000   0.0000   0.0000

          k = 0.1818-0.1286 0.0000 (128250 PWs)   bands (ev):

   -48.4232 -48.4219 -48.4148 -48.4148 -48.4137 -48.4135 -48.4096 -48.4084
   -48.1681 -48.1595 -48.1565 -48.1561 -48.1549 -48.1545 -48.1533 -48.1470
    -4.8960  -4.4167  -3.6919  -2.9679  -2.1971  -2.1971  -2.1574  -1.9541
    -1.7867  -1.7867  -1.3648  -1.2011  -1.2010  -0.7889  -0.7889  -0.6916
    -0.4559  -0.3694   0.1393   0.2799

     occupation numbers 
     1.0000   1.0000   1.0000   1.0000   1.0000   1.0000   1.0000   1.0000
     1.0000   1.0000   1.0000   1.0000   1.0000   1.0000   1.0000   1.0000
     1.0000   1.0000   1.0000   1.0000   1.0000   1.0000   1.0000   1.0249
     1.0203   1.0203   0.0002   0.0000   0.0000   0.0000   0.0000   0.0000
     0.0000   0.0000   0.0000   0.0000

          k = 0.1818-0.0321 0.0000 (128233 PWs)   bands (ev):

   -48.4236 -48.4224 -48.4153 -48.4144 -48.4141 -48.4131 -48.4091 -48.4079
   -48.1685 -48.1599 -48.1571 -48.1558 -48.1549 -48.1542 -48.1527 -48.1466
    -4.9458  -4.4686  -3.7488  -3.0294  -2.4666  -2.2192  -2.0344  -1.6436
    -1.6397  -1.3780  -1.3748  -1.2756  -1.1962  -1.0366  -0.7907  -0.7523
    -0.5206  -0.0006   0.0735   0.2147

     occupation numbers 
     1.0000   1.0000   1.0000   1.0000   1.0000   1.0000   1.0000   1.0000
     1.0000   1.0000   1.0000   1.0000   1.0000   1.0000   1.0000   1.0000
     1.0000   1.0000   1.0000   1.0000   1.0000   1.0000   1.0035   0.3526
     0.3340   0.0003   0.0002   0.0000   0.0000   0.0000   0.0000   0.0000
     0.0000   0.0000   0.0000   0.0000

          k = 0.2727 0.0964 0.0000 (128149 PWs)   bands (ev):

   -48.4228 -48.4216 -48.4165 -48.4153 -48.4137 -48.4125 -48.4094 -48.4082
   -48.1674 -48.1594 -48.1591 -48.1558 -48.1552 -48.1529 -48.1528 -48.1472
    -4.7873  -4.3057  -3.5724  -3.1635  -2.8371  -2.6797  -2.0245  -1.8927
    -1.8894  -1.4924  -1.4620  -1.0132  -0.9916  -0.8659  -0.7602  -0.5650
    -0.3131  -0.0628   0.1388   0.2841

     occupation numbers 
     1.0000   1.0000   1.0000   1.0000   1.0000   1.0000   1.0000   1.0000
     1.0000   1.0000   1.0000   1.0000   1.0000   1.0000   1.0000   1.0000
     1.0000   1.0000   1.0000   1.0000   1.0000   1.0000   1.0046   1.0636
     1.0657   0.0149   0.0060   0.0000   0.0000   0.0000   0.0000   0.0000
     0.0000   0.0000   0.0000   0.0000

          k = 0.2727 0.1928 0.0000 (128182 PWs)   bands (ev):

   -48.4224 -48.4212 -48.4165 -48.4153 -48.4140 -48.4128 -48.4094 -48.4082
   -48.1669 -48.1595 -48.1593 -48.1566 -48.1549 -48.1528 -48.1525 -48.1475
    -4.6979  -4.2142  -3.4740  -3.2905  -2.7991  -2.7296  -2.4300  -1.9999
    -1.9599  -1.9151  -1.2202  -1.1166  -1.0308  -0.4795  -0.4609  -0.4211
    -0.2046  -0.1963   0.4025   0.5806

     occupation numbers 
     1.0000   1.0000   1.0000   1.0000   1.0000   1.0000   1.0000   1.0000
     1.0000   1.0000   1.0000   1.0000   1.0000   1.0000   1.0000   1.0000
     1.0000   1.0000   1.0000   1.0000   1.0000   1.0000   1.0000   1.0089
[...]
   -48.1620 -48.1571 -48.1570 -48.1542 -48.1542 -48.1541 -48.1526 -48.1501
    -4.2297  -3.7268  -3.3619  -3.0138  -2.9414  -2.8309  -2.5152  -2.1508
    -2.1235  -1.9726  -1.6943  -1.6413  -1.3312  -1.0849  -0.8446  -0.7811
    -0.2413   0.0436   0.1047   0.1329

     occupation numbers 
     1.0000   1.0000   1.0000   1.0000   1.0000   1.0000   1.0000   1.0000
     1.0000   1.0000   1.0000   1.0000   1.0000   1.0000   1.0000   1.0000
     1.0000   1.0000   1.0000   1.0000   1.0000   1.0000   1.0000   1.0001
     1.0002   1.0168   0.6230   0.3439   0.0000   0.0000   0.0000   0.0000
     0.0000   0.0000   0.0000   0.0000

          k = 0.4545-0.1286 0.0000 (128342 PWs)   bands (ev):

   -48.4187 -48.4174 -48.4163 -48.4149 -48.4123 -48.4121 -48.4109 -48.4108
   -48.1628 -48.1584 -48.1558 -48.1551 -48.1548 -48.1533 -48.1516 -48.1492
    -4.3394  -3.8416  -3.3499  -3.0671  -3.0399  -2.8521  -2.5022  -2.2873
    -2.0405  -1.6233  -1.5795  -1.4689  -1.1563  -1.1406  -0.6975  -0.4902
    -0.2733  -0.1110  -0.0305   0.1640

     occupation numbers 
     1.0000   1.0000   1.0000   1.0000   1.0000   1.0000   1.0000   1.0000
     1.0000   1.0000   1.0000   1.0000   1.0000   1.0000   1.0000   1.0000
     1.0000   1.0000   1.0000   1.0000   1.0000   1.0000   1.0000   1.0000
     1.0028   0.2646   0.1231   0.0075   0.0000   0.0000   0.0000   0.0000
     0.0000   0.0000   0.0000   0.0000

          k = 0.4545-0.0321 0.0000 (128335 PWs)   bands (ev):

   -48.4193 -48.4180 -48.4172 -48.4158 -48.4115 -48.4114 -48.4102 -48.4100
   -48.1634 -48.1597 -48.1559 -48.1553 -48.1547 -48.1531 -48.1507 -48.1486
    -4.3899  -3.8956  -3.6237  -3.1274  -3.1270  -2.6609  -2.3518  -2.3249
    -2.1191  -1.5331  -1.4663  -1.2246  -0.9971  -0.6903  -0.6629  -0.6044
    -0.4862  -0.2584  -0.0970   0.2042

     occupation numbers 
     1.0000   1.0000   1.0000   1.0000   1.0000   1.0000   1.0000   1.0000
     1.0000   1.0000   1.0000   1.0000   1.0000   1.0000   1.0000   1.0000
     1.0000   1.0000   1.0000   1.0000   1.0000   1.0000   1.0000   1.0000
     1.0002   0.0443   0.0069   0.0000   0.0000   0.0000   0.0000   0.0000
     0.0000   0.0000   0.0000   0.0000

          k = 0.4545 0.0643 0.0000 (128255 PWs)   bands (ev):

   -48.4196 -48.4183 -48.4178 -48.4165 -48.4112 -48.4107 -48.4099 -48.4094
   -48.1635 -48.1608 -48.1563 -48.1556 -48.1537 -48.1532 -48.1499 -48.1483
    -4.3807  -3.8882  -3.8354  -3.3396  -3.1214  -2.5455  -2.3440  -2.2259
    -1.7079  -1.6853  -1.5235  -1.2692  -0.8604  -0.8567  -0.7915  -0.4377
    -0.4123  -0.0942   0.1908   0.2173

     occupation numbers 
     1.0000   1.0000   1.0000   1.0000   1.0000   1.0000   1.0000   1.0000
     1.0000   1.0000   1.0000   1.0000   1.0000   1.0000   1.0000   1.0000
     1.0000   1.0000   1.0000   1.0000   1.0000   1.0000   1.0000   1.0000
     0.6974   0.5732   0.0350   0.0000   0.0000   0.0000   0.0000   0.0000
     0.0000   0.0000   0.0000   0.0000

     the Fermi energy is    -1.6530 ev

!    total energy              =    -240.69567961 Ry
     total all-electron energy =      -240.695810 Ry
     estimated scf accuracy    <          4.8E-09 Ry

!    total charge of GC-SCF    =      -3.09661207 e
     smearing contrib. (-TS)   =      -0.00030311 Ry
     internal energy E=F+TS    =    -240.69537649 Ry

     The total energy is F=E-TS. E is the sum of the following terms:
     one-electron contribution =   -2624.44984483 Ry
     hartree contribution      =    1288.44203411 Ry
     xc contribution           =     -58.24530878 Ry
     ewald contribution        =    1069.88458017 Ry
     one-center paw contrib.   =       1.41117354 Ry
      -> PAW hartree energy AE =       7.45678885 Ry
      -> PAW hartree energy PS =      -7.23416440 Ry
      -> PAW xc energy AE      =      -3.49066035 Ry
      -> PAW xc energy PS      =       3.35623560 Ry
      -> total E_H with PAW    =    1288.66465855 Ry
      -> total E_XC with PAW   =     -58.37973353 Ry
     pot.stat. contrib. (-muN) =       0.37644509 Ry
     electrostatic embedding   =      -2.77931115 Ry
     cavitation energy         =       0.01235683 Ry
     electrolyte free energy   =      -0.05484529 Ry
     correction to one-el term =      84.70734382 Ry

     WARNING: you are using the parabolic pbc correction;
              the potential shift above must be added to 
              band and Fermi energies.

     convergence has been achieved in   3 iterations
     The dielectric solvent contribution to forces
     atom    1 type  1   force =    -0.00000031   -0.00000173    0.14245486
     atom    2 type  1   force =    -0.00000000    0.00000000    0.04913864
     atom    3 type  1   force =    -0.00000001   -0.00000096   -0.04912087
     atom    4 type  1   force =    -0.00000000    0.00000003   -0.14252079
     atom    5 type  1   force =    -0.00000027    0.00000171    0.14245330
     atom    6 type  1   force =    -0.00000000   -0.00000000    0.04913819
     atom    7 type  1   force =     0.00000003    0.00000095   -0.04911664
     atom    8 type  1   force =    -0.00000001   -0.00000002   -0.14252124
     atom    9 type  1   force =     0.00000025   -0.00000171    0.14245331
     atom   10 type  1   force =    -0.00000000    0.00000000    0.04913680
     atom   11 type  1   force =    -0.00000003   -0.00000095   -0.04911664
     atom   12 type  1   force =    -0.00000001    0.00000003   -0.14251935
     atom   13 type  1   force =     0.00000029    0.00000173    0.14245485
     atom   14 type  1   force =    -0.00000000   -0.00000000    0.04913547
     atom   15 type  1   force =     0.00000001    0.00000096   -0.04912087
     atom   16 type  1   force =    -0.00000002   -0.00000003   -0.14252226


     Forces acting on atoms (cartesian axes, Ry/au):

     atom    1 type  1   force =     0.00000208    0.00000416    0.00003596
     atom    2 type  1   force =     0.00000000    0.00000000   -0.00028907
     atom    3 type  1   force =    -0.00000061    0.00000897    0.00036598
     atom    4 type  1   force =     0.00000000    0.00000000   -0.00011476
     atom    5 type  1   force =     0.00000311   -0.00000405    0.00003791
     atom    6 type  1   force =     0.00000000    0.00000000   -0.00029379
     atom    7 type  1   force =     0.00000063   -0.00000776    0.00037312
     atom    8 type  1   force =     0.00000000    0.00000000   -0.00011336
     atom    9 type  1   force =    -0.00000311    0.00000405    0.00003791
     atom   10 type  1   force =     0.00000000    0.00000000   -0.00029402
     atom   11 type  1   force =    -0.00000063    0.00000776    0.00037312
     atom   12 type  1   force =     0.00000000    0.00000000   -0.00011860
     atom   13 type  1   force =    -0.00000208   -0.00000416    0.00003596
     atom   14 type  1   force =     0.00000000    0.00000000   -0.00029351
     atom   15 type  1   force =     0.00000061   -0.00000897    0.00036598
     atom   16 type  1   force =     0.00000000    0.00000000   -0.00010882
     The non-local contrib.  to forces
     atom    1 type  1   force =     0.00000222    0.00000784   -0.02929855
     atom    2 type  1   force =     0.00000000    0.00000000    0.00144436
     atom    3 type  1   force =     0.00000101    0.00001167   -0.00133570
     atom    4 type  1   force =     0.00000000    0.00000000    0.02918791
     atom    5 type  1   force =     0.00000094   -0.00000436   -0.02930009
     atom    6 type  1   force =     0.00000000    0.00000000    0.00144013
     atom    7 type  1   force =     0.00000055   -0.00001233   -0.00133266
     atom    8 type  1   force =     0.00000000    0.00000000    0.02919523
     atom    9 type  1   force =    -0.00000094    0.00000436   -0.02930009
     atom   10 type  1   force =     0.00000000    0.00000000    0.00144585
     atom   11 type  1   force =    -0.00000055    0.00001233   -0.00133266
     atom   12 type  1   force =     0.00000000    0.00000000    0.02918598
     atom   13 type  1   force =    -0.00000222   -0.00000784   -0.02929855
     atom   14 type  1   force =     0.00000000    0.00000000    0.00144200
     atom   15 type  1   force =    -0.00000101   -0.00001167   -0.00133570
     atom   16 type  1   force =     0.00000000    0.00000000    0.02919421
     The ionic contribution  to forces
     atom    1 type  1   force =     0.00005023    0.00012212   -8.97389951
     atom    2 type  1   force =    -0.00000006   -0.00000006   -3.00446339
     atom    3 type  1   force =    -0.00001121    0.00023517    3.00519249
     atom    4 type  1   force =    -0.00000004   -0.00000011    8.97328051
     atom    5 type  1   force =     0.00006087   -0.00009970   -8.97404424
     atom    6 type  1   force =     0.00000006    0.00000007   -3.00453655
     atom    7 type  1   force =    -0.00000428   -0.00023265    3.00499329
     atom    8 type  1   force =     0.00000004    0.00000011    8.97334783
     atom    9 type  1   force =    -0.00006090    0.00009969   -8.97404406
     atom   10 type  1   force =    -0.00000001   -0.00000005   -3.00439880
     atom   11 type  1   force =     0.00000424    0.00023263    3.00499336
     atom   12 type  1   force =    -0.00000001   -0.00000011    8.97333508
     atom   13 type  1   force =    -0.00005025   -0.00012213   -8.97389967
     atom   14 type  1   force =     0.00000010    0.00000009   -3.00433209
     atom   15 type  1   force =     0.00001116   -0.00023520    3.00519239
     atom   16 type  1   force =     0.00000007    0.00000013    8.97328335
     The local contribution  to forces
     atom    1 type  1   force =     0.00000504   -0.00013522    8.86078909
     atom    2 type  1   force =     0.00005792   -0.00002187    2.95350816
     atom    3 type  1   force =     0.00006425   -0.00024745   -2.95429148
     atom    4 type  1   force =     0.00005735   -0.00002303   -8.86008226
     atom    5 type  1   force =    -0.00000320    0.00008825    8.86094063
     atom    6 type  1   force =     0.00010289   -0.00001644    2.95357908
     atom    7 type  1   force =     0.00005858    0.00022591   -2.95409258
     atom    8 type  1   force =     0.00010407   -0.00001409   -8.86015472
     atom    9 type  1   force =     0.00011442   -0.00010931    8.86093700
     atom   10 type  1   force =     0.00005868   -0.00002129    2.95343767
     atom   11 type  1   force =     0.00005320   -0.00024525   -2.95409379
     atom   12 type  1   force =     0.00005811   -0.00002245   -8.86013996
     atom   13 type  1   force =     0.00010618    0.00011416    8.86079091
     atom   14 type  1   force =     0.00010365   -0.00001586    2.95337842
     atom   15 type  1   force =     0.00004753    0.00022810   -2.95428967
     atom   16 type  1   force =     0.00010483   -0.00001292   -8.86008606
     The core correction contribution to forces
     atom    1 type  1   force =     0.00000000    0.00000000    0.00000000
     atom    2 type  1   force =     0.00000000    0.00000000    0.00000000
     atom    3 type  1   force =     0.00000000    0.00000000    0.00000000
     atom    4 type  1   force =     0.00000000    0.00000000    0.00000000
     atom    5 type  1   force =     0.00000000    0.00000000    0.00000000
     atom    6 type  1   force =     0.00000000    0.00000000    0.00000000
     atom    7 type  1   force =     0.00000000    0.00000000    0.00000000
     atom    8 type  1   force =     0.00000000    0.00000000    0.00000000
     atom    9 type  1   force =     0.00000000    0.00000000    0.00000000
     atom   10 type  1   force =     0.00000000    0.00000000    0.00000000
     atom   11 type  1   force =     0.00000000    0.00000000    0.00000000
     atom   12 type  1   force =     0.00000000    0.00000000    0.00000000
     atom   13 type  1   force =     0.00000000    0.00000000    0.00000000
     atom   14 type  1   force =     0.00000000    0.00000000    0.00000000
     atom   15 type  1   force =     0.00000000    0.00000000    0.00000000
     atom   16 type  1   force =     0.00000000    0.00000000    0.00000000
     The Hubbard contrib.    to forces
     atom    1 type  1   force =     0.00000000    0.00000000    0.00000000
     atom    2 type  1   force =     0.00000000    0.00000000    0.00000000
     atom    3 type  1   force =     0.00000000    0.00000000    0.00000000
     atom    4 type  1   force =     0.00000000    0.00000000    0.00000000
     atom    5 type  1   force =     0.00000000    0.00000000    0.00000000
     atom    6 type  1   force =     0.00000000    0.00000000    0.00000000
     atom    7 type  1   force =     0.00000000    0.00000000    0.00000000
     atom    8 type  1   force =     0.00000000    0.00000000    0.00000000
     atom    9 type  1   force =     0.00000000    0.00000000    0.00000000
     atom   10 type  1   force =     0.00000000    0.00000000    0.00000000
     atom   11 type  1   force =     0.00000000    0.00000000    0.00000000
     atom   12 type  1   force =     0.00000000    0.00000000    0.00000000
     atom   13 type  1   force =     0.00000000    0.00000000    0.00000000
     atom   14 type  1   force =     0.00000000    0.00000000    0.00000000
     atom   15 type  1   force =     0.00000000    0.00000000    0.00000000
     atom   16 type  1   force =     0.00000000    0.00000000    0.00000000
     The SCF correction term to forces
     atom    1 type  1   force =     0.00000049    0.00000061   -0.00000745
     atom    2 type  1   force =     0.00000000   -0.00000000    0.00008646
     atom    3 type  1   force =     0.00000120    0.00000085   -0.00007601
     atom    4 type  1   force =    -0.00000000    0.00000000    0.00002315
     atom    5 type  1   force =     0.00000036   -0.00000049   -0.00000668
     atom    6 type  1   force =     0.00000000   -0.00000000    0.00008865
     atom    7 type  1   force =     0.00000163    0.00000068   -0.00007442
     atom    8 type  1   force =    -0.00000000    0.00000000    0.00002284
     atom    9 type  1   force =    -0.00000036    0.00000049   -0.00000668
     atom   10 type  1   force =     0.00000000   -0.00000000    0.00008776
     atom   11 type  1   force =    -0.00000163   -0.00000068   -0.00007442
     atom   12 type  1   force =    -0.00000000    0.00000000    0.00002295
     atom   13 type  1   force =    -0.00000049   -0.00000061   -0.00000745
     atom   14 type  1   force =     0.00000000   -0.00000000    0.00008599
     atom   15 type  1   force =    -0.00000120   -0.00000085   -0.00007601
     atom   16 type  1   force =    -0.00000000    0.00000000    0.00002523

     Total force =     0.000973     Total SCF correction =     0.000236
     SCF correction compared to forces is large: reduce conv_thr to get better values
     Energy error            =      1.9E-06 Ry
     Gradient error          =      3.7E-04 Ry/Bohr

     bfgs converged in   2 scf cycles and   1 bfgs steps
     (criteria: energy <  1.0E-05 Ry, force <  3.9E-04 Ry/Bohr)

     End of BFGS Geometry Optimization

     Final energy             =    -240.6956796080 Ry

     File ./Li/Lithium.bfgs deleted, as requested
Begin final coordinates

ATOMIC_POSITIONS (angstrom)
Li               0.9915918083        1.4023489950       19.8975953429
Li               1.9832882700        2.8047934300       22.3315989032
Li               0.9916456880        1.4022944387       24.7968928772
Li               1.9832882800        2.8047934500       27.2339654556
Li              -0.0000225951        4.2072521398       19.8975173212
Li               0.9916443500        5.6095863900       22.3316091209
Li               0.0000226187        4.2072828281       24.7967833609
Li               0.9916443300        5.6095863500       27.2339523858
Li               3.9665992151        1.4023343302       19.8975173812
Li               4.9582206700        2.8047934200       22.3316412126
Li               3.9665539913        1.4023036119       24.7967833809
Li               4.9582206800        2.8047934400       27.2340153471
Li               2.9749848117        4.2072374750       19.8975953129
Li               3.9665767500        5.6095863800       22.3316786237
Li               2.9749309220        4.2072920013       24.7968928472
Li               3.9665767300        5.6095863300       27.2339051834
End final coordinates



     Writing all to output data dir ./Li/Lithium.save/ :
     XML data file
     init_run     :     10.17s CPU     17.74s WALL (       1 calls)
     electrons    :    552.14s CPU    697.17s WALL (       2 calls)
     update_pot   :      0.05s CPU      0.07s WALL (       1 calls)
     forces       :      3.70s CPU      3.89s WALL (       2 calls)

     Called by init_run:
     wfcinit      :      1.72s CPU      2.38s WALL (       1 calls)
     wfcinit:wfcr :      1.64s CPU      2.30s WALL (      61 calls)
     potinit      :      0.65s CPU      0.69s WALL (       1 calls)
     hinit0       :      1.06s CPU      1.20s WALL (       1 calls)

     Called by electrons:
     c_bands      :    455.69s CPU    576.36s WALL (      36 calls)
     sum_band     :     28.64s CPU     40.11s WALL (      36 calls)
     v_of_rho     :      1.31s CPU      1.57s WALL (      37 calls)
     v_h          :      0.12s CPU      0.15s WALL (      37 calls)
     v_xc         :      1.18s CPU      1.42s WALL (      37 calls)
     newd         :      0.90s CPU      0.93s WALL (      37 calls)
     PAW_pot      :      0.28s CPU      0.35s WALL (      38 calls)
     mix_rho      :      3.95s CPU      6.17s WALL (      36 calls)

     Called by c_bands:
     init_us_2    :      1.46s CPU      1.68s WALL (    4636 calls)
     cegterg      :    452.30s CPU    572.30s WALL (    2576 calls)

     Called by sum_band:
     sum_band:wei :      0.07s CPU      0.08s WALL (      36 calls)
     sum_band:loo :     27.49s CPU     38.80s WALL (      36 calls)
     sum_band:buf :      0.21s CPU      0.27s WALL (    2196 calls)
     sum_band:ini :      0.58s CPU      0.72s WALL (    2196 calls)
     sum_band:cal :      2.84s CPU      3.72s WALL (    2257 calls)
     sum_band:bec :      0.08s CPU      0.11s WALL (    2257 calls)
     addusdens    :      0.82s CPU      0.85s WALL (      36 calls)
                                        0.00s GPU  (      36 calls)
     addusd:skk   :      0.11s CPU      0.12s WALL (      36 calls)
                                        0.00s GPU  (      36 calls)

     Called by *egterg:
     cdiaghg      :     94.86s CPU    101.46s WALL (   28086 calls)
     cegterg:over :     24.01s CPU     26.99s WALL (   25914 calls)
     cegterg:upda :     20.03s CPU     21.02s WALL (   25914 calls)
     cegterg:last :      7.60s CPU      7.77s WALL (    4046 calls)
     h_psi        :    286.63s CPU    394.11s WALL (   28551 calls)
     s_psi        :     13.42s CPU     15.20s WALL (   28551 calls)
     g_psi        :      0.45s CPU      0.48s WALL (   25914 calls)

     Called by h_psi:
     h_psi:calbec :     23.47s CPU     30.41s WALL (   28551 calls)
     vloc_psi     :    247.10s CPU    344.51s WALL (   28551 calls)
                                        0.00s GPU  (   28551 calls)
     add_vuspsi   :     14.69s CPU     17.72s WALL (   28551 calls)

     General routines
     calbec       :     26.77s CPU     34.62s WALL (   31296 calls)
     fft          :      1.66s CPU      1.98s WALL (     483 calls)
     ffts         :      3.75s CPU      5.57s WALL (    4132 calls)
     fftw         :    259.94s CPU    363.98s WALL (  875844 calls)
     interpolate  :      0.73s CPU      0.76s WALL (      37 calls)

     Parallel routines

     PAW routines
     PAW_pot      :      0.28s CPU      0.35s WALL (      38 calls)
     PAW_symme    :      0.01s CPU      0.02s WALL (      74 calls)

     Environ routines

     PWSCF        :   9m29.22s CPU  12m 2.57s WALL


   This run was terminated on:   2: 9:16  24Jan2025            

=------------------------------------------------------------------------------=
   JOB DONE.
=------------------------------------------------------------------------------=
