
     Program PWSCF v.7.4 starts on  2Jan2025 at 21: 6: 9 

     This program is part of the open-source Quantum ESPRESSO suite
     for quantum simulation of materials; please cite
         "P. Giannozzi et al., J. Phys.:Condens. Matter 21 395502 (2009);
         "P. Giannozzi et al., J. Phys.:Condens. Matter 29 465901 (2017);
         "P. Giannozzi et al., J. Chem. Phys. 152 154105 (2020);
          URL http://www.quantum-espresso.org", 
     in publications or presentations arising from this work. More details at
     http://www.quantum-espresso.org/quote

     Parallel version (MPI & OpenMP), running on     256 processor cores
     Number of MPI processes:               256
     Threads/MPI process:                     1

     MPI processes distributed on     2 nodes
     227338 MiB available memory on the printing compute node when the environment starts

     Reading input from espresso.pwi
Warning: card &CELL ignored
Warning: card    PRESS_CONV_THR   = 0.1 ignored
Warning: card    CELL_DOFREE      = 'ALL' ignored
Warning: card / ignored
Warning: card &FCP ignored
Warning: card / ignored
Warning: card &RISM ignored
Warning: card / ignored

     Current dimensions of program PWSCF are:
     Max number of different atomic species (ntypx) = 10
     Max number of k-points (npk) =  40000
     Max angular momentum in pseudopotentials (lmaxx) =  4

     IMPORTANT: XC functional enforced from input :
     Exchange-correlation= PBE
                           (   1   4   3   4   0   0   0)
     Any further DFT definition will be discarded
     Please, verify this is what you really want


     Reading input from environ.in:
     * using ionic solvent mode
     * setting boundary derivatives method to SSCS default
     * setting electrolyte-boundary derivatives method to SSCS default

Environ Warning (1001): card EOF ignored

     

     R & G space division:  proc/nbgrp/npool/nimage =     256
     Subspace diagonalization in iterative solution of the eigenvalue problem:
     a serial algorithm will be used


     Parallelization info
     --------------------
     sticks:   dense  smooth     PW     G-vecs:    dense   smooth      PW
     Min          29      11      3                15801     3945     551
     Max          30      12      4                15890     4040     600
     Sum        7593    3025    841              4056641  1025567  148303

     Using Slab Decomposition



     bravais-lattice index     =           14
     lattice parameter (alat)  =      11.2436  a.u.
     unit-cell volume          =   10615.2838 (a.u.)^3
     number of atoms/cell      =           16
     number of atomic types    =            1
     number of electrons       =        48.00
     number of Kohn-Sham states=           36
     kinetic-energy cutoff     =      80.0000  Ry
     charge density cutoff     =     800.0000  Ry
     scf convergence threshold =      1.0E-06
     mixing beta               =       0.2000
     number of iterations used =            8  local-TF  mixing
     energy convergence thresh.=      1.0E-05
     force convergence thresh. =      3.9E-04
     Exchange-correlation= PBE
                           (   1   4   3   4   0   0   0)
     nstep                     =          999


     ================================================================================

                                  Environ Setup Summary

     ================================================================================

     Please cite

          O. Andreussi, I. Dabo and N. Marzari, J. Chem. Phys. 136, 064102 (2012)
          F. Nattino, M. Truscott, N. Marzari, and O. Andreussi, J. Chem. Phys. 150, 041722 (2019)

     in publications or presentations arising from this work.

     ================================================================================

     Parameters
     ==========

     compensation onset threshold      =               0.1000E+00
     static permittivity               =                    89.90
     surface tension in input (dyn/cm) =                    37.30
     surface tension in internal units =               0.4792E-04

     Solvent Boundary
     ================

     solvent mode                      =                    ionic
     derivatives method                =                   lowmem
     electrolyte derivatives method    =                   lowmem
     numerical core for derivatives    =                      fft
     switching function adopted        =                     SCCS
     density limit for vacuum region   =               0.5000E-02
     density limit for bulk solvent    =               0.1000E-03
     soft-sphere radius mode           =                    bondi
     soft-sphere softness              =                     0.50
     alpha                             =                     1.32

     Electrostatic Setup
     ===================

     electrostatic problem to solve    =                    modpb
     numerical solver adopted          =                   newton
     type of auxiliary density adopted =                     none
     numerical core for poisson        =                      fft
     adopting a nested solver scheme
     inner solver                      =                       cg
     inner core                        =                      fft
     type of pbc corrections           =                parabolic
     numerical core for corrections    =                      1da

     ================================================================================


     >>>>> Grand-Canonical SCF is activated <<<<<
     Initial Total Charge  =     0.000000 e
     Target Fermi Energy   =    -2.404000 eV
     Thr. of Fermi Energy  =     0.001000 eV
     Wave-shift of Kerker  =     0.400000 bohr^-1
     Wave-shift of Hartree =     1.500000 bohr^-1
     Mixing Rate of Fermi  =     0.050000

     celldm(1)=  11.243615  celldm(2)=   1.000000  celldm(3)=   7.921182
     celldm(4)=   0.000000  celldm(5)=   0.000000  celldm(6)=  -0.333333

     crystal axes: (cart. coord. in units of alat)
               a(1) = (   1.000000   0.000000   0.000000 )  
               a(2) = (  -0.333333   0.942809   0.000000 )  
               a(3) = (   0.000000   0.000000   7.921182 )  

     reciprocal axes: (cart. coord. in units 2 pi/alat)
               b(1) = (  1.000000  0.353553 -0.000000 )  
               b(2) = (  0.000000  1.060660  0.000000 )  
               b(3) = (  0.000000 -0.000000  0.126244 )  


     PseudoPot. # 1 for Li read from file:
     /work/e89/e89/ba3g18/Repos/Pseudopotentials/Pslibrary/Li.pbe-sl-kjpaw_psl.1.0.0.UPF
     MD5 check sum: 3f4d2cafebb47c6c3aa8ed472e6f074d
     Pseudo is Projector augmented-wave, Zval =  3.0
     Generated using 'atomic' code by A. Dal Corso  v.7.4
     Shape of augmentation charge: PSQ
     Using radial grid of 1017 points,  4 beta functions with: 
                l(1) =   0
                l(2) =   0
                l(3) =   1
                l(4) =   1
     Q(r) pseudized with 0 coefficients 


     atomic species   valence    mass     pseudopotential
     Li                3.00     6.94000     Li( 1.00)

      2 Sym. Ops. (no inversion) found


                                    s                        frac. trans.

      isym =  1     identity                                     

 cryst.   s( 1) = (     1          0          0      )
                  (     0          1          0      )
                  (     0          0          1      )

 cart.    s( 1) = (  1.0000000 -0.0000000  0.0000000 )
                  (  0.0000000  1.0000000  0.0000000 )
                  (  0.0000000  0.0000000  1.0000000 )


      isym =  2     180 deg rotation - cart. axis [0,0,1]        

 cryst.   s( 2) = (    -1          0          0      )
                  (     0         -1          0      )
                  (     0          0          1      )

 cart.    s( 2) = ( -1.0000000  0.0000000  0.0000000 )
                  (  0.0000000 -1.0000000  0.0000000 )
                  (  0.0000000  0.0000000  1.0000000 )


     point group C_2  (2)   
     there are  2 classes
     the character table:

       E     C2   
A      1.00  1.00
B      1.00 -1.00

     the symmetry operations in each class and the name of the first element:

     E        1
          identity                                               
     C2       2
          180 deg rotation - cart. axis [0,0,1]                  

   Cartesian axes

     site n.     atom                  positions (alat units)
         1        Li     tau(   1) = (   0.1666611   0.2357034   3.3639703  )
         2        Li     tau(   2) = (   0.3333333   0.4714046   3.7569429  )
         3        Li     tau(   3) = (   0.1666692   0.2356974   4.1642346  )
         4        Li     tau(   4) = (   0.3333333   0.4714046   4.5571918  )
         5        Li     tau(   5) = (   0.0000048   0.7071101   3.3639940  )
         6        Li     tau(   6) = (   0.1666667   0.9428090   3.7569598  )
         7        Li     tau(   7) = (  -0.0000024   0.7071026   4.1642436  )
         8        Li     tau(   8) = (   0.1666667   0.9428090   4.5572081  )
         9        Li     tau(   9) = (   0.6666619   0.2356990   3.3639940  )
        10        Li     tau(  10) = (   0.8333333   0.4714046   3.7569543  )
        11        Li     tau(  11) = (   0.6666691   0.2357064   4.1642436  )
        12        Li     tau(  12) = (   0.8333333   0.4714046   4.5572101  )
        13        Li     tau(  13) = (   0.5000056   0.7071057   3.3639703  )
        14        Li     tau(  14) = (   0.6666667   0.9428090   3.7569426  )
        15        Li     tau(  15) = (   0.4999974   0.7071116   4.1642346  )
        16        Li     tau(  16) = (   0.6666667   0.9428090   4.5572029  )

   Crystallographic axes

     site n.     atom                  positions (cryst. coord.)
         1        Li     tau(   1) = (  0.2499948  0.2500012  0.4246803  )
         2        Li     tau(   2) = (  0.4999999  0.5000001  0.4742907  )
         3        Li     tau(   3) = (  0.2500008  0.2499949  0.5257087  )
         4        Li     tau(   4) = (  0.4999999  0.5000001  0.5753171  )
         5        Li     tau(   5) = (  0.2500057  0.7500035  0.4246833  )
         6        Li     tau(   6) = (  0.4999997  1.0000001  0.4742928  )
         7        Li     tau(   7) = (  0.2499959  0.7499956  0.5257099  )
         8        Li     tau(   8) = (  0.4999997  1.0000000  0.5753192  )
         9        Li     tau(   9) = (  0.7499940  0.2499965  0.4246833  )
        10        Li     tau(  10) = (  0.9999999  0.5000001  0.4742921  )
        11        Li     tau(  11) = (  0.7500038  0.2500044  0.5257099  )
        12        Li     tau(  12) = (  0.9999999  0.5000001  0.5753195  )
        13        Li     tau(  13) = (  0.7500049  0.7499989  0.4246803  )
        14        Li     tau(  14) = (  0.9999997  1.0000000  0.4742906  )
        15        Li     tau(  15) = (  0.7499989  0.7500052  0.5257087  )
        16        Li     tau(  16) = (  0.9999997  1.0000000  0.5753185  )

     number of k points=    61  Marzari-Vanderbilt smearing, width (Ry)=  0.0100
                       cart. coord. in units 2pi/alat
        k(    1) = (   0.0000000   0.0000000   0.0000000), wk =   0.0165289
        k(    2) = (   0.0000000   0.0964237   0.0000000), wk =   0.0330579
        k(    3) = (   0.0000000   0.1928473   0.0000000), wk =   0.0330579
        k(    4) = (   0.0000000   0.2892710   0.0000000), wk =   0.0330579
        k(    5) = (   0.0000000   0.3856946   0.0000000), wk =   0.0330579
        k(    6) = (   0.0000000   0.4821183   0.0000000), wk =   0.0330579
        k(    7) = (   0.0909091   0.0321412   0.0000000), wk =   0.0330579
        k(    8) = (   0.0909091   0.1285648   0.0000000), wk =   0.0330579
        k(    9) = (   0.0909091   0.2249885   0.0000000), wk =   0.0330579
        k(   10) = (   0.0909091   0.3214122   0.0000000), wk =   0.0330579
        k(   11) = (   0.0909091   0.4178358   0.0000000), wk =   0.0330579
        k(   12) = (   0.0909091   0.5142595   0.0000000), wk =   0.0330579
        k(   13) = (   0.0909091  -0.4499771   0.0000000), wk =   0.0330579
        k(   14) = (   0.0909091  -0.3535534   0.0000000), wk =   0.0330579
        k(   15) = (   0.0909091  -0.2571298   0.0000000), wk =   0.0330579
        k(   16) = (   0.0909091  -0.1607061   0.0000000), wk =   0.0330579
        k(   17) = (   0.0909091  -0.0642825   0.0000000), wk =   0.0330579
        k(   18) = (   0.1818182   0.0642824   0.0000000), wk =   0.0330579
        k(   19) = (   0.1818182   0.1607060   0.0000000), wk =   0.0330579
        k(   20) = (   0.1818182   0.2571297   0.0000000), wk =   0.0330579
        k(   21) = (   0.1818182   0.3535533   0.0000000), wk =   0.0330579
        k(   22) = (   0.1818182   0.4499770   0.0000000), wk =   0.0330579
        k(   23) = (   0.1818182   0.5464007   0.0000000), wk =   0.0330579
        k(   24) = (   0.1818182  -0.4178359   0.0000000), wk =   0.0330579
        k(   25) = (   0.1818182  -0.3214123   0.0000000), wk =   0.0330579
        k(   26) = (   0.1818182  -0.2249886   0.0000000), wk =   0.0330579
        k(   27) = (   0.1818182  -0.1285649   0.0000000), wk =   0.0330579
        k(   28) = (   0.1818182  -0.0321413   0.0000000), wk =   0.0330579
        k(   29) = (   0.2727273   0.0964236   0.0000000), wk =   0.0330579
        k(   30) = (   0.2727273   0.1928472   0.0000000), wk =   0.0330579
        k(   31) = (   0.2727273   0.2892709   0.0000000), wk =   0.0330579
        k(   32) = (   0.2727273   0.3856945   0.0000000), wk =   0.0330579
        k(   33) = (   0.2727273   0.4821182   0.0000000), wk =   0.0330579
        k(   34) = (   0.2727273   0.5785418   0.0000000), wk =   0.0330579
        k(   35) = (   0.2727273  -0.3856947   0.0000000), wk =   0.0330579
        k(   36) = (   0.2727273  -0.2892711   0.0000000), wk =   0.0330579
        k(   37) = (   0.2727273  -0.1928474   0.0000000), wk =   0.0330579
        k(   38) = (   0.2727273  -0.0964238   0.0000000), wk =   0.0330579
        k(   39) = (   0.2727273  -0.0000001   0.0000000), wk =   0.0330579
        k(   40) = (   0.3636364   0.1285647   0.0000000), wk =   0.0330579
        k(   41) = (   0.3636364   0.2249884   0.0000000), wk =   0.0330579
        k(   42) = (   0.3636364   0.3214121   0.0000000), wk =   0.0330579
        k(   43) = (   0.3636364   0.4178357   0.0000000), wk =   0.0330579
        k(   44) = (   0.3636364   0.5142594   0.0000000), wk =   0.0330579
        k(   45) = (   0.3636364   0.6106830   0.0000000), wk =   0.0330579
        k(   46) = (   0.3636364  -0.3535535   0.0000000), wk =   0.0330579
        k(   47) = (   0.3636364  -0.2571299   0.0000000), wk =   0.0330579
        k(   48) = (   0.3636364  -0.1607062   0.0000000), wk =   0.0330579
        k(   49) = (   0.3636364  -0.0642826   0.0000000), wk =   0.0330579
        k(   50) = (   0.3636364   0.0321411   0.0000000), wk =   0.0330579
        k(   51) = (   0.4545455   0.1607059   0.0000000), wk =   0.0330579
        k(   52) = (   0.4545455   0.2571296   0.0000000), wk =   0.0330579
        k(   53) = (   0.4545455   0.3535532   0.0000000), wk =   0.0330579
        k(   54) = (   0.4545455   0.4499769   0.0000000), wk =   0.0330579
        k(   55) = (   0.4545455   0.5464006   0.0000000), wk =   0.0330579
        k(   56) = (   0.4545455   0.6428242   0.0000000), wk =   0.0330579
        k(   57) = (   0.4545455  -0.3214123   0.0000000), wk =   0.0330579
        k(   58) = (   0.4545455  -0.2249887   0.0000000), wk =   0.0330579
        k(   59) = (   0.4545455  -0.1285650   0.0000000), wk =   0.0330579
        k(   60) = (   0.4545455  -0.0321414   0.0000000), wk =   0.0330579
        k(   61) = (   0.4545455   0.0642823   0.0000000), wk =   0.0330579

                       cryst. coord.
        k(    1) = (   0.0000000   0.0000000   0.0000000), wk =   0.0165289
        k(    2) = (   0.0000000   0.0909091   0.0000000), wk =   0.0330579
        k(    3) = (   0.0000000   0.1818182   0.0000000), wk =   0.0330579
        k(    4) = (   0.0000000   0.2727273   0.0000000), wk =   0.0330579
        k(    5) = (   0.0000000   0.3636364   0.0000000), wk =   0.0330579
        k(    6) = (   0.0000000   0.4545455   0.0000000), wk =   0.0330579
        k(    7) = (   0.0909091  -0.0000000   0.0000000), wk =   0.0330579
        k(    8) = (   0.0909091   0.0909091   0.0000000), wk =   0.0330579
        k(    9) = (   0.0909091   0.1818182   0.0000000), wk =   0.0330579
        k(   10) = (   0.0909091   0.2727273   0.0000000), wk =   0.0330579
        k(   11) = (   0.0909091   0.3636364   0.0000000), wk =   0.0330579
        k(   12) = (   0.0909091   0.4545455   0.0000000), wk =   0.0330579
        k(   13) = (   0.0909091  -0.4545455   0.0000000), wk =   0.0330579
        k(   14) = (   0.0909091  -0.3636364   0.0000000), wk =   0.0330579
        k(   15) = (   0.0909091  -0.2727273   0.0000000), wk =   0.0330579
        k(   16) = (   0.0909091  -0.1818182   0.0000000), wk =   0.0330579
        k(   17) = (   0.0909091  -0.0909091   0.0000000), wk =   0.0330579
        k(   18) = (   0.1818182  -0.0000000   0.0000000), wk =   0.0330579
        k(   19) = (   0.1818182   0.0909091   0.0000000), wk =   0.0330579
        k(   20) = (   0.1818182   0.1818182   0.0000000), wk =   0.0330579
        k(   21) = (   0.1818182   0.2727273   0.0000000), wk =   0.0330579
        k(   22) = (   0.1818182   0.3636364   0.0000000), wk =   0.0330579
        k(   23) = (   0.1818182   0.4545455   0.0000000), wk =   0.0330579
        k(   24) = (   0.1818182  -0.4545455   0.0000000), wk =   0.0330579
        k(   25) = (   0.1818182  -0.3636364   0.0000000), wk =   0.0330579
        k(   26) = (   0.1818182  -0.2727273   0.0000000), wk =   0.0330579
        k(   27) = (   0.1818182  -0.1818182   0.0000000), wk =   0.0330579
        k(   28) = (   0.1818182  -0.0909091   0.0000000), wk =   0.0330579
        k(   29) = (   0.2727273  -0.0000000   0.0000000), wk =   0.0330579
        k(   30) = (   0.2727273   0.0909091   0.0000000), wk =   0.0330579
        k(   31) = (   0.2727273   0.1818182   0.0000000), wk =   0.0330579
        k(   32) = (   0.2727273   0.2727273   0.0000000), wk =   0.0330579
        k(   33) = (   0.2727273   0.3636364   0.0000000), wk =   0.0330579
        k(   34) = (   0.2727273   0.4545455   0.0000000), wk =   0.0330579
        k(   35) = (   0.2727273  -0.4545455   0.0000000), wk =   0.0330579
        k(   36) = (   0.2727273  -0.3636364   0.0000000), wk =   0.0330579
        k(   37) = (   0.2727273  -0.2727273   0.0000000), wk =   0.0330579
        k(   38) = (   0.2727273  -0.1818182   0.0000000), wk =   0.0330579
        k(   39) = (   0.2727273  -0.0909091   0.0000000), wk =   0.0330579
        k(   40) = (   0.3636364  -0.0000000   0.0000000), wk =   0.0330579
        k(   41) = (   0.3636364   0.0909091   0.0000000), wk =   0.0330579
        k(   42) = (   0.3636364   0.1818182   0.0000000), wk =   0.0330579
        k(   43) = (   0.3636364   0.2727273   0.0000000), wk =   0.0330579
        k(   44) = (   0.3636364   0.3636364   0.0000000), wk =   0.0330579
        k(   45) = (   0.3636364   0.4545455   0.0000000), wk =   0.0330579
        k(   46) = (   0.3636364  -0.4545455   0.0000000), wk =   0.0330579
        k(   47) = (   0.3636364  -0.3636364   0.0000000), wk =   0.0330579
        k(   48) = (   0.3636364  -0.2727273   0.0000000), wk =   0.0330579
        k(   49) = (   0.3636364  -0.1818182   0.0000000), wk =   0.0330579
        k(   50) = (   0.3636364  -0.0909091   0.0000000), wk =   0.0330579
        k(   51) = (   0.4545455  -0.0000000   0.0000000), wk =   0.0330579
        k(   52) = (   0.4545455   0.0909091   0.0000000), wk =   0.0330579
        k(   53) = (   0.4545455   0.1818182   0.0000000), wk =   0.0330579
        k(   54) = (   0.4545455   0.2727273   0.0000000), wk =   0.0330579
        k(   55) = (   0.4545455   0.3636364   0.0000000), wk =   0.0330579
        k(   56) = (   0.4545455   0.4545455   0.0000000), wk =   0.0330579
        k(   57) = (   0.4545455  -0.4545455   0.0000000), wk =   0.0330579
        k(   58) = (   0.4545455  -0.3636364   0.0000000), wk =   0.0330579
        k(   59) = (   0.4545455  -0.2727273   0.0000000), wk =   0.0330579
        k(   60) = (   0.4545455  -0.1818182   0.0000000), wk =   0.0330579
        k(   61) = (   0.4545455  -0.0909091   0.0000000), wk =   0.0330579

     Dense  grid:  4056641 G-vectors     FFT dimensions: ( 108, 108, 810)

     Smooth grid:  1025567 G-vectors     FFT dimensions: (  72,  72, 512)

     Dynamical RAM for                 wfc:       0.28 MB

     Dynamical RAM for     wfc (w. buffer):      17.06 MB

     Dynamical RAM for           str. fact:       0.24 MB

     Dynamical RAM for           local pot:       0.00 MB

     Dynamical RAM for          nlocal pot:       0.98 MB

     Dynamical RAM for                qrad:       0.65 MB

     Dynamical RAM for          rho,v,vnew:       1.79 MB

     Dynamical RAM for               rhoin:       0.60 MB

     Dynamical RAM for            rho*nmix:       3.86 MB

     Dynamical RAM for           G-vectors:       0.94 MB

     Dynamical RAM for          h,s,v(r/c):       0.95 MB

     Dynamical RAM for          <psi|beta>:       0.07 MB

     Dynamical RAM for                 psi:       1.10 MB

     Dynamical RAM for                hpsi:       1.10 MB

     Dynamical RAM for                spsi:       1.10 MB

     Dynamical RAM for      wfcinit/wfcrot:       0.58 MB

     Dynamical RAM for           addusdens:      14.24 MB

     Dynamical RAM for          addusforce:      21.62 MB

     Estimated static dynamical RAM per process >      24.52 MB

     Estimated max dynamical RAM per process >      61.90 MB

     Estimated total dynamical RAM >      12.50 GB

     Initial potential from superposition of free atoms

     starting charge      47.9263, renormalised to      48.0000

     negative rho (up, down):  1.946E-03 0.000E+00
     Starting wfcs are random
     Checking if some PAW data can be deallocated... 

     total cpu time spent up to now is       18.0 secs

     Self-consistent Calculation

     iteration #  1     ecut=    80.00 Ry     beta= 0.20
     Davidson diagonalization with overlap

---- Real-time Memory Report at c_bands before calling an iterative solver
           245 MiB given to the printing process from OS
             0 MiB allocation reported by mallinfo(arena+hblkhd)
        217156 MiB available memory on the node where the printing process lives
------------------
     c_bands:  1 eigenvalues not converged
     c_bands:  1 eigenvalues not converged
     c_bands:  1 eigenvalues not converged
     c_bands:  2 eigenvalues not converged
     c_bands:  1 eigenvalues not converged
     c_bands:  1 eigenvalues not converged
     c_bands:  1 eigenvalues not converged
     c_bands:  1 eigenvalues not converged
     c_bands:  1 eigenvalues not converged
     c_bands:  1 eigenvalues not converged
     ethr =  1.00E-12,  avg # of iterations = 98.7

     negative rho (up, down):  1.462E-03 0.000E+00

     add environment contribution to local potential

     total cpu time spent up to now is      144.8 secs

     total energy              =    -240.66089650 Ry
     estimated scf accuracy    <       0.07283089 Ry

     total charge of GC-SCF    =       0.01154291 e
     the Fermi energy          =      -4.67643494 eV
                        (error :       2.27243494 eV)
     electrostatic embedding   =       0.00000000 Ry
     cavitation energy         =       0.01235683 Ry
     electrolyte free energy   =       0.00456895 Ry
     correction to one-el term =      -0.00000000 Ry

     iteration #  2     ecut=    80.00 Ry     beta= 0.20
     Davidson diagonalization with overlap

---- Real-time Memory Report at c_bands before calling an iterative solver
           245 MiB given to the printing process from OS
             0 MiB allocation reported by mallinfo(arena+hblkhd)
        217242 MiB available memory on the node where the printing process lives
------------------
     ethr =  1.00E-05,  avg # of iterations = 10.2

     negative rho (up, down):  1.091E-03 0.000E+00

     add environment contribution to local potential

     total cpu time spent up to now is      161.1 secs

     total energy              =    -240.57107403 Ry
     estimated scf accuracy    <       0.02439722 Ry

     total charge of GC-SCF    =       0.00606363 e
     the Fermi energy          =      -3.87885500 eV
                        (error :       1.47485500 eV)
     electrostatic embedding   =      -0.01824461 Ry
     cavitation energy         =       0.01235683 Ry
     electrolyte free energy   =      -0.00212065 Ry
     correction to one-el term =      -0.39500314 Ry

     iteration #  3     ecut=    80.00 Ry     beta= 0.20
     Davidson diagonalization with overlap

---- Real-time Memory Report at c_bands before calling an iterative solver
           245 MiB given to the printing process from OS
             0 MiB allocation reported by mallinfo(arena+hblkhd)
        217277 MiB available memory on the node where the printing process lives
------------------
     ethr =  1.00E-05,  avg # of iterations = 15.0

     negative rho (up, down):  8.850E-04 0.000E+00

     add environment contribution to local potential

     total cpu time spent up to now is      180.2 secs

     total energy              =    -240.56158141 Ry
     estimated scf accuracy    <       0.01070415 Ry

     total charge of GC-SCF    =      -0.01753958 e
     the Fermi energy          =      -3.20927370 eV
                        (error :       0.80527370 eV)
     electrostatic embedding   =      -0.01580579 Ry
     cavitation energy         =       0.01235683 Ry
     electrolyte free energy   =      -0.00173438 Ry
     correction to one-el term =      -0.56461723 Ry

     iteration #  4     ecut=    80.00 Ry     beta= 0.20
     Davidson diagonalization with overlap

---- Real-time Memory Report at c_bands before calling an iterative solver
           245 MiB given to the printing process from OS
             0 MiB allocation reported by mallinfo(arena+hblkhd)
        217272 MiB available memory on the node where the printing process lives
------------------
     ethr =  1.00E-05,  avg # of iterations =  6.4

     negative rho (up, down):  7.253E-04 0.000E+00

     add environment contribution to local potential

     total cpu time spent up to now is      192.8 secs

     total energy              =    -240.55436025 Ry
     estimated scf accuracy    <       0.00499066 Ry

     total charge of GC-SCF    =      -0.03816315 e
     the Fermi energy          =      -3.23397267 eV
                        (error :       0.82997267 eV)
     electrostatic embedding   =      -0.01413939 Ry
     cavitation energy         =       0.01235683 Ry
     electrolyte free energy   =      -0.00169653 Ry
     correction to one-el term =       0.46353175 Ry

     iteration #  5     ecut=    80.00 Ry     beta= 0.20
     Davidson diagonalization with overlap

---- Real-time Memory Report at c_bands before calling an iterative solver
           245 MiB given to the printing process from OS
             0 MiB allocation reported by mallinfo(arena+hblkhd)
        217278 MiB available memory on the node where the printing process lives
------------------
     ethr =  1.00E-05,  avg # of iterations = 11.1

     negative rho (up, down):  6.222E-04 0.000E+00

     add environment contribution to local potential

     total cpu time spent up to now is      208.9 secs

     total energy              =    -240.54121046 Ry
     estimated scf accuracy    <       0.00098881 Ry

     total charge of GC-SCF    =      -0.13264132 e
     the Fermi energy          =      -2.88775516 eV
                        (error :       0.48375516 eV)
     electrostatic embedding   =      -0.01276933 Ry
     cavitation energy         =       0.01235683 Ry
     electrolyte free energy   =      -0.00104657 Ry
     correction to one-el term =       1.09696872 Ry

     iteration #  6     ecut=    80.00 Ry     beta= 0.20
     Davidson diagonalization with overlap

---- Real-time Memory Report at c_bands before calling an iterative solver
           245 MiB given to the printing process from OS
             0 MiB allocation reported by mallinfo(arena+hblkhd)
        217277 MiB available memory on the node where the printing process lives
------------------
     ethr =  2.05E-06,  avg # of iterations = 17.3

     negative rho (up, down):  5.483E-04 0.000E+00

     add environment contribution to local potential

     total cpu time spent up to now is      229.9 secs

     total energy              =    -240.55401687 Ry
     estimated scf accuracy    <       0.00060944 Ry

     total charge of GC-SCF    =      -0.16856673 e
     the Fermi energy          =      -2.56643582 eV
                        (error :       0.16243582 eV)
     electrostatic embedding   =      -0.01804429 Ry
     cavitation energy         =       0.01235683 Ry
     electrolyte free energy   =      -0.00018996 Ry
     correction to one-el term =       4.30800827 Ry

     iteration #  7     ecut=    80.00 Ry     beta= 0.20
     Davidson diagonalization with overlap

---- Real-time Memory Report at c_bands before calling an iterative solver
           245 MiB given to the printing process from OS
             0 MiB allocation reported by mallinfo(arena+hblkhd)
        217280 MiB available memory on the node where the printing process lives
------------------
     ethr =  1.27E-06,  avg # of iterations =  3.9

     negative rho (up, down):  5.666E-04 0.000E+00

     add environment contribution to local potential

     total cpu time spent up to now is      239.7 secs

     total energy              =    -240.55475653 Ry
     estimated scf accuracy    <       0.00030951 Ry

     total charge of GC-SCF    =      -0.33460006 e
     the Fermi energy          =      -2.58531178 eV
                        (error :       0.18131178 eV)
     electrostatic embedding   =      -0.02279612 Ry
     cavitation energy         =       0.01235683 Ry
     electrolyte free energy   =      -0.00019104 Ry
     correction to one-el term =       5.40909109 Ry

     iteration #  8     ecut=    80.00 Ry     beta= 0.20
     Davidson diagonalization with overlap

---- Real-time Memory Report at c_bands before calling an iterative solver
           245 MiB given to the printing process from OS
             0 MiB allocation reported by mallinfo(arena+hblkhd)
        217275 MiB available memory on the node where the printing process lives
------------------
     ethr =  6.40E-07,  avg # of iterations = 10.4

     negative rho (up, down):  5.046E-04 0.000E+00

     add environment contribution to local potential

     total cpu time spent up to now is      256.0 secs

     total energy              =    -240.56262637 Ry
     estimated scf accuracy    <       0.00069927 Ry

     total charge of GC-SCF    =      -0.33589140 e
     the Fermi energy          =      -2.74439436 eV
                        (error :       0.34039436 eV)
     electrostatic embedding   =      -0.05706464 Ry
     cavitation energy         =       0.01235683 Ry
     electrolyte free energy   =      -0.00055299 Ry
     correction to one-el term =      10.31990249 Ry

     iteration #  9     ecut=    80.00 Ry     beta= 0.20
     Davidson diagonalization with overlap

---- Real-time Memory Report at c_bands before calling an iterative solver
           245 MiB given to the printing process from OS
             0 MiB allocation reported by mallinfo(arena+hblkhd)
        217265 MiB available memory on the node where the printing process lives
------------------
     ethr =  6.40E-07,  avg # of iterations =  3.0

     negative rho (up, down):  4.573E-04 0.000E+00

     add environment contribution to local potential

     total cpu time spent up to now is      265.5 secs

     total energy              =    -240.56258074 Ry
     estimated scf accuracy    <       0.00038904 Ry

     total charge of GC-SCF    =      -0.33559833 e
     the Fermi energy          =      -2.71984503 eV
                        (error :       0.31584503 eV)
     electrostatic embedding   =      -0.05722992 Ry
     cavitation energy         =       0.01235683 Ry
     electrolyte free energy   =      -0.00050998 Ry
     correction to one-el term =      10.33232294 Ry

     iteration # 10     ecut=    80.00 Ry     beta= 0.20
     Davidson diagonalization with overlap

---- Real-time Memory Report at c_bands before calling an iterative solver
           246 MiB given to the printing process from OS
             0 MiB allocation reported by mallinfo(arena+hblkhd)
        217264 MiB available memory on the node where the printing process lives
------------------
     ethr =  6.40E-07,  avg # of iterations =  1.0

     negative rho (up, down):  4.104E-04 0.000E+00

     add environment contribution to local potential

     total cpu time spent up to now is      273.5 secs

     total energy              =    -240.56305863 Ry
     estimated scf accuracy    <       0.00039511 Ry

     total charge of GC-SCF    =      -0.32152098 e
     the Fermi energy          =      -2.72066315 eV
                        (error :       0.31666315 eV)
     electrostatic embedding   =      -0.05715987 Ry
     cavitation energy         =       0.01235683 Ry
     electrolyte free energy   =      -0.00051140 Ry
     correction to one-el term =      10.32443704 Ry

     iteration # 11     ecut=    80.00 Ry     beta= 0.20
     Davidson diagonalization with overlap

---- Real-time Memory Report at c_bands before calling an iterative solver
           246 MiB given to the printing process from OS
             0 MiB allocation reported by mallinfo(arena+hblkhd)
        217254 MiB available memory on the node where the printing process lives
------------------
     ethr =  6.40E-07,  avg # of iterations =  3.1

     negative rho (up, down):  3.989E-04 0.000E+00

     add environment contribution to local potential

     total cpu time spent up to now is      282.3 secs

     total energy              =    -240.55629021 Ry
     estimated scf accuracy    <       0.00028670 Ry

     total charge of GC-SCF    =      -0.38459350 e
     the Fermi energy          =      -2.69413186 eV
                        (error :       0.29013186 eV)
     electrostatic embedding   =      -0.05341592 Ry
     cavitation energy         =       0.01235683 Ry
     electrolyte free energy   =      -0.00043807 Ry
     correction to one-el term =       9.93249937 Ry

     iteration # 12     ecut=    80.00 Ry     beta= 0.20
     Davidson diagonalization with overlap

---- Real-time Memory Report at c_bands before calling an iterative solver
           246 MiB given to the printing process from OS
             0 MiB allocation reported by mallinfo(arena+hblkhd)
        217260 MiB available memory on the node where the printing process lives
------------------
     ethr =  5.93E-07,  avg # of iterations =  6.5

     negative rho (up, down):  4.391E-04 0.000E+00

     add environment contribution to local potential

     total cpu time spent up to now is      296.1 secs

     total energy              =    -240.55877158 Ry
     estimated scf accuracy    <       0.00003384 Ry

     total charge of GC-SCF    =      -0.44417061 e
     the Fermi energy          =      -2.60173455 eV
                        (error :       0.19773455 eV)
     electrostatic embedding   =      -0.06943232 Ry
     cavitation energy         =       0.01235683 Ry
     electrolyte free energy   =      -0.00031224 Ry
     correction to one-el term =      11.74112695 Ry

     iteration # 13     ecut=    80.00 Ry     beta= 0.20
     Davidson diagonalization with overlap

---- Real-time Memory Report at c_bands before calling an iterative solver
           246 MiB given to the printing process from OS
             0 MiB allocation reported by mallinfo(arena+hblkhd)
        217268 MiB available memory on the node where the printing process lives
------------------
     ethr =  6.99E-08,  avg # of iterations =  9.3

     negative rho (up, down):  4.184E-04 0.000E+00

     add environment contribution to local potential

     total cpu time spent up to now is      312.3 secs

     total energy              =    -240.56180359 Ry
     estimated scf accuracy    <       0.00002437 Ry

     total charge of GC-SCF    =      -0.44337443 e
     the Fermi energy          =      -2.59417649 eV
                        (error :       0.19017649 eV)
     electrostatic embedding   =      -0.08742343 Ry
     cavitation energy         =       0.01235683 Ry
     electrolyte free energy   =      -0.00036391 Ry
     correction to one-el term =      13.46864615 Ry

     iteration # 14     ecut=    80.00 Ry     beta= 0.20
     Davidson diagonalization with overlap

---- Real-time Memory Report at c_bands before calling an iterative solver
           246 MiB given to the printing process from OS
             0 MiB allocation reported by mallinfo(arena+hblkhd)
        217290 MiB available memory on the node where the printing process lives
------------------
     ethr =  5.03E-08,  avg # of iterations =  6.0

     negative rho (up, down):  4.614E-04 0.000E+00

     add environment contribution to local potential

     total cpu time spent up to now is      324.1 secs

     total energy              =    -240.56020884 Ry
     estimated scf accuracy    <       0.00004919 Ry

     total charge of GC-SCF    =      -0.48959392 e
     the Fermi energy          =      -2.58168221 eV
                        (error :       0.17768221 eV)
     electrostatic embedding   =      -0.08698501 Ry
     cavitation energy         =       0.01235683 Ry
     electrolyte free energy   =      -0.00034266 Ry
     correction to one-el term =      13.44250020 Ry

     iteration # 15     ecut=    80.00 Ry     beta= 0.20
     Davidson diagonalization with overlap

---- Real-time Memory Report at c_bands before calling an iterative solver
           246 MiB given to the printing process from OS
             0 MiB allocation reported by mallinfo(arena+hblkhd)
        217280 MiB available memory on the node where the printing process lives
------------------
     ethr =  5.03E-08,  avg # of iterations = 10.3

     negative rho (up, down):  4.707E-04 0.000E+00

     add environment contribution to local potential

     total cpu time spent up to now is      341.1 secs

     total energy              =    -240.56148913 Ry
     estimated scf accuracy    <       0.00011754 Ry

     total charge of GC-SCF    =      -0.51078050 e
     the Fermi energy          =      -2.55765800 eV
                        (error :       0.15365800 eV)
     electrostatic embedding   =      -0.10188648 Ry
     cavitation energy         =       0.01235683 Ry
     electrolyte free energy   =      -0.00036896 Ry
     correction to one-el term =      14.75496417 Ry

     iteration # 16     ecut=    80.00 Ry     beta= 0.20
     Davidson diagonalization with overlap

---- Real-time Memory Report at c_bands before calling an iterative solver
           246 MiB given to the printing process from OS
             0 MiB allocation reported by mallinfo(arena+hblkhd)
        217281 MiB available memory on the node where the printing process lives
------------------
     ethr =  5.03E-08,  avg # of iterations =  6.1

     negative rho (up, down):  4.774E-04 0.000E+00

     add environment contribution to local potential

     total cpu time spent up to now is      352.8 secs

     total energy              =    -240.56103207 Ry
     estimated scf accuracy    <       0.00010008 Ry

     total charge of GC-SCF    =      -0.57279280 e
     the Fermi energy          =      -2.55505113 eV
                        (error :       0.15105113 eV)
     electrostatic embedding   =      -0.10931554 Ry
     cavitation energy         =       0.01235683 Ry
     electrolyte free energy   =      -0.00039557 Ry
     correction to one-el term =      15.36525057 Ry

     iteration # 17     ecut=    80.00 Ry     beta= 0.20
     Davidson diagonalization with overlap

---- Real-time Memory Report at c_bands before calling an iterative solver
           246 MiB given to the printing process from OS
             0 MiB allocation reported by mallinfo(arena+hblkhd)
        217287 MiB available memory on the node where the printing process lives
------------------
     ethr =  5.03E-08,  avg # of iterations =  8.0

     negative rho (up, down):  4.296E-04 0.000E+00

     add environment contribution to local potential

     total cpu time spent up to now is      368.1 secs

     total energy              =    -240.56883124 Ry
     estimated scf accuracy    <       0.00008838 Ry

     total charge of GC-SCF    =      -0.48248104 e
     the Fermi energy          =      -2.54026052 eV
                        (error :       0.13626052 eV)
     electrostatic embedding   =      -0.13270040 Ry
     cavitation energy         =       0.01235683 Ry
     electrolyte free energy   =      -0.00047453 Ry
     correction to one-el term =      17.20668585 Ry

     iteration # 18     ecut=    80.00 Ry     beta= 0.20
     Davidson diagonalization with overlap

---- Real-time Memory Report at c_bands before calling an iterative solver
           246 MiB given to the printing process from OS
             0 MiB allocation reported by mallinfo(arena+hblkhd)
        217282 MiB available memory on the node where the printing process lives
------------------
     ethr =  5.03E-08,  avg # of iterations = 10.0

     negative rho (up, down):  4.301E-04 0.000E+00

     add environment contribution to local potential

     total cpu time spent up to now is      384.2 secs

     total energy              =    -240.56070793 Ry
     estimated scf accuracy    <       0.00003093 Ry

     total charge of GC-SCF    =      -0.51335696 e
     the Fermi energy          =      -2.60155684 eV
                        (error :       0.19755684 eV)
     electrostatic embedding   =      -0.10001082 Ry
     cavitation energy         =       0.01235683 Ry
     electrolyte free energy   =      -0.00043190 Ry
     correction to one-el term =      14.52107026 Ry

     iteration # 19     ecut=    80.00 Ry     beta= 0.20
     Davidson diagonalization with overlap

---- Real-time Memory Report at c_bands before calling an iterative solver
           246 MiB given to the printing process from OS
             0 MiB allocation reported by mallinfo(arena+hblkhd)
        217289 MiB available memory on the node where the printing process lives
------------------
     ethr =  5.03E-08,  avg # of iterations =  7.5

     negative rho (up, down):  4.668E-04 0.000E+00

     add environment contribution to local potential

     total cpu time spent up to now is      399.3 secs

     total energy              =    -240.56211631 Ry
     estimated scf accuracy    <       0.00011898 Ry

     total charge of GC-SCF    =      -0.53176241 e
     the Fermi energy          =      -2.54318803 eV
                        (error :       0.13918803 eV)
     electrostatic embedding   =      -0.11013154 Ry
     cavitation energy         =       0.01235683 Ry
     electrolyte free energy   =      -0.00037866 Ry
     correction to one-el term =      15.48299231 Ry

     iteration # 20     ecut=    80.00 Ry     beta= 0.20
     Davidson diagonalization with overlap

---- Real-time Memory Report at c_bands before calling an iterative solver
           246 MiB given to the printing process from OS
             0 MiB allocation reported by mallinfo(arena+hblkhd)
        217295 MiB available memory on the node where the printing process lives
------------------
     ethr =  5.03E-08,  avg # of iterations =  6.1

     negative rho (up, down):  3.099E-04 0.000E+00

     add environment contribution to local potential

     total cpu time spent up to now is      411.8 secs

     total energy              =    -240.56847502 Ry
     estimated scf accuracy    <       0.00019171 Ry

     total charge of GC-SCF    =      -0.43020135 e
     the Fermi energy          =      -2.52856326 eV
                        (error :       0.12456326 eV)
     electrostatic embedding   =      -0.11659533 Ry
     cavitation energy         =       0.01235683 Ry
     electrolyte free energy   =      -0.00038912 Ry
     correction to one-el term =      16.01740004 Ry

     iteration # 21     ecut=    80.00 Ry     beta= 0.20
     Davidson diagonalization with overlap

---- Real-time Memory Report at c_bands before calling an iterative solver
           246 MiB given to the printing process from OS
             0 MiB allocation reported by mallinfo(arena+hblkhd)
        217240 MiB available memory on the node where the printing process lives
------------------
     ethr =  5.03E-08,  avg # of iterations = 11.4

     negative rho (up, down):  2.835E-04 0.000E+00

     add environment contribution to local potential

     total cpu time spent up to now is      428.9 secs

     total energy              =    -240.56123278 Ry
     estimated scf accuracy    <       0.00002315 Ry

     total charge of GC-SCF    =      -0.43927453 e
     the Fermi energy          =      -2.61161970 eV
                        (error :       0.20761970 eV)
     electrostatic embedding   =      -0.08297159 Ry
     cavitation energy         =       0.01235683 Ry
     electrolyte free energy   =      -0.00038008 Ry
     correction to one-el term =      13.03297303 Ry

     iteration # 22     ecut=    80.00 Ry     beta= 0.20
     Davidson diagonalization with overlap

---- Real-time Memory Report at c_bands before calling an iterative solver
           246 MiB given to the printing process from OS
             0 MiB allocation reported by mallinfo(arena+hblkhd)
        217249 MiB available memory on the node where the printing process lives
------------------
     ethr =  4.78E-08,  avg # of iterations =  6.2

     negative rho (up, down):  2.315E-04 0.000E+00

     add environment contribution to local potential

     total cpu time spent up to now is      440.6 secs

     total energy              =    -240.55979483 Ry
     estimated scf accuracy    <       0.00001675 Ry

     total charge of GC-SCF    =      -0.53126427 e
     the Fermi energy          =      -2.60070070 eV
                        (error :       0.19670070 eV)
     electrostatic embedding   =      -0.08564455 Ry
     cavitation energy         =       0.01235683 Ry
     electrolyte free energy   =      -0.00036954 Ry
     correction to one-el term =      13.28887957 Ry

     iteration # 23     ecut=    80.00 Ry     beta= 0.20
     Davidson diagonalization with overlap

---- Real-time Memory Report at c_bands before calling an iterative solver
           246 MiB given to the printing process from OS
             0 MiB allocation reported by mallinfo(arena+hblkhd)
        217259 MiB available memory on the node where the printing process lives
------------------
     ethr =  3.45E-08,  avg # of iterations = 11.9

     negative rho (up, down):  2.265E-04 0.000E+00

     add environment contribution to local potential

     total cpu time spent up to now is      457.9 secs

     total energy              =    -240.56114875 Ry
     estimated scf accuracy    <       0.00018265 Ry

     total charge of GC-SCF    =      -0.70241495 e
     the Fermi energy          =      -2.62734340 eV
                        (error :       0.22334340 eV)
     electrostatic embedding   =      -0.11766916 Ry
     cavitation energy         =       0.01235683 Ry
     electrolyte free energy   =      -0.00055034 Ry
     correction to one-el term =      15.97036360 Ry

     iteration # 24     ecut=    80.00 Ry     beta= 0.20
     Davidson diagonalization with overlap

---- Real-time Memory Report at c_bands before calling an iterative solver
           246 MiB given to the printing process from OS
             0 MiB allocation reported by mallinfo(arena+hblkhd)
        217270 MiB available memory on the node where the printing process lives
------------------
     ethr =  3.45E-08,  avg # of iterations = 13.7

     negative rho (up, down):  2.128E-04 0.000E+00

     add environment contribution to local potential

     total cpu time spent up to now is      477.6 secs

     total energy              =    -240.56398893 Ry
     estimated scf accuracy    <       0.00003386 Ry

     total charge of GC-SCF    =      -0.71878704 e
     the Fermi energy          =      -2.51208914 eV
                        (error :       0.10808914 eV)
     electrostatic embedding   =      -0.18892050 Ry
     cavitation energy         =       0.01235683 Ry
     electrolyte free energy   =      -0.00072619 Ry
     correction to one-el term =      21.02038045 Ry

     iteration # 25     ecut=    80.00 Ry     beta= 0.20
     Davidson diagonalization with overlap

---- Real-time Memory Report at c_bands before calling an iterative solver
           246 MiB given to the printing process from OS
             0 MiB allocation reported by mallinfo(arena+hblkhd)
        217278 MiB available memory on the node where the printing process lives
------------------
     ethr =  3.45E-08,  avg # of iterations =  7.0

     negative rho (up, down):  1.922E-04 0.000E+00

     add environment contribution to local potential

     total cpu time spent up to now is      490.7 secs

     total energy              =    -240.56841858 Ry
     estimated scf accuracy    <       0.00000837 Ry

     total charge of GC-SCF    =      -0.89748009 e
     the Fermi energy          =      -2.52361899 eV
                        (error :       0.11961899 eV)
     electrostatic embedding   =      -0.19728875 Ry
     cavitation energy         =       0.01235683 Ry
     electrolyte free energy   =      -0.00079004 Ry
     correction to one-el term =      21.49079468 Ry

     iteration # 26     ecut=    80.00 Ry     beta= 0.20
     Davidson diagonalization with overlap

---- Real-time Memory Report at c_bands before calling an iterative solver
           246 MiB given to the printing process from OS
             0 MiB allocation reported by mallinfo(arena+hblkhd)
        217285 MiB available memory on the node where the printing process lives
------------------
     ethr =  1.71E-08,  avg # of iterations = 12.7

     negative rho (up, down):  2.052E-04 0.000E+00

     add environment contribution to local potential

     total cpu time spent up to now is      510.6 secs

     total energy              =    -240.57239816 Ry
     estimated scf accuracy    <       0.00000744 Ry

     total charge of GC-SCF    =      -1.08317914 e
     the Fermi energy          =      -2.47786846 eV
                        (error :       0.07386846 eV)
     electrostatic embedding   =      -0.29493518 Ry
     cavitation energy         =       0.01235683 Ry
     electrolyte free energy   =      -0.00135406 Ry
     correction to one-el term =      26.91555658 Ry

     iteration # 27     ecut=    80.00 Ry     beta= 0.20
     Davidson diagonalization with overlap

---- Real-time Memory Report at c_bands before calling an iterative solver
           246 MiB given to the printing process from OS
             0 MiB allocation reported by mallinfo(arena+hblkhd)
        217292 MiB available memory on the node where the printing process lives
------------------
     ethr =  1.52E-08,  avg # of iterations = 12.7

     negative rho (up, down):  1.867E-04 0.000E+00

     add environment contribution to local potential

     total cpu time spent up to now is      531.1 secs

     total energy              =    -240.56914165 Ry
     estimated scf accuracy    <       0.00003557 Ry

     total charge of GC-SCF    =      -0.98863384 e
     the Fermi energy          =      -2.41259304 eV
                        (error :       0.00859304 eV)
     electrostatic embedding   =      -0.41479851 Ry
     cavitation energy         =       0.01235683 Ry
     electrolyte free energy   =      -0.00224170 Ry
     correction to one-el term =      32.46151192 Ry

     iteration # 28     ecut=    80.00 Ry     beta= 0.20
     Davidson diagonalization with overlap

---- Real-time Memory Report at c_bands before calling an iterative solver
           247 MiB given to the printing process from OS
             0 MiB allocation reported by mallinfo(arena+hblkhd)
        217296 MiB available memory on the node where the printing process lives
------------------
     ethr =  1.52E-08,  avg # of iterations = 10.2

     negative rho (up, down):  2.021E-04 0.000E+00

     add environment contribution to local potential

     total cpu time spent up to now is      548.1 secs

     total energy              =    -240.56623235 Ry
     estimated scf accuracy    <       0.00000575 Ry

     total charge of GC-SCF    =      -0.99912280 e
     the Fermi energy          =      -2.45551711 eV
                        (error :       0.05151711 eV)
     electrostatic embedding   =      -0.35110073 Ry
     cavitation energy         =       0.01235683 Ry
     electrolyte free energy   =      -0.00175255 Ry
     correction to one-el term =      29.58554501 Ry

     iteration # 29     ecut=    80.00 Ry     beta= 0.20
     Davidson diagonalization with overlap

---- Real-time Memory Report at c_bands before calling an iterative solver
           247 MiB given to the printing process from OS
             0 MiB allocation reported by mallinfo(arena+hblkhd)
        217290 MiB available memory on the node where the printing process lives
------------------
     ethr =  1.17E-08,  avg # of iterations =  5.9

     negative rho (up, down):  1.858E-04 0.000E+00

     add environment contribution to local potential

     total cpu time spent up to now is      560.8 secs

     total energy              =    -240.56932015 Ry
     estimated scf accuracy    <       0.00000816 Ry

     total charge of GC-SCF    =      -0.91577693 e
     the Fermi energy          =      -2.44758701 eV
                        (error :       0.04358701 eV)
     electrostatic embedding   =      -0.35798521 Ry
     cavitation energy         =       0.01235683 Ry
     electrolyte free energy   =      -0.00179909 Ry
     correction to one-el term =      29.92809481 Ry

     iteration # 30     ecut=    80.00 Ry     beta= 0.20
     Davidson diagonalization with overlap

---- Real-time Memory Report at c_bands before calling an iterative solver
           247 MiB given to the printing process from OS
             0 MiB allocation reported by mallinfo(arena+hblkhd)
        217301 MiB available memory on the node where the printing process lives
------------------
     ethr =  1.17E-08,  avg # of iterations = 11.1

     negative rho (up, down):  1.913E-04 0.000E+00

     add environment contribution to local potential

     total cpu time spent up to now is      577.9 secs

     total energy              =    -240.56911547 Ry
     estimated scf accuracy    <       0.00000459 Ry

     total charge of GC-SCF    =      -1.05699059 e
     the Fermi energy          =      -2.47395189 eV
                        (error :       0.06995189 eV)
     electrostatic embedding   =      -0.30540609 Ry
     cavitation energy         =       0.01235683 Ry
     electrolyte free energy   =      -0.00142802 Ry
     correction to one-el term =      27.40389166 Ry

     iteration # 31     ecut=    80.00 Ry     beta= 0.20
     Davidson diagonalization with overlap

---- Real-time Memory Report at c_bands before calling an iterative solver
           247 MiB given to the printing process from OS
             0 MiB allocation reported by mallinfo(arena+hblkhd)
        217299 MiB available memory on the node where the printing process lives
------------------
     ethr =  9.36E-09,  avg # of iterations = 12.5

     negative rho (up, down):  1.932E-04 0.000E+00

     add environment contribution to local potential

     total cpu time spent up to now is      597.0 secs

     total energy              =    -240.56679375 Ry
     estimated scf accuracy    <       0.00000729 Ry

     total charge of GC-SCF    =      -1.04143523 e
     the Fermi energy          =      -2.43555859 eV
                        (error :       0.03155859 eV)
     electrostatic embedding   =      -0.39603320 Ry
     cavitation energy         =       0.01235683 Ry
     electrolyte free energy   =      -0.00210261 Ry
     correction to one-el term =      31.55878311 Ry

     iteration # 32     ecut=    80.00 Ry     beta= 0.20
     Davidson diagonalization with overlap

---- Real-time Memory Report at c_bands before calling an iterative solver
           247 MiB given to the printing process from OS
             0 MiB allocation reported by mallinfo(arena+hblkhd)
        217296 MiB available memory on the node where the printing process lives
------------------
     ethr =  9.36E-09,  avg # of iterations =  6.7

     negative rho (up, down):  1.934E-04 0.000E+00

     add environment contribution to local potential

     total cpu time spent up to now is      610.6 secs

     total energy              =    -240.56971853 Ry
     estimated scf accuracy    <       0.00000230 Ry

     total charge of GC-SCF    =      -1.16981805 e
     the Fermi energy          =      -2.44816074 eV
                        (error :       0.04416074 eV)
     electrostatic embedding   =      -0.38532380 Ry
     cavitation energy         =       0.01235683 Ry
     electrolyte free energy   =      -0.00202663 Ry
     correction to one-el term =      31.04380046 Ry

     iteration # 33     ecut=    80.00 Ry     beta= 0.20
     Davidson diagonalization with overlap

---- Real-time Memory Report at c_bands before calling an iterative solver
           247 MiB given to the printing process from OS
             0 MiB allocation reported by mallinfo(arena+hblkhd)
        217298 MiB available memory on the node where the printing process lives
------------------
     ethr =  4.67E-09,  avg # of iterations = 13.2

     negative rho (up, down):  1.988E-04 0.000E+00

     add environment contribution to local potential

     total cpu time spent up to now is      630.9 secs

     total energy              =    -240.56698070 Ry
     estimated scf accuracy    <       0.00000201 Ry

     total charge of GC-SCF    =      -1.16868833 e
     the Fermi energy          =      -2.43085317 eV
                        (error :       0.02685317 eV)
     electrostatic embedding   =      -0.47646916 Ry
     cavitation energy         =       0.01235683 Ry
     electrolyte free energy   =      -0.00282387 Ry
     correction to one-el term =      34.70812145 Ry

     iteration # 34     ecut=    80.00 Ry     beta= 0.20
     Davidson diagonalization with overlap

---- Real-time Memory Report at c_bands before calling an iterative solver
           247 MiB given to the printing process from OS
             0 MiB allocation reported by mallinfo(arena+hblkhd)
        217299 MiB available memory on the node where the printing process lives
------------------
     ethr =  4.08E-09,  avg # of iterations =  7.7

     negative rho (up, down):  1.928E-04 0.000E+00

     add environment contribution to local potential

     total cpu time spent up to now is      645.0 secs

     total energy              =    -240.56810076 Ry
     estimated scf accuracy    <       0.00000058 Ry

     total charge of GC-SCF    =      -1.24495147 e
     the Fermi energy          =      -2.42867936 eV
                        (error :       0.02467936 eV)
     electrostatic embedding   =      -0.47511854 Ry
     cavitation energy         =       0.01235683 Ry
     electrolyte free energy   =      -0.00281105 Ry
     correction to one-el term =      34.64056235 Ry

     iteration # 35     ecut=    80.00 Ry     beta= 0.20
     Davidson diagonalization with overlap

---- Real-time Memory Report at c_bands before calling an iterative solver
           247 MiB given to the printing process from OS
             0 MiB allocation reported by mallinfo(arena+hblkhd)
        217300 MiB available memory on the node where the printing process lives
------------------
     ethr =  1.17E-09,  avg # of iterations = 13.1

     negative rho (up, down):  1.903E-04 0.000E+00

     add environment contribution to local potential

     total cpu time spent up to now is      666.7 secs

     total energy              =    -240.56716122 Ry
     estimated scf accuracy    <       0.00000035 Ry

     total charge of GC-SCF    =      -1.23266781 e
     the Fermi energy          =      -2.41347312 eV
                        (error :       0.00947312 eV)
     electrostatic embedding   =      -0.53335524 Ry
     cavitation energy         =       0.01235683 Ry
     electrolyte free energy   =      -0.00337247 Ry
     correction to one-el term =      36.82255247 Ry

     iteration # 36     ecut=    80.00 Ry     beta= 0.20
     Davidson diagonalization with overlap

---- Real-time Memory Report at c_bands before calling an iterative solver
           247 MiB given to the printing process from OS
             0 MiB allocation reported by mallinfo(arena+hblkhd)
        217301 MiB available memory on the node where the printing process lives
------------------
     ethr =  7.03E-10,  avg # of iterations =  8.6

     negative rho (up, down):  1.890E-04 0.000E+00

     add environment contribution to local potential

     total cpu time spent up to now is      682.5 secs

     total energy              =    -240.56707374 Ry
     estimated scf accuracy    <       0.00000023 Ry

     total charge of GC-SCF    =      -1.24661125 e
     the Fermi energy          =      -2.41793743 eV
                        (error :       0.01393743 eV)
     electrostatic embedding   =      -0.52298123 Ry
     cavitation energy         =       0.01235683 Ry
     electrolyte free energy   =      -0.00327452 Ry
     correction to one-el term =      36.40160727 Ry

     iteration # 37     ecut=    80.00 Ry     beta= 0.20
     Davidson diagonalization with overlap

---- Real-time Memory Report at c_bands before calling an iterative solver
           247 MiB given to the printing process from OS
             0 MiB allocation reported by mallinfo(arena+hblkhd)
        217295 MiB available memory on the node where the printing process lives
------------------
     ethr =  4.57E-10,  avg # of iterations = 10.0

     negative rho (up, down):  1.835E-04 0.000E+00

     add environment contribution to local potential

     total cpu time spent up to now is      699.4 secs

     total energy              =    -240.56717993 Ry
     estimated scf accuracy    <       0.00000013 Ry

     total charge of GC-SCF    =      -1.27145206 e
     the Fermi energy          =      -2.41485034 eV
                        (error :       0.01085034 eV)
     electrostatic embedding   =      -0.53405499 Ry
     cavitation energy         =       0.01235683 Ry
     electrolyte free energy   =      -0.00338373 Ry
     correction to one-el term =      36.81622888 Ry

     iteration # 38     ecut=    80.00 Ry     beta= 0.20
     Davidson diagonalization with overlap

---- Real-time Memory Report at c_bands before calling an iterative solver
           247 MiB given to the printing process from OS
             0 MiB allocation reported by mallinfo(arena+hblkhd)
        217296 MiB available memory on the node where the printing process lives
------------------
     ethr =  2.72E-10,  avg # of iterations = 13.0

     negative rho (up, down):  1.847E-04 0.000E+00

     add environment contribution to local potential

     total cpu time spent up to now is      718.9 secs

     total energy              =    -240.56711966 Ry
     estimated scf accuracy    <       0.00000006 Ry

     total charge of GC-SCF    =      -1.28341978 e
     the Fermi energy          =      -2.41050634 eV
                        (error :       0.00650634 eV)
     electrostatic embedding   =      -0.55339616 Ry
     cavitation energy         =       0.01235683 Ry
     electrolyte free energy   =      -0.00358210 Ry
     correction to one-el term =      37.49992952 Ry

     iteration # 39     ecut=    80.00 Ry     beta= 0.20
     Davidson diagonalization with overlap

---- Real-time Memory Report at c_bands before calling an iterative solver
           247 MiB given to the printing process from OS
             0 MiB allocation reported by mallinfo(arena+hblkhd)
        217256 MiB available memory on the node where the printing process lives
------------------
     ethr =  1.24E-10,  avg # of iterations = 14.5

     negative rho (up, down):  1.860E-04 0.000E+00

     add environment contribution to local potential

     total cpu time spent up to now is      738.4 secs

     total energy              =    -240.56710792 Ry
     estimated scf accuracy    <       0.00000004 Ry

     total charge of GC-SCF    =      -1.28854446 e
     the Fermi energy          =      -2.40781623 eV
                        (error :       0.00381623 eV)
     electrostatic embedding   =      -0.56302315 Ry
     cavitation energy         =       0.01235683 Ry
     electrolyte free energy   =      -0.00368126 Ry
     correction to one-el term =      37.84395033 Ry

     iteration # 40     ecut=    80.00 Ry     beta= 0.20
     Davidson diagonalization with overlap

---- Real-time Memory Report at c_bands before calling an iterative solver
           247 MiB given to the printing process from OS
             0 MiB allocation reported by mallinfo(arena+hblkhd)
        217264 MiB available memory on the node where the printing process lives
------------------
     ethr =  7.97E-11,  avg # of iterations =  9.3

     negative rho (up, down):  1.880E-04 0.000E+00

     add environment contribution to local potential

     total cpu time spent up to now is      754.6 secs

     total energy              =    -240.56711843 Ry
     estimated scf accuracy    <       0.00000003 Ry

     total charge of GC-SCF    =      -1.29612405 e
     the Fermi energy          =      -2.40652421 eV
                        (error :       0.00252421 eV)
     electrostatic embedding   =      -0.56716910 Ry
     cavitation energy         =       0.01235683 Ry
     electrolyte free energy   =      -0.00372424 Ry
     correction to one-el term =      37.99183077 Ry

     iteration # 41     ecut=    80.00 Ry     beta= 0.20
     Davidson diagonalization with overlap

---- Real-time Memory Report at c_bands before calling an iterative solver
           247 MiB given to the printing process from OS
             0 MiB allocation reported by mallinfo(arena+hblkhd)
        217269 MiB available memory on the node where the printing process lives
------------------
     ethr =  5.93E-11,  avg # of iterations = 10.8

     negative rho (up, down):  1.852E-04 0.000E+00

     total cpu time spent up to now is      770.5 secs

     End of self-consistent calculation

          k = 0.0000 0.0000 0.0000 (128001 PWs)   bands (ev):

   -49.1865 -49.1864 -49.1768 -49.1768 -49.1768 -49.1767 -49.1703 -49.1702
   -48.8800 -48.8702 -48.8656 -48.8656 -48.8655 -48.8655 -48.8622 -48.8555
    -5.8241  -5.2508  -4.2902  -3.3458  -2.5961  -2.3824  -2.3824  -2.3824
    -2.3824  -2.1432  -2.1432  -2.1431  -2.1431  -1.9987  -1.2901  -0.7035
    -0.5295  -0.1185  -0.0030   0.0782

     occupation numbers 
     1.0000   1.0000   1.0000   1.0000   1.0000   1.0000   1.0000   1.0000
     1.0000   1.0000   1.0000   1.0000   1.0000   1.0000   1.0000   1.0000
     1.0000   1.0000   1.0000   1.0000   1.0833   0.2947   0.2946   0.2946
     0.2945   0.0005   0.0005   0.0005   0.0005   0.0000   0.0000   0.0000
     0.0000   0.0000   0.0000   0.0000

          k = 0.0000 0.0964 0.0000 (128124 PWs)   bands (ev):

   -49.1863 -49.1862 -49.1770 -49.1769 -49.1766 -49.1766 -49.1704 -49.1703
   -48.8798 -48.8700 -48.8664 -48.8659 -48.8650 -48.8649 -48.8623 -48.8556
    -5.7948  -5.2211  -4.2585  -3.3101  -2.9365  -2.5579  -2.5391  -2.5220
    -2.2495  -2.1294  -2.0389  -2.0320  -1.9975  -1.8225  -1.3386  -0.6679
    -0.4908  -0.0791  -0.0002   0.0359

     occupation numbers 
     1.0000   1.0000   1.0000   1.0000   1.0000   1.0000   1.0000   1.0000
     1.0000   1.0000   1.0000   1.0000   1.0000   1.0000   1.0000   1.0000
     1.0000   1.0000   1.0000   1.0000   1.0000   1.0575   1.0223   0.9754
     0.0175   0.0003   0.0000   0.0000   0.0000   0.0000   0.0000   0.0000
     0.0000   0.0000   0.0000   0.0000

          k = 0.0000 0.1928 0.0000 (128159 PWs)   bands (ev):

   -49.1857 -49.1856 -49.1776 -49.1775 -49.1763 -49.1762 -49.1708 -49.1707
   -48.8791 -48.8696 -48.8677 -48.8660 -48.8649 -48.8640 -48.8626 -48.8561
    -5.7069  -5.1321  -4.1637  -3.4682  -3.2034  -2.9636  -2.6418  -2.4431
    -2.2634  -2.1440  -2.1362  -1.8787  -1.8654  -1.4652  -1.4220  -0.5619
    -0.3748  -0.1965   0.0393   0.1523

     occupation numbers 
     1.0000   1.0000   1.0000   1.0000   1.0000   1.0000   1.0000   1.0000
     1.0000   1.0000   1.0000   1.0000   1.0000   1.0000   1.0000   1.0000
     1.0000   1.0000   1.0000   1.0000   1.0000   1.0000   1.0652   0.6057
     0.0256   0.0005   0.0004   0.0000   0.0000   0.0000   0.0000   0.0000
     0.0000   0.0000   0.0000   0.0000

          k = 0.0000 0.2893 0.0000 (128149 PWs)   bands (ev):

   -49.1848 -49.1847 -49.1785 -49.1784 -49.1757 -49.1756 -49.1714 -49.1713
   -48.8779 -48.8692 -48.8690 -48.8658 -48.8651 -48.8631 -48.8630 -48.8569
    -5.5603  -4.9841  -4.0067  -3.9553  -3.4088  -3.0267  -2.6902  -2.4558
    -2.2821  -2.2520  -2.2478  -1.6908  -1.6315  -1.5280  -1.4145  -0.4479
    -0.3879  -0.1896  -0.1815   0.2365

     occupation numbers 
     1.0000   1.0000   1.0000   1.0000   1.0000   1.0000   1.0000   1.0000
     1.0000   1.0000   1.0000   1.0000   1.0000   1.0000   1.0000   1.0000
     1.0000   1.0000   1.0000   1.0000   1.0000   1.0000   1.0332   0.6756
     0.0412   0.0187   0.0166   0.0000   0.0000   0.0000   0.0000   0.0000
     0.0000   0.0000   0.0000   0.0000

          k = 0.0000 0.3857 0.0000 (128143 PWs)   bands (ev):

   -49.1836 -49.1836 -49.1796 -49.1796 -49.1749 -49.1748 -49.1722 -49.1721
   -48.8764 -48.8710 -48.8682 -48.8657 -48.8654 -48.8636 -48.8617 -48.8580
    -5.3551  -4.7776  -4.3902  -3.8241  -3.7896  -2.8287  -2.7822  -2.6872
    -2.4231  -2.1909  -1.9848  -1.8046  -1.7288  -1.4748  -1.1329  -0.7365
    -0.7157  -0.1517   0.0884   0.2911

     occupation numbers 
     1.0000   1.0000   1.0000   1.0000   1.0000   1.0000   1.0000   1.0000
     1.0000   1.0000   1.0000   1.0000   1.0000   1.0000   1.0000   1.0000
     1.0000   1.0000   1.0000   1.0000   1.0000   1.0009   1.0039   1.0350
     0.4956   0.0028   0.0000   0.0000   0.0000   0.0000   0.0000   0.0000
     0.0000   0.0000   0.0000   0.0000

          k = 0.0000 0.4821 0.0000 (128153 PWs)   bands (ev):

   -49.1823 -49.1823 -49.1809 -49.1809 -49.1740 -49.1739 -49.1731 -49.1730
   -48.8747 -48.8729 -48.8673 -48.8664 -48.8649 -48.8643 -48.8604 -48.8592
    -5.0914  -4.7695  -4.5139  -4.1948  -3.5155  -3.1910  -2.6370  -2.5460
    -2.4744  -2.1138  -2.0946  -1.9633  -1.6419  -1.2365  -1.2247  -0.9815
    -0.6877  -0.2055   0.1303   0.4034

     occupation numbers 
     1.0000   1.0000   1.0000   1.0000   1.0000   1.0000   1.0000   1.0000
     1.0000   1.0000   1.0000   1.0000   1.0000   1.0000   1.0000   1.0000
     1.0000   1.0000   1.0000   1.0000   1.0000   1.0000   1.0683   1.0373
     0.7743   0.0001   0.0001   0.0000   0.0000   0.0000   0.0000   0.0000
     0.0000   0.0000   0.0000   0.0000

          k = 0.0909 0.0321 0.0000 (128124 PWs)   bands (ev):

   -49.1863 -49.1862 -49.1770 -49.1769 -49.1766 -49.1766 -49.1704 -49.1703
   -48.8798 -48.8700 -48.8664 -48.8659 -48.8650 -48.8649 -48.8623 -48.8556
    -5.7948  -5.2211  -4.2585  -3.3101  -2.9365  -2.5579  -2.5391  -2.5220
    -2.2495  -2.1294  -2.0389  -2.0320  -1.9975  -1.8225  -1.3386  -0.6679
    -0.4908  -0.0791  -0.0002   0.0359

     occupation numbers 
     1.0000   1.0000   1.0000   1.0000   1.0000   1.0000   1.0000   1.0000
     1.0000   1.0000   1.0000   1.0000   1.0000   1.0000   1.0000   1.0000
     1.0000   1.0000   1.0000   1.0000   1.0000   1.0575   1.0223   0.9754
     0.0175   0.0003   0.0000   0.0000   0.0000   0.0000   0.0000   0.0000
     0.0000   0.0000   0.0000   0.0000

          k = 0.0909 0.1286 0.0000 (128153 PWs)   bands (ev):

   -49.1860 -49.1860 -49.1769 -49.1769 -49.1769 -49.1768 -49.1705 -49.1704
   -48.8794 -48.8699 -48.8668 -48.8668 -48.8645 -48.8645 -48.8623 -48.8558
    -5.7460  -5.1719  -4.2064  -3.2513  -3.0926  -3.0926  -2.6363  -2.6362
    -2.4942  -1.9808  -1.9808  -1.8948  -1.6284  -1.6284  -1.1863  -0.6095
    -0.4263  -0.0133   0.1005   0.1817

     occupation numbers 
     1.0000   1.0000   1.0000   1.0000   1.0000   1.0000   1.0000   1.0000
     1.0000   1.0000   1.0000   1.0000   1.0000   1.0000   1.0000   1.0000
     1.0000   1.0000   1.0000   1.0000   1.0000   1.0000   1.0687   1.0687
     0.8689   0.0000   0.0000   0.0000   0.0000   0.0000   0.0000   0.0000
     0.0000   0.0000   0.0000   0.0000

          k = 0.0909 0.2250 0.0000 (128141 PWs)   bands (ev):

   -49.1854 -49.1853 -49.1775 -49.1775 -49.1766 -49.1765 -49.1708 -49.1707
   -48.8786 -48.8695 -48.8681 -48.8669 -48.8644 -48.8637 -48.8624 -48.8564
    -5.6385  -5.0635  -4.0915  -3.6111  -3.1891  -3.1218  -3.0861  -2.6967
    -2.3540  -2.1984  -1.9297  -1.8358  -1.3902  -1.3340  -1.1393  -0.4812
    -0.2845   0.1313   0.1759   0.2130

     occupation numbers 
     1.0000   1.0000   1.0000   1.0000   1.0000   1.0000   1.0000   1.0000
     1.0000   1.0000   1.0000   1.0000   1.0000   1.0000   1.0000   1.0000
     1.0000   1.0000   1.0000   1.0000   1.0000   1.0000   1.0000   1.0295
     0.1868   0.0036   0.0000   0.0000   0.0000   0.0000   0.0000   0.0000
     0.0000   0.0000   0.0000   0.0000

          k = 0.0909 0.3214 0.0000 (128182 PWs)   bands (ev):

   -49.1845 -49.1844 -49.1785 -49.1784 -49.1760 -49.1760 -49.1714 -49.1713
   -48.8773 -48.8696 -48.8689 -48.8667 -48.8647 -48.8627 -48.8627 -48.8572
    -5.4721  -4.8959  -4.0813  -3.9147  -3.5241  -3.2284  -2.9227  -2.7043
    -2.5469  -2.1375  -1.8571  -1.8431  -1.4655  -1.1963  -1.1175  -0.3431
    -0.2862  -0.0655  -0.0410   0.3548

     occupation numbers 
     1.0000   1.0000   1.0000   1.0000   1.0000   1.0000   1.0000   1.0000
     1.0000   1.0000   1.0000   1.0000   1.0000   1.0000   1.0000   1.0000
     1.0000   1.0000   1.0000   1.0000   1.0000   1.0000   1.0000   1.0256
     1.0391   0.0004   0.0000   0.0000   0.0000   0.0000   0.0000   0.0000
     0.0000   0.0000   0.0000   0.0000

          k = 0.0909 0.4178 0.0000 (128184 PWs)   bands (ev):

   -49.1833 -49.1832 -49.1797 -49.1796 -49.1753 -49.1752 -49.1721 -49.1721
   -48.8758 -48.8714 -48.8681 -48.8663 -48.8653 -48.8632 -48.8615 -48.8583
    -5.2470  -4.6700  -4.4976  -3.9256  -3.6782  -3.2130  -2.9210  -2.6608
    -2.6568  -1.9264  -1.8448  -1.8222  -1.7199  -1.3196  -0.8728  -0.8234
    -0.3841  -0.0687  -0.0324   0.2300

     occupation numbers 
     1.0000   1.0000   1.0000   1.0000   1.0000   1.0000   1.0000   1.0000
     1.0000   1.0000   1.0000   1.0000   1.0000   1.0000   1.0000   1.0000
     1.0000   1.0000   1.0000   1.0000   1.0000   1.0000   1.0000   1.0522
     1.0550   0.0000   0.0000   0.0000   0.0000   0.0000   0.0000   0.0000
     0.0000   0.0000   0.0000   0.0000

          k = 0.0909 0.5143 0.0000 (128204 PWs)   bands (ev):

   -49.1819 -49.1819 -49.1810 -49.1809 -49.1744 -49.1743 -49.1730 -49.1729
   -48.8740 -48.8732 -48.8673 -48.8661 -48.8657 -48.8637 -48.8603 -48.8596
    -4.9632  -4.8576  -4.3870  -4.2795  -3.3863  -3.2728  -3.1460  -2.5685
    -2.3299  -2.2044  -2.0085  -1.5594  -1.4767  -1.4692  -1.3378  -0.7728
    -0.6651  -0.5203   0.2573   0.3544

     occupation numbers 
     1.0000   1.0000   1.0000   1.0000   1.0000   1.0000   1.0000   1.0000
     1.0000   1.0000   1.0000   1.0000   1.0000   1.0000   1.0000   1.0000
     1.0000   1.0000   1.0000   1.0000   1.0000   1.0000   1.0000   1.0702
     0.1192   0.0044   0.0000   0.0000   0.0000   0.0000   0.0000   0.0000
     0.0000   0.0000   0.0000   0.0000

          k = 0.0909-0.4500 0.0000 (128255 PWs)   bands (ev):

   -49.1824 -49.1823 -49.1806 -49.1805 -49.1739 -49.1739 -49.1734 -49.1734
   -48.8750 -48.8721 -48.8670 -48.8665 -48.8650 -48.8643 -48.8610 -48.8591
    -5.1598  -4.6211  -4.5804  -4.0494  -3.5816  -3.0464  -3.0313  -2.5495
    -2.4306  -2.0776  -1.9558  -1.7303  -1.6197  -1.3614  -1.2005  -1.1610
    -1.0349  -0.2116   0.0673   0.3445

     occupation numbers 
     1.0000   1.0000   1.0000   1.0000   1.0000   1.0000   1.0000   1.0000
     1.0000   1.0000   1.0000   1.0000   1.0000   1.0000   1.0000   1.0000
     1.0000   1.0000   1.0000   1.0000   1.0000   1.0000   1.0000   1.0438
     0.5364   0.0000   0.0000   0.0000   0.0000   0.0000   0.0000   0.0000
     0.0000   0.0000   0.0000   0.0000

          k = 0.0909-0.3536 0.0000 (128248 PWs)   bands (ev):

   -49.1837 -49.1836 -49.1793 -49.1792 -49.1749 -49.1748 -49.1725 -49.1725
   -48.8767 -48.8702 -48.8680 -48.8658 -48.8648 -48.8643 -48.8623 -48.8579
    -5.4039  -4.8252  -4.2220  -3.8376  -3.6615  -2.8739  -2.8372  -2.6747
    -2.2517  -2.1179  -2.0480  -1.7702  -1.6569  -1.5758  -1.5229  -1.1275
    -0.5243  -0.2027   0.0241   0.1094

     occupation numbers 
     1.0000   1.0000   1.0000   1.0000   1.0000   1.0000   1.0000   1.0000
     1.0000   1.0000   1.0000   1.0000   1.0000   1.0000   1.0000   1.0000
     1.0000   1.0000   1.0000   1.0000   1.0000   1.0002   1.0007   1.0428
     0.0186   0.0002   0.0000   0.0000   0.0000   0.0000   0.0000   0.0000
     0.0000   0.0000   0.0000   0.0000

          k = 0.0909-0.2571 0.0000 (128274 PWs)   bands (ev):

   -49.1848 -49.1847 -49.1781 -49.1781 -49.1757 -49.1756 -49.1717 -49.1716
   -48.8780 -48.8688 -48.8685 -48.8653 -48.8651 -48.8637 -48.8636 -48.8570
    -5.5894  -5.0124  -4.0355  -3.7679  -3.2325  -3.0599  -2.6811  -2.3071
    -2.2900  -2.1214  -2.0988  -2.0383  -1.8466  -1.8422  -1.3313  -0.8614
    -0.4196  -0.2202   0.0341   0.1970

     occupation numbers 
     1.0000   1.0000   1.0000   1.0000   1.0000   1.0000   1.0000   1.0000
     1.0000   1.0000   1.0000   1.0000   1.0000   1.0000   1.0000   1.0000
     1.0000   1.0000   1.0000   1.0000   1.0000   1.0000   1.0387   0.0740
     0.0499   0.0002   0.0001   0.0000   0.0000   0.0000   0.0000   0.0000
     0.0000   0.0000   0.0000   0.0000

          k = 0.0909-0.1607 0.0000 (128233 PWs)   bands (ev):

   -49.1856 -49.1856 -49.1773 -49.1772 -49.1763 -49.1763 -49.1710 -49.1710
   -48.8791 -48.8695 -48.8670 -48.8654 -48.8651 -48.8648 -48.8630 -48.8562
    -5.7165  -5.1411  -4.1725  -3.2636  -3.2140  -2.7815  -2.4640  -2.4557
    -2.4395  -2.1502  -2.0427  -2.0277  -1.9307  -1.8011  -1.4903  -0.5720
    -0.5712  -0.3877   0.0261   0.1397

     occupation numbers 
     1.0000   1.0000   1.0000   1.0000   1.0000   1.0000   1.0000   1.0000
     1.0000   1.0000   1.0000   1.0000   1.0000   1.0000   1.0000   1.0000
     1.0000   1.0000   1.0000   1.0000   1.0000   1.0039   0.7199   0.6750
     0.5858   0.0006   0.0000   0.0000   0.0000   0.0000   0.0000   0.0000
     0.0000   0.0000   0.0000   0.0000

          k = 0.0909-0.0643 0.0000 (128178 PWs)   bands (ev):

   -49.1861 -49.1861 -49.1768 -49.1768 -49.1768 -49.1767 -49.1706 -49.1705
   -48.8797 -48.8699 -48.8658 -48.8657 -48.8654 -48.8653 -48.8626 -48.8558
    -5.7849  -5.2108  -4.2471  -3.2976  -2.7192  -2.7192  -2.5450  -2.3547
    -2.3546  -2.2406  -1.9807  -1.9806  -1.9663  -1.9663  -1.5579  -0.6553
    -0.4779  -0.2732  -0.0659   0.0490

     occupation numbers 
     1.0000   1.0000   1.0000   1.0000   1.0000   1.0000   1.0000   1.0000
     1.0000   1.0000   1.0000   1.0000   1.0000   1.0000   1.0000   1.0000
     1.0000   1.0000   1.0000   1.0000   1.0189   1.0189   1.0353   0.1889
     0.1889   0.0136   0.0000   0.0000   0.0000   0.0000   0.0000   0.0000
     0.0000   0.0000   0.0000   0.0000

[...]

   -49.2002 -49.2001 -49.1975 -49.1975 -49.1956 -49.1956 -49.1953 -49.1953
   -48.9005 -48.8956 -48.8951 -48.8926 -48.8923 -48.8918 -48.8915 -48.8882
    -4.9833  -4.4045  -4.1217  -3.7750  -3.5254  -3.4301  -3.2187  -2.8889
    -2.5025  -2.3951  -2.3585  -2.2595  -1.5980  -1.4599  -1.3619  -1.1324
    -0.5046  -0.4732  -0.0624   0.2276

     occupation numbers 
     1.0000   1.0000   1.0000   1.0000   1.0000   1.0000   1.0000   1.0000
     1.0000   1.0000   1.0000   1.0000   1.0000   1.0000   1.0000   1.0000
     1.0000   1.0000   1.0000   1.0000   1.0000   1.0000   1.0000   1.0001
     0.9085   0.3569   0.2052   0.0237   0.0000   0.0000   0.0000   0.0000
     0.0000   0.0000   0.0000   0.0000

          k = 0.4545-0.1286 0.0000 (128342 PWs)   bands (ev):

   -49.2010 -49.2010 -49.1986 -49.1986 -49.1946 -49.1946 -49.1944 -49.1944
   -48.9014 -48.8967 -48.8943 -48.8932 -48.8931 -48.8912 -48.8903 -48.8873
    -5.0923  -4.5173  -4.1093  -3.8017  -3.5516  -3.5501  -3.2025  -2.5899
    -2.5297  -2.3469  -2.1697  -1.8659  -1.7393  -1.4792  -1.1568  -0.9958
    -0.8457  -0.4827  -0.0545   0.0919

     occupation numbers 
     1.0000   1.0000   1.0000   1.0000   1.0000   1.0000   1.0000   1.0000
     1.0000   1.0000   1.0000   1.0000   1.0000   1.0000   1.0000   1.0000
     1.0000   1.0000   1.0000   1.0000   1.0000   1.0000   1.0000   1.0827
     1.0012   0.1677   0.0014   0.0000   0.0000   0.0000   0.0000   0.0000
     0.0000   0.0000   0.0000   0.0000

          k = 0.4545-0.0321 0.0000 (128335 PWs)   bands (ev):

   -49.2016 -49.2016 -49.1995 -49.1995 -49.1938 -49.1938 -49.1937 -49.1937
   -48.9019 -48.8981 -48.8939 -48.8935 -48.8931 -48.8911 -48.8891 -48.8867
    -5.1424  -4.5706  -4.3815  -3.8202  -3.6108  -3.4251  -2.8602  -2.8260
    -2.5946  -1.8041  -1.7918  -1.7672  -1.7658  -1.4640  -1.3810  -1.2013
    -0.8267  -0.5964   0.0224   0.2928

     occupation numbers 
     1.0000   1.0000   1.0000   1.0000   1.0000   1.0000   1.0000   1.0000
     1.0000   1.0000   1.0000   1.0000   1.0000   1.0000   1.0000   1.0000
     1.0000   1.0000   1.0000   1.0000   1.0000   1.0000   1.0003   1.0009
     1.0833   0.0000   0.0000   0.0000   0.0000   0.0000   0.0000   0.0000
     0.0000   0.0000   0.0000   0.0000

          k = 0.4545 0.0643 0.0000 (128255 PWs)   bands (ev):

   -49.2019 -49.2019 -49.2001 -49.2001 -49.1935 -49.1935 -49.1930 -49.1930
   -48.9020 -48.8991 -48.8944 -48.8937 -48.8921 -48.8914 -48.8882 -48.8864
    -5.1333  -4.5919  -4.5639  -4.0285  -3.6073  -3.0686  -2.9924  -2.5892
    -2.3993  -2.0380  -1.9922  -1.7921  -1.5869  -1.3855  -1.1653  -1.1421
    -1.0940  -0.2389   0.0194   0.3050

     occupation numbers 
     1.0000   1.0000   1.0000   1.0000   1.0000   1.0000   1.0000   1.0000
     1.0000   1.0000   1.0000   1.0000   1.0000   1.0000   1.0000   1.0000
     1.0000   1.0000   1.0000   1.0000   1.0000   1.0000   1.0000   1.0826
     0.3774   0.0000   0.0000   0.0000   0.0000   0.0000   0.0000   0.0000
     0.0000   0.0000   0.0000   0.0000

     the Fermi energy is    -2.4040 ev

!    total energy              =    -240.56786417 Ry
     total all-electron energy =      -240.567994 Ry
     estimated scf accuracy    <          9.2E-13 Ry

!    total charge of GC-SCF    =      -1.36226972 e
     smearing contrib. (-TS)   =       0.00059328 Ry
     internal energy E=F+TS    =    -240.56845745 Ry

     The total energy is F=E-TS. E is the sum of the following terms:
     one-electron contribution =   -2548.79613617 Ry
     hartree contribution      =    1249.11162388 Ry
     xc contribution           =     -57.72681460 Ry
     ewald contribution        =    1076.39397549 Ry
     one-center paw contrib.   =       1.41030959 Ry
      -> PAW hartree energy AE =       7.45241477 Ry
      -> PAW hartree energy PS =      -7.22998510 Ry
      -> PAW xc energy AE      =      -3.49030896 Ry
      -> PAW xc energy PS      =       3.35600204 Ry
      -> total E_H with PAW    =    1249.33405355 Ry
      -> total E_XC with PAW   =     -57.86112152 Ry
     pot.stat. contrib. (-muN) =       0.24070045 Ry
     electrostatic embedding   =      -0.62126521 Ry
     cavitation energy         =       0.01235683 Ry
     electrolyte free energy   =      -0.00438400 Ry
     correction to one-el term =      39.41117630 Ry

     WARNING: you are using the parabolic pbc correction;
              the potential shift above must be added to 
              band and Fermi energies.

     convergence has been achieved in  12 iterations
     The dielectric solvent contribution to forces
     atom    1 type  1   force =     0.00000000    0.00000001    0.06269495
     atom    2 type  1   force =     0.00000000    0.00000001    0.02196051
     atom    3 type  1   force =    -0.00000002    0.00000005   -0.02196022
     atom    4 type  1   force =    -0.00000000    0.00000003   -0.06269671
     atom    5 type  1   force =     0.00000007    0.00000008    0.06269653
     atom    6 type  1   force =    -0.00000000   -0.00000000    0.02195931
     atom    7 type  1   force =    -0.00000003   -0.00000012   -0.02196131
     atom    8 type  1   force =    -0.00000001   -0.00000003   -0.06269673
     atom    9 type  1   force =    -0.00000008   -0.00000008    0.06269653
     atom   10 type  1   force =    -0.00000000    0.00000001    0.02195983
     atom   11 type  1   force =     0.00000003    0.00000012   -0.02196131
     atom   12 type  1   force =    -0.00000001    0.00000003   -0.06269447
     atom   13 type  1   force =    -0.00000001   -0.00000001    0.06269494
     atom   14 type  1   force =    -0.00000000   -0.00000001    0.02196065
     atom   15 type  1   force =     0.00000002   -0.00000005   -0.02196022
     atom   16 type  1   force =    -0.00000002   -0.00000003   -0.06269781


     Forces acting on atoms (cartesian axes, Ry/au):

     atom    1 type  1   force =    -0.00000003   -0.00000010    0.00011242
     atom    2 type  1   force =     0.00000000    0.00000000   -0.00012637
     atom    3 type  1   force =     0.00000021   -0.00000013    0.00012678
     atom    4 type  1   force =     0.00000000    0.00000000   -0.00011328
     atom    5 type  1   force =    -0.00000018    0.00000005    0.00011268
     atom    6 type  1   force =     0.00000000    0.00000000   -0.00012669
     atom    7 type  1   force =    -0.00000029    0.00000025    0.00012606
     atom    8 type  1   force =     0.00000000    0.00000000   -0.00011210
     atom    9 type  1   force =     0.00000018   -0.00000005    0.00011268
     atom   10 type  1   force =     0.00000000    0.00000000   -0.00012639
     atom   11 type  1   force =     0.00000029   -0.00000025    0.00012606
     atom   12 type  1   force =     0.00000000    0.00000000   -0.00011281
     atom   13 type  1   force =     0.00000003    0.00000010    0.00011242
     atom   14 type  1   force =     0.00000000    0.00000000   -0.00012592
     atom   15 type  1   force =    -0.00000021    0.00000013    0.00012678
     atom   16 type  1   force =     0.00000000    0.00000000   -0.00011230
     The non-local contrib.  to forces
     atom    1 type  1   force =    -0.00000039    0.00000006   -0.03317914
     atom    2 type  1   force =     0.00000000    0.00000000    0.00087027
     atom    3 type  1   force =    -0.00000031    0.00000007   -0.00087009
     atom    4 type  1   force =     0.00000000    0.00000000    0.03317656
     atom    5 type  1   force =    -0.00000018   -0.00000018   -0.03317614
     atom    6 type  1   force =     0.00000000    0.00000000    0.00087033
     atom    7 type  1   force =     0.00000040   -0.00000045   -0.00087079
     atom    8 type  1   force =     0.00000000    0.00000000    0.03317793
     atom    9 type  1   force =     0.00000018    0.00000018   -0.03317614
     atom   10 type  1   force =     0.00000000    0.00000000    0.00087011
     atom   11 type  1   force =    -0.00000040    0.00000045   -0.00087079
     atom   12 type  1   force =     0.00000000    0.00000000    0.03318029
     atom   13 type  1   force =     0.00000039   -0.00000006   -0.03317914
     atom   14 type  1   force =     0.00000000    0.00000000    0.00087128
     atom   15 type  1   force =     0.00000031   -0.00000007   -0.00087009
     atom   16 type  1   force =     0.00000000    0.00000000    0.03317546
     The ionic contribution  to forces
     atom    1 type  1   force =    -0.00000257   -0.00000129   -8.99842429
     atom    2 type  1   force =    -0.00000006   -0.00000006   -3.01411121
     atom    3 type  1   force =     0.00000147   -0.00000144    3.01395161
     atom    4 type  1   force =    -0.00000005   -0.00000011    8.99831416
     atom    5 type  1   force =    -0.00000433   -0.00000154   -8.99829617
     atom    6 type  1   force =     0.00000006    0.00000007   -3.01392176
     atom    7 type  1   force =    -0.00000319    0.00000313    3.01412624
     atom    8 type  1   force =     0.00000004    0.00000012    8.99838513
     atom    9 type  1   force =     0.00000430    0.00000152   -8.99829597
     atom   10 type  1   force =    -0.00000001   -0.00000005   -3.01399086
     atom   11 type  1   force =     0.00000314   -0.00000315    3.01412632
     atom   12 type  1   force =    -0.00000001   -0.00000011    8.99847101
     atom   13 type  1   force =     0.00000255    0.00000128   -8.99842445
     atom   14 type  1   force =     0.00000010    0.00000009   -3.01413101
     atom   15 type  1   force =    -0.00000152    0.00000141    3.01395151
     atom   16 type  1   force =     0.00000007    0.00000013    8.99826974
     The local contribution  to forces
     atom    1 type  1   force =     0.00005853   -0.00000943    8.96901914
     atom    2 type  1   force =     0.00005792   -0.00002188    2.99115250
     atom    3 type  1   force =     0.00005493   -0.00000850   -2.99099393
     atom    4 type  1   force =     0.00005736   -0.00002303   -8.96890651
     atom    5 type  1   force =     0.00005986   -0.00000886    8.96888928
     atom    6 type  1   force =     0.00010288   -0.00001645    2.99096385
     atom    7 type  1   force =     0.00005840   -0.00001200   -2.99116607
     atom    8 type  1   force =     0.00010409   -0.00001409   -8.96897763
     atom    9 type  1   force =     0.00005138   -0.00001220    8.96888565
     atom   10 type  1   force =     0.00005868   -0.00002129    2.99103296
     atom   11 type  1   force =     0.00005338   -0.00000735   -2.99116728
     atom   12 type  1   force =     0.00005812   -0.00002245   -8.96906884
     atom   13 type  1   force =     0.00005271   -0.00001163    8.96902096
     atom   14 type  1   force =     0.00010364   -0.00001586    2.99117159
     atom   15 type  1   force =     0.00005685   -0.00001085   -2.99099211
     atom   16 type  1   force =     0.00010485   -0.00001293   -8.96885890
     The core correction contribution to forces
     atom    1 type  1   force =     0.00000000    0.00000000    0.00000000
     atom    2 type  1   force =     0.00000000    0.00000000    0.00000000
     atom    3 type  1   force =     0.00000000    0.00000000    0.00000000
     atom    4 type  1   force =     0.00000000    0.00000000    0.00000000
     atom    5 type  1   force =     0.00000000    0.00000000    0.00000000
     atom    6 type  1   force =     0.00000000    0.00000000    0.00000000
     atom    7 type  1   force =     0.00000000    0.00000000    0.00000000
     atom    8 type  1   force =     0.00000000    0.00000000    0.00000000
     atom    9 type  1   force =     0.00000000    0.00000000    0.00000000
     atom   10 type  1   force =     0.00000000    0.00000000    0.00000000
     atom   11 type  1   force =     0.00000000    0.00000000    0.00000000
     atom   12 type  1   force =     0.00000000    0.00000000    0.00000000
     atom   13 type  1   force =     0.00000000    0.00000000    0.00000000
     atom   14 type  1   force =     0.00000000    0.00000000    0.00000000
     atom   15 type  1   force =     0.00000000    0.00000000    0.00000000
     atom   16 type  1   force =     0.00000000    0.00000000    0.00000000
     The Hubbard contrib.    to forces
     atom    1 type  1   force =     0.00000000    0.00000000    0.00000000
     atom    2 type  1   force =     0.00000000    0.00000000    0.00000000
     atom    3 type  1   force =     0.00000000    0.00000000    0.00000000
     atom    4 type  1   force =     0.00000000    0.00000000    0.00000000
     atom    5 type  1   force =     0.00000000    0.00000000    0.00000000
     atom    6 type  1   force =     0.00000000    0.00000000    0.00000000
     atom    7 type  1   force =     0.00000000    0.00000000    0.00000000
     atom    8 type  1   force =     0.00000000    0.00000000    0.00000000
     atom    9 type  1   force =     0.00000000    0.00000000    0.00000000
     atom   10 type  1   force =     0.00000000    0.00000000    0.00000000
     atom   11 type  1   force =     0.00000000    0.00000000    0.00000000
     atom   12 type  1   force =     0.00000000    0.00000000    0.00000000
     atom   13 type  1   force =     0.00000000    0.00000000    0.00000000
     atom   14 type  1   force =     0.00000000    0.00000000    0.00000000
     atom   15 type  1   force =     0.00000000    0.00000000    0.00000000
     atom   16 type  1   force =     0.00000000    0.00000000    0.00000000
     The SCF correction term to forces
     atom    1 type  1   force =     0.00000000    0.00000000    0.00000091
     atom    2 type  1   force =     0.00000000    0.00000000    0.00000155
     atom    3 type  1   force =     0.00000000   -0.00000000   -0.00000147
     atom    4 type  1   force =     0.00000000    0.00000000   -0.00000079
     atom    5 type  1   force =     0.00000000    0.00000000    0.00000088
     atom    6 type  1   force =    -0.00000000   -0.00000000    0.00000156
     atom    7 type  1   force =    -0.00000000   -0.00000000   -0.00000147
     atom    8 type  1   force =    -0.00000000   -0.00000000   -0.00000083
     atom    9 type  1   force =    -0.00000000   -0.00000000    0.00000088
     atom   10 type  1   force =    -0.00000000    0.00000000    0.00000155
     atom   11 type  1   force =     0.00000000    0.00000000   -0.00000147
     atom   12 type  1   force =    -0.00000000    0.00000000   -0.00000082
     atom   13 type  1   force =    -0.00000000   -0.00000000    0.00000091
     atom   14 type  1   force =     0.00000000    0.00000000    0.00000156
     atom   15 type  1   force =    -0.00000000    0.00000000   -0.00000147
     atom   16 type  1   force =     0.00000000    0.00000000   -0.00000081

     Total force =     0.000479     Total SCF correction =     0.000005
     Energy error            =      8.2E-06 Ry
     Gradient error          =      1.3E-04 Ry/Bohr

     bfgs converged in  20 scf cycles and  19 bfgs steps
     (criteria: energy <  1.0E-05 Ry, force <  3.9E-04 Ry/Bohr)

     End of BFGS Geometry Optimization

     Final energy             =    -240.5678641710 Ry

     File ./Li/Lithium.bfgs deleted, as requested
Begin final coordinates

ATOMIC_POSITIONS (angstrom)
Li               0.9916331848        1.4024069297       19.9401151504
Li               1.9832882700        2.8047934300       22.3459975061
Li               0.9916432348        1.4023887489       24.7839286437
Li               1.9832882800        2.8047934500       27.1898290318
Li               0.0000127753        4.2072038830       19.9401762499
Li               0.9916443500        5.6095863900       22.3460752768
Li               0.0000031707        4.2071682679       24.7840026703
Li               0.9916443300        5.6095863500       27.1898568408
Li               3.9665638447        1.4023825870       19.9401763099
Li               4.9582206700        2.8047934200       22.3460469914
Li               3.9665734393        1.4024181721       24.7840026903
Li               4.9582206800        2.8047934400       27.1899035667
Li               2.9749434352        4.2071795403       19.9401151204
Li               3.9665767500        5.6095863800       22.3459876405
Li               2.9749333752        4.2071976911       24.7839286137
Li               3.9665767300        5.6095863300       27.1898017542
End final coordinates



     Writing all to output data dir ./Li/Lithium.save/ :
     XML data file
     init_run     :     10.55s CPU     17.81s WALL (       1 calls)
     electrons    :   4948.01s CPU   6230.76s WALL (      20 calls)
     update_pot   :      0.95s CPU      1.18s WALL (      19 calls)
     forces       :     37.42s CPU     39.56s WALL (      20 calls)

     Called by init_run:
     wfcinit      :      1.80s CPU      2.39s WALL (       1 calls)
     wfcinit:wfcr :      1.72s CPU      2.31s WALL (      61 calls)
     potinit      :      0.64s CPU      0.69s WALL (       1 calls)
     hinit0       :      1.10s CPU      1.21s WALL (       1 calls)

     Called by electrons:
     c_bands      :   4014.98s CPU   5055.61s WALL (     406 calls)
     sum_band     :    326.62s CPU    453.58s WALL (     406 calls)
     v_of_rho     :     14.44s CPU     17.21s WALL (     407 calls)
     v_h          :      1.42s CPU      1.66s WALL (     407 calls)
     v_xc         :     13.01s CPU     15.54s WALL (     407 calls)
     newd         :      9.72s CPU     10.15s WALL (     407 calls)
     PAW_pot      :      3.00s CPU      3.92s WALL (     426 calls)
     mix_rho      :     44.35s CPU     68.42s WALL (     406 calls)

     Called by c_bands:
     init_us_2    :     17.67s CPU     20.31s WALL (   51972 calls)
     cegterg      :   3975.05s CPU   5006.85s WALL (   25123 calls)

     Called by sum_band:
     sum_band:wei :      0.94s CPU      0.99s WALL (     406 calls)
     sum_band:loo :    313.22s CPU    438.69s WALL (     406 calls)
     sum_band:buf :      2.56s CPU      3.29s WALL (   24766 calls)
     sum_band:ini :      6.63s CPU      8.16s WALL (   24766 calls)
     sum_band:cal :     32.60s CPU     42.19s WALL (   25925 calls)
     sum_band:bec :      0.91s CPU      1.17s WALL (   25925 calls)
     addusdens    :      9.48s CPU      9.64s WALL (     406 calls)
                                        0.00s GPU  (     406 calls)
     addusd:skk   :      1.31s CPU      1.35s WALL (     406 calls)
                                        0.00s GPU  (     406 calls)

     Called by *egterg:
     cdiaghg      :    859.31s CPU    914.91s WALL (  242809 calls)
     cegterg:over :    209.72s CPU    236.25s WALL (  220270 calls)
     cegterg:upda :    177.57s CPU    185.84s WALL (  220270 calls)
     cegterg:last :     54.48s CPU     55.68s WALL (   33687 calls)
     h_psi        :   2489.03s CPU   3408.05s WALL (  245454 calls)
     s_psi        :    119.26s CPU    135.64s WALL (  245454 calls)
     g_psi        :      3.73s CPU      3.97s WALL (  220270 calls)

     Called by h_psi:
     h_psi:calbec :    202.61s CPU    262.94s WALL (  245454 calls)
     vloc_psi     :   2147.13s CPU   2978.51s WALL (  245454 calls)
                                        0.00s GPU  (  245454 calls)
     add_vuspsi   :    126.76s CPU    153.09s WALL (  245454 calls)

     General routines
     calbec       :    240.03s CPU    310.33s WALL (  276259 calls)
     fft          :     12.67s CPU     16.03s WALL (    5329 calls)
     ffts         :     35.46s CPU     55.49s WALL (   45954 calls)
     fftw         :   2320.52s CPU   3233.33s WALL ( 7756228 calls)
     interpolate  :      1.96s CPU      2.34s WALL (     407 calls)

     Parallel routines

     PAW routines
     PAW_pot      :      3.00s CPU      3.92s WALL (     426 calls)
     PAW_symme    :      0.16s CPU      0.20s WALL (     832 calls)

     Environ routines

     PWSCF        :      1h23m CPU      1h45m WALL


   This run was terminated on:  22:51:46   2Jan2025            

=------------------------------------------------------------------------------=
   JOB DONE.
=------------------------------------------------------------------------------=
