
     Program PWSCF v.7.4 starts on  6Jan2025 at 12:38:18 
        Git branch: develop
        Last git commit: e877ff360aceba4b8d76ffc2fb1c70545fc5dd57
        Last git commit date: Sat Jan 4 12:56:15 2025 +0000
        Last git commit subject: Merge branch 'orthoU' into 'develop'

     This program is part of the open-source Quantum ESPRESSO suite
     for quantum simulation of materials; please cite
         "P. Giannozzi et al., J. Phys.:Condens. Matter 21 395502 (2009);
         "P. Giannozzi et al., J. Phys.:Condens. Matter 29 465901 (2017);
         "P. Giannozzi et al., J. Chem. Phys. 152 154105 (2020);
          URL http://www.quantum-espresso.org", 
     in publications or presentations arising from this work. More details at
     http://www.quantum-espresso.org/quote

     Parallel version (MPI), running on   360 processors

     MPI processes distributed on     9 nodes
     176525 MiB available memory on the printing compute node when the environment starts
 
     Reading input from espresso.pwi
Warning: card &CELL ignored
Warning: card    PRESS_CONV_THR   = 0.1 ignored
Warning: card    CELL_DOFREE      = 'ALL' ignored
Warning: card / ignored
Warning: card &FCP ignored
Warning: card / ignored
Warning: card &RISM ignored
Warning: card / ignored

     Current dimensions of program PWSCF are:
     Max number of different atomic species (ntypx) = 10
     Max number of k-points (npk) =  40000
     Max angular momentum in pseudopotentials (lmaxx) =  4

     IMPORTANT: XC functional enforced from input :
     Exchange-correlation= PBE
                           (   1   4   3   4   0   0   0)
     Any further DFT definition will be discarded
     Please, verify this is what you really want

 
     Reading input from environ.in:
     * using ionic solvent mode
     * setting boundary derivatives method to SSCS default
     * setting electrolyte-boundary derivatives method to SSCS default

Environ Warning (1001): card EOF ignored

     
 
     K-points division:     npool     =       2
     R & G space division:  proc/nbgrp/npool/nimage =     180
     Subspace diagonalization in iterative solution of the eigenvalue problem:
     a serial algorithm will be used

 
     Parallelization info
     --------------------
     sticks:   dense  smooth     PW     G-vecs:    dense   smooth      PW
     Min          42      16      4                22522     5644     786
     Max          43      17      5                22559     5733     865
     Sum        7593    3025    841              4056641  1025567  148303
 
     Using Slab Decomposition
 


     bravais-lattice index     =           14
     lattice parameter (alat)  =      11.2436  a.u.
     unit-cell volume          =   10615.2838 (a.u.)^3
     number of atoms/cell      =           16
     number of atomic types    =            1
     number of electrons       =        48.00
     number of Kohn-Sham states=           36
     kinetic-energy cutoff     =      80.0000  Ry
     charge density cutoff     =     800.0000  Ry
     scf convergence threshold =      1.0E-06
     mixing beta               =       0.2000
     number of iterations used =            8  local-TF  mixing
     energy convergence thresh.=      1.0E-05
     force convergence thresh. =      3.9E-04
     Exchange-correlation= PBE
                           (   1   4   3   4   0   0   0)
     nstep                     =          999


     ================================================================================
 
                                  Environ Setup Summary

     ================================================================================
 
     Please cite

          O. Andreussi, I. Dabo and N. Marzari, J. Chem. Phys. 136, 064102 (2012)
          F. Nattino, M. Truscott, N. Marzari, and O. Andreussi, J. Chem. Phys. 150, 041722 (2019)

     in publications or presentations arising from this work.

     ================================================================================
 
     Parameters
     ==========

     compensation onset threshold      =               0.1000E+00
     static permittivity               =                    89.90
     surface tension in input (dyn/cm) =                    37.30
     surface tension in internal units =               0.4792E-04

     Solvent Boundary
     ================

     solvent mode                      =                    ionic
     derivatives method                =                   lowmem
     electrolyte derivatives method    =                   lowmem
     numerical core for derivatives    =                      fft
     switching function adopted        =                     SCCS
     density limit for vacuum region   =               0.5000E-02
     density limit for bulk solvent    =               0.1000E-03
     soft-sphere radius mode           =                    bondi
     soft-sphere softness              =                     0.50
     alpha                             =                     1.32

     Electrostatic Setup
     ===================

     electrostatic problem to solve    =                    modpb
     numerical solver adopted          =                   newton
     type of auxiliary density adopted =                     none
     numerical core for poisson        =                      fft
     adopting a nested solver scheme
     inner solver                      =                       cg
     inner core                        =                      fft
     type of pbc corrections           =                parabolic
     numerical core for corrections    =                      1da

     ================================================================================
 

     >>>>> Grand-Canonical SCF is activated <<<<<
     Initial Total Charge  =     0.000000 e
     Target Fermi Energy   =    -4.404000 eV
     Thr. of Fermi Energy  =     0.001000 eV
     Wave-shift of Kerker  =     0.400000 bohr^-1
     Wave-shift of Hartree =     1.500000 bohr^-1
     Mixing Rate of Fermi  =     0.050000

     celldm(1)=  11.243615  celldm(2)=   1.000000  celldm(3)=   7.921182
     celldm(4)=   0.000000  celldm(5)=   0.000000  celldm(6)=  -0.333333

     crystal axes: (cart. coord. in units of alat)
               a(1) = (   1.000000   0.000000   0.000000 )  
               a(2) = (  -0.333333   0.942809   0.000000 )  
               a(3) = (   0.000000   0.000000   7.921182 )  

     reciprocal axes: (cart. coord. in units 2 pi/alat)
               b(1) = (  1.000000  0.353553  0.000000 )  
               b(2) = (  0.000000  1.060660  0.000000 )  
               b(3) = (  0.000000  0.000000  0.126244 )  


     PseudoPot. # 1 for Li read from file:
     /home/mmm1182/Repos/Pseudopotentials/pslibrary/Li.pbe-sl-kjpaw_psl.1.0.0.UPF
     MD5 check sum: f40bb4162937df3f7c561f1969c76545
     Pseudo is Projector augmented-wave, Zval =  3.0
     Generated using 'atomic' code by A. Dal Corso  v.7.3.1
     Shape of augmentation charge: PSQ
     Using radial grid of 1017 points,  4 beta functions with: 
                l(1) =   0
                l(2) =   0
                l(3) =   1
                l(4) =   1
     Q(r) pseudized with 0 coefficients 


     atomic species   valence    mass     pseudopotential
     Li                3.00     6.94000     Li( 1.00)

      2 Sym. Ops. (no inversion) found


                                    s                        frac. trans.

      isym =  1     identity                                     

 cryst.   s( 1) = (     1          0          0      )
                  (     0          1          0      )
                  (     0          0          1      )

 cart.    s( 1) = (  1.0000000 -0.0000000  0.0000000 )
                  (  0.0000000  1.0000000  0.0000000 )
                  (  0.0000000  0.0000000  1.0000000 )


      isym =  2     180 deg rotation - cart. axis [0,0,1]        

 cryst.   s( 2) = (    -1          0          0      )
                  (     0         -1          0      )
                  (     0          0          1      )

 cart.    s( 2) = ( -1.0000000  0.0000000  0.0000000 )
                  (  0.0000000 -1.0000000  0.0000000 )
                  (  0.0000000  0.0000000  1.0000000 )


     point group C_2  (2)   
     there are  2 classes
     the character table:

       E     C2   
A      1.00  1.00
B      1.00 -1.00

     the symmetry operations in each class and the name of the first element:

     E        1
          identity                                               
     C2       2
          180 deg rotation - cart. axis [0,0,1]                  

   Cartesian axes

     site n.     atom                  positions (alat units)
         1        Li     tau(   1) = (   0.1666613   0.2357035   3.3631858  )
         2        Li     tau(   2) = (   0.3333333   0.4714046   3.7544710  )
         3        Li     tau(   3) = (   0.1666694   0.2356973   4.1667070  )
         4        Li     tau(   4) = (   0.3333333   0.4714046   4.5579745  )
         5        Li     tau(   5) = (   0.0000047   0.7071098   3.3632112  )
         6        Li     tau(   6) = (   0.1666667   0.9428090   3.7544879  )
         7        Li     tau(   7) = (  -0.0000025   0.7071025   4.1667157  )
         8        Li     tau(   8) = (   0.1666667   0.9428090   4.5579921  )
         9        Li     tau(   9) = (   0.6666620   0.2356992   3.3632112  )
        10        Li     tau(  10) = (   0.8333333   0.4714046   3.7544828  )
        11        Li     tau(  11) = (   0.6666692   0.2357065   4.1667157  )
        12        Li     tau(  12) = (   0.8333333   0.4714046   4.5579940  )
        13        Li     tau(  13) = (   0.5000054   0.7071055   3.3631858  )
        14        Li     tau(  14) = (   0.6666667   0.9428090   3.7544707  )
        15        Li     tau(  15) = (   0.4999973   0.7071118   4.1667070  )
        16        Li     tau(  16) = (   0.6666667   0.9428090   4.5579851  )

   Crystallographic axes

     site n.     atom                  positions (cryst. coord.)
         1        Li     tau(   1) = (  0.2499950  0.2500013  0.4245813  )
         2        Li     tau(   2) = (  0.4999999  0.5000001  0.4739786  )
         3        Li     tau(   3) = (  0.2500009  0.2499947  0.5260209  )
         4        Li     tau(   4) = (  0.4999999  0.5000001  0.5754160  )
         5        Li     tau(   5) = (  0.2500055  0.7500033  0.4245845  )
         6        Li     tau(   6) = (  0.4999997  1.0000001  0.4739808  )
         7        Li     tau(   7) = (  0.2499957  0.7499955  0.5260220  )
         8        Li     tau(   8) = (  0.4999997  1.0000000  0.5754182  )
         9        Li     tau(   9) = (  0.7499942  0.2499968  0.4245845  )
        10        Li     tau(  10) = (  0.9999999  0.5000001  0.4739801  )
        11        Li     tau(  11) = (  0.7500040  0.2500045  0.5260220  )
        12        Li     tau(  12) = (  0.9999999  0.5000001  0.5754184  )
        13        Li     tau(  13) = (  0.7500047  0.7499987  0.4245813  )
        14        Li     tau(  14) = (  0.9999997  1.0000000  0.4739786  )
        15        Li     tau(  15) = (  0.7499988  0.7500054  0.5260209  )
        16        Li     tau(  16) = (  0.9999997  1.0000000  0.5754173  )

     number of k points=    61  Marzari-Vanderbilt smearing, width (Ry)=  0.0100
                       cart. coord. in units 2pi/alat
        k(    1) = (   0.0000000   0.0000000   0.0000000), wk =   0.0165289
        k(    2) = (   0.0000000   0.0964237   0.0000000), wk =   0.0330579
        k(    3) = (   0.0000000   0.1928473   0.0000000), wk =   0.0330579
        k(    4) = (   0.0000000   0.2892710   0.0000000), wk =   0.0330579
        k(    5) = (   0.0000000   0.3856946   0.0000000), wk =   0.0330579
        k(    6) = (   0.0000000   0.4821183   0.0000000), wk =   0.0330579
        k(    7) = (   0.0909091   0.0321412   0.0000000), wk =   0.0330579
        k(    8) = (   0.0909091   0.1285648   0.0000000), wk =   0.0330579
        k(    9) = (   0.0909091   0.2249885   0.0000000), wk =   0.0330579
        k(   10) = (   0.0909091   0.3214122   0.0000000), wk =   0.0330579
        k(   11) = (   0.0909091   0.4178358   0.0000000), wk =   0.0330579
        k(   12) = (   0.0909091   0.5142595   0.0000000), wk =   0.0330579
        k(   13) = (   0.0909091  -0.4499771   0.0000000), wk =   0.0330579
        k(   14) = (   0.0909091  -0.3535534   0.0000000), wk =   0.0330579
        k(   15) = (   0.0909091  -0.2571298   0.0000000), wk =   0.0330579
        k(   16) = (   0.0909091  -0.1607061   0.0000000), wk =   0.0330579
        k(   17) = (   0.0909091  -0.0642825   0.0000000), wk =   0.0330579
        k(   18) = (   0.1818182   0.0642824   0.0000000), wk =   0.0330579
        k(   19) = (   0.1818182   0.1607060   0.0000000), wk =   0.0330579
        k(   20) = (   0.1818182   0.2571297   0.0000000), wk =   0.0330579
        k(   21) = (   0.1818182   0.3535533   0.0000000), wk =   0.0330579
        k(   22) = (   0.1818182   0.4499770   0.0000000), wk =   0.0330579
        k(   23) = (   0.1818182   0.5464007   0.0000000), wk =   0.0330579
        k(   24) = (   0.1818182  -0.4178359   0.0000000), wk =   0.0330579
        k(   25) = (   0.1818182  -0.3214123   0.0000000), wk =   0.0330579
        k(   26) = (   0.1818182  -0.2249886   0.0000000), wk =   0.0330579
        k(   27) = (   0.1818182  -0.1285649   0.0000000), wk =   0.0330579
        k(   28) = (   0.1818182  -0.0321413   0.0000000), wk =   0.0330579
        k(   29) = (   0.2727273   0.0964236   0.0000000), wk =   0.0330579
        k(   30) = (   0.2727273   0.1928472   0.0000000), wk =   0.0330579
        k(   31) = (   0.2727273   0.2892709   0.0000000), wk =   0.0330579
        k(   32) = (   0.2727273   0.3856945   0.0000000), wk =   0.0330579
        k(   33) = (   0.2727273   0.4821182   0.0000000), wk =   0.0330579
        k(   34) = (   0.2727273   0.5785418   0.0000000), wk =   0.0330579
        k(   35) = (   0.2727273  -0.3856947   0.0000000), wk =   0.0330579
        k(   36) = (   0.2727273  -0.2892711   0.0000000), wk =   0.0330579
        k(   37) = (   0.2727273  -0.1928474   0.0000000), wk =   0.0330579
        k(   38) = (   0.2727273  -0.0964238   0.0000000), wk =   0.0330579
        k(   39) = (   0.2727273  -0.0000001   0.0000000), wk =   0.0330579
        k(   40) = (   0.3636364   0.1285647   0.0000000), wk =   0.0330579
        k(   41) = (   0.3636364   0.2249884   0.0000000), wk =   0.0330579
        k(   42) = (   0.3636364   0.3214121   0.0000000), wk =   0.0330579
        k(   43) = (   0.3636364   0.4178357   0.0000000), wk =   0.0330579
        k(   44) = (   0.3636364   0.5142594   0.0000000), wk =   0.0330579
        k(   45) = (   0.3636364   0.6106830   0.0000000), wk =   0.0330579
        k(   46) = (   0.3636364  -0.3535535   0.0000000), wk =   0.0330579
        k(   47) = (   0.3636364  -0.2571299   0.0000000), wk =   0.0330579
        k(   48) = (   0.3636364  -0.1607062   0.0000000), wk =   0.0330579
        k(   49) = (   0.3636364  -0.0642826   0.0000000), wk =   0.0330579
        k(   50) = (   0.3636364   0.0321411   0.0000000), wk =   0.0330579
        k(   51) = (   0.4545455   0.1607059   0.0000000), wk =   0.0330579
        k(   52) = (   0.4545455   0.2571296   0.0000000), wk =   0.0330579
        k(   53) = (   0.4545455   0.3535532   0.0000000), wk =   0.0330579
        k(   54) = (   0.4545455   0.4499769   0.0000000), wk =   0.0330579
        k(   55) = (   0.4545455   0.5464006   0.0000000), wk =   0.0330579
        k(   56) = (   0.4545455   0.6428242   0.0000000), wk =   0.0330579
        k(   57) = (   0.4545455  -0.3214123   0.0000000), wk =   0.0330579
        k(   58) = (   0.4545455  -0.2249887   0.0000000), wk =   0.0330579
        k(   59) = (   0.4545455  -0.1285650   0.0000000), wk =   0.0330579
        k(   60) = (   0.4545455  -0.0321414   0.0000000), wk =   0.0330579
        k(   61) = (   0.4545455   0.0642823   0.0000000), wk =   0.0330579

                       cryst. coord.
        k(    1) = (   0.0000000   0.0000000   0.0000000), wk =   0.0165289
        k(    2) = (   0.0000000   0.0909091   0.0000000), wk =   0.0330579
        k(    3) = (   0.0000000   0.1818182   0.0000000), wk =   0.0330579
        k(    4) = (   0.0000000   0.2727273   0.0000000), wk =   0.0330579
        k(    5) = (   0.0000000   0.3636364   0.0000000), wk =   0.0330579
        k(    6) = (   0.0000000   0.4545455   0.0000000), wk =   0.0330579
        k(    7) = (   0.0909091  -0.0000000   0.0000000), wk =   0.0330579
        k(    8) = (   0.0909091   0.0909091   0.0000000), wk =   0.0330579
        k(    9) = (   0.0909091   0.1818182   0.0000000), wk =   0.0330579
        k(   10) = (   0.0909091   0.2727273   0.0000000), wk =   0.0330579
        k(   11) = (   0.0909091   0.3636364   0.0000000), wk =   0.0330579
        k(   12) = (   0.0909091   0.4545455   0.0000000), wk =   0.0330579
        k(   13) = (   0.0909091  -0.4545455   0.0000000), wk =   0.0330579
        k(   14) = (   0.0909091  -0.3636364   0.0000000), wk =   0.0330579
        k(   15) = (   0.0909091  -0.2727273   0.0000000), wk =   0.0330579
        k(   16) = (   0.0909091  -0.1818182   0.0000000), wk =   0.0330579
        k(   17) = (   0.0909091  -0.0909091   0.0000000), wk =   0.0330579
        k(   18) = (   0.1818182  -0.0000000   0.0000000), wk =   0.0330579
        k(   19) = (   0.1818182   0.0909091   0.0000000), wk =   0.0330579
        k(   20) = (   0.1818182   0.1818182   0.0000000), wk =   0.0330579
        k(   21) = (   0.1818182   0.2727273   0.0000000), wk =   0.0330579
        k(   22) = (   0.1818182   0.3636364   0.0000000), wk =   0.0330579
        k(   23) = (   0.1818182   0.4545455   0.0000000), wk =   0.0330579
        k(   24) = (   0.1818182  -0.4545455   0.0000000), wk =   0.0330579
        k(   25) = (   0.1818182  -0.3636364   0.0000000), wk =   0.0330579
        k(   26) = (   0.1818182  -0.2727273   0.0000000), wk =   0.0330579
        k(   27) = (   0.1818182  -0.1818182   0.0000000), wk =   0.0330579
        k(   28) = (   0.1818182  -0.0909091   0.0000000), wk =   0.0330579
        k(   29) = (   0.2727273  -0.0000000   0.0000000), wk =   0.0330579
        k(   30) = (   0.2727273   0.0909091   0.0000000), wk =   0.0330579
        k(   31) = (   0.2727273   0.1818182   0.0000000), wk =   0.0330579
        k(   32) = (   0.2727273   0.2727273   0.0000000), wk =   0.0330579
        k(   33) = (   0.2727273   0.3636364   0.0000000), wk =   0.0330579
        k(   34) = (   0.2727273   0.4545455   0.0000000), wk =   0.0330579
        k(   35) = (   0.2727273  -0.4545455   0.0000000), wk =   0.0330579
        k(   36) = (   0.2727273  -0.3636364   0.0000000), wk =   0.0330579
        k(   37) = (   0.2727273  -0.2727273   0.0000000), wk =   0.0330579
        k(   38) = (   0.2727273  -0.1818182   0.0000000), wk =   0.0330579
        k(   39) = (   0.2727273  -0.0909091   0.0000000), wk =   0.0330579
        k(   40) = (   0.3636364  -0.0000000   0.0000000), wk =   0.0330579
        k(   41) = (   0.3636364   0.0909091   0.0000000), wk =   0.0330579
        k(   42) = (   0.3636364   0.1818182   0.0000000), wk =   0.0330579
        k(   43) = (   0.3636364   0.2727273   0.0000000), wk =   0.0330579
        k(   44) = (   0.3636364   0.3636364   0.0000000), wk =   0.0330579
        k(   45) = (   0.3636364   0.4545455   0.0000000), wk =   0.0330579
        k(   46) = (   0.3636364  -0.4545455   0.0000000), wk =   0.0330579
        k(   47) = (   0.3636364  -0.3636364   0.0000000), wk =   0.0330579
        k(   48) = (   0.3636364  -0.2727273   0.0000000), wk =   0.0330579
        k(   49) = (   0.3636364  -0.1818182   0.0000000), wk =   0.0330579
        k(   50) = (   0.3636364  -0.0909091   0.0000000), wk =   0.0330579
        k(   51) = (   0.4545455  -0.0000000   0.0000000), wk =   0.0330579
        k(   52) = (   0.4545455   0.0909091   0.0000000), wk =   0.0330579
        k(   53) = (   0.4545455   0.1818182   0.0000000), wk =   0.0330579
        k(   54) = (   0.4545455   0.2727273   0.0000000), wk =   0.0330579
        k(   55) = (   0.4545455   0.3636364   0.0000000), wk =   0.0330579
        k(   56) = (   0.4545455   0.4545455   0.0000000), wk =   0.0330579
        k(   57) = (   0.4545455  -0.4545455   0.0000000), wk =   0.0330579
        k(   58) = (   0.4545455  -0.3636364   0.0000000), wk =   0.0330579
        k(   59) = (   0.4545455  -0.2727273   0.0000000), wk =   0.0330579
        k(   60) = (   0.4545455  -0.1818182   0.0000000), wk =   0.0330579
        k(   61) = (   0.4545455  -0.0909091   0.0000000), wk =   0.0330579

     Dense  grid:  4056641 G-vectors     FFT dimensions: ( 108, 108, 810)

     Smooth grid:  1025567 G-vectors     FFT dimensions: (  72,  72, 512)

     Dynamical RAM for                 wfc:       0.39 MB

     Dynamical RAM for     wfc (w. buffer):      12.52 MB

     Dynamical RAM for           str. fact:       0.34 MB

     Dynamical RAM for           local pot:       0.00 MB

     Dynamical RAM for          nlocal pot:       1.39 MB

     Dynamical RAM for                qrad:       0.65 MB

     Dynamical RAM for          rho,v,vnew:       2.37 MB

     Dynamical RAM for               rhoin:       0.79 MB

     Dynamical RAM for            rho*nmix:       5.50 MB

     Dynamical RAM for           G-vectors:       1.33 MB

     Dynamical RAM for          h,s,v(r/c):       0.95 MB

     Dynamical RAM for          <psi|beta>:       0.07 MB

     Dynamical RAM for                 psi:       1.56 MB

     Dynamical RAM for                hpsi:       1.56 MB

     Dynamical RAM for                spsi:       1.56 MB

     Dynamical RAM for      wfcinit/wfcrot:       0.81 MB

     Dynamical RAM for           addusdens:      10.31 MB

     Dynamical RAM for          addusforce:      15.48 MB

     Estimated static dynamical RAM per process >      22.30 MB

     Estimated max dynamical RAM per process >      61.90 MB

     Estimated total dynamical RAM >      14.25 GB

     Initial potential from superposition of free atoms

     starting charge      47.9263, renormalised to      48.0000

     negative rho (up, down):  1.955E-03 0.000E+00
     Starting wfcs are random
     Checking if some PAW data can be deallocated... 

     total cpu time spent up to now is        5.3 secs

     per-process dynamical memory:   113.3 Mb

     Self-consistent Calculation

     iteration #  1     ecut=    80.00 Ry     beta= 0.20
     Davidson diagonalization with overlap

---- Real-time Memory Report at c_bands before calling an iterative solver
           252 MiB given to the printing process from OS
           110 MiB allocation reported by mallinfo(arena+hblkhd)
        172751 MiB available memory on the node where the printing process lives
------------------
     c_bands:  1 eigenvalues not converged
     c_bands:  1 eigenvalues not converged
     c_bands:  2 eigenvalues not converged
     c_bands:  1 eigenvalues not converged
     c_bands:  1 eigenvalues not converged
     ethr =  1.00E-12,  avg # of iterations = 96.3

     negative rho (up, down):  1.471E-03 0.000E+00

     add environment contribution to local potential

     total cpu time spent up to now is       69.1 secs

     total energy              =    -240.60433403 Ry
     estimated scf accuracy    <       0.06411904 Ry

     total charge of GC-SCF    =       0.03267672 e
     the Fermi energy          =      -4.77010319 eV
                        (error :       0.36610319 eV)
     electrostatic embedding   =       0.00000000 Ry
     cavitation energy         =       0.01235683 Ry
     electrolyte free energy   =       0.00456895 Ry
     correction to one-el term =       0.00000000 Ry

     iteration #  2     ecut=    80.00 Ry     beta= 0.20
     Davidson diagonalization with overlap

---- Real-time Memory Report at c_bands before calling an iterative solver
           252 MiB given to the printing process from OS
           122 MiB allocation reported by mallinfo(arena+hblkhd)
        172517 MiB available memory on the node where the printing process lives
------------------
     ethr =  1.00E-05,  avg # of iterations = 10.0

     negative rho (up, down):  1.087E-03 0.000E+00

     add environment contribution to local potential

     total cpu time spent up to now is       77.8 secs

     total energy              =    -240.55261841 Ry
     estimated scf accuracy    <       0.02313244 Ry

     total charge of GC-SCF    =       0.08132507 e
     the Fermi energy          =      -4.07335313 eV
                        (error :       0.33064687 eV)
     electrostatic embedding   =      -0.01826955 Ry
     cavitation energy         =       0.01235683 Ry
     electrolyte free energy   =      -0.00219185 Ry
     correction to one-el term =      -1.00465017 Ry

     iteration #  3     ecut=    80.00 Ry     beta= 0.20
     Davidson diagonalization with overlap

---- Real-time Memory Report at c_bands before calling an iterative solver
           252 MiB given to the printing process from OS
           122 MiB allocation reported by mallinfo(arena+hblkhd)
        172515 MiB available memory on the node where the printing process lives
------------------
     ethr =  1.00E-05,  avg # of iterations = 10.1

     negative rho (up, down):  8.395E-04 0.000E+00

     add environment contribution to local potential

     total cpu time spent up to now is       87.2 secs

     total energy              =    -240.57459066 Ry
     estimated scf accuracy    <       0.00912988 Ry

     total charge of GC-SCF    =       0.17057929 e
     the Fermi energy          =      -3.52168223 eV
                        (error :       0.88231777 eV)
     electrostatic embedding   =      -0.01747508 Ry
     cavitation energy         =       0.01235683 Ry
     electrolyte free energy   =      -0.00206841 Ry
     correction to one-el term =      -2.80479664 Ry

     iteration #  4     ecut=    80.00 Ry     beta= 0.20
     Davidson diagonalization with overlap

---- Real-time Memory Report at c_bands before calling an iterative solver
           252 MiB given to the printing process from OS
           122 MiB allocation reported by mallinfo(arena+hblkhd)
        172516 MiB available memory on the node where the printing process lives
------------------
     ethr =  1.00E-05,  avg # of iterations =  7.1

     negative rho (up, down):  6.789E-04 0.000E+00

     add environment contribution to local potential

     total cpu time spent up to now is       95.3 secs

     total energy              =    -240.58423315 Ry
     estimated scf accuracy    <       0.00438526 Ry

     total charge of GC-SCF    =       0.25524316 e
     the Fermi energy          =      -3.50319516 eV
                        (error :       0.90080484 eV)
     electrostatic embedding   =      -0.02041892 Ry
     cavitation energy         =       0.01235683 Ry
     electrolyte free energy   =      -0.00215734 Ry
     correction to one-el term =      -5.28311612 Ry

     iteration #  5     ecut=    80.00 Ry     beta= 0.20
     Davidson diagonalization with overlap

---- Real-time Memory Report at c_bands before calling an iterative solver
           252 MiB given to the printing process from OS
           122 MiB allocation reported by mallinfo(arena+hblkhd)
        172516 MiB available memory on the node where the printing process lives
------------------
     ethr =  9.18E-06,  avg # of iterations =  8.1

     negative rho (up, down):  5.624E-04 0.000E+00

     add environment contribution to local potential

     total cpu time spent up to now is      104.0 secs

     total energy              =    -240.55588138 Ry
     estimated scf accuracy    <       0.00155732 Ry

     total charge of GC-SCF    =       0.63927263 e
     the Fermi energy          =      -3.28862859 eV
                        (error :       1.11537141 eV)
     electrostatic embedding   =      -0.02923477 Ry
     cavitation energy         =       0.01235683 Ry
     electrolyte free energy   =      -0.00209647 Ry
     correction to one-el term =      -7.82037839 Ry

     iteration #  6     ecut=    80.00 Ry     beta= 0.20
     Davidson diagonalization with overlap

---- Real-time Memory Report at c_bands before calling an iterative solver
           252 MiB given to the printing process from OS
           122 MiB allocation reported by mallinfo(arena+hblkhd)
        172505 MiB available memory on the node where the printing process lives
------------------
     ethr =  3.29E-06,  avg # of iterations = 18.5

     negative rho (up, down):  4.823E-04 0.000E+00

     add environment contribution to local potential

     total cpu time spent up to now is      117.5 secs

     total energy              =    -240.67438687 Ry
     estimated scf accuracy    <       0.00096282 Ry

     total charge of GC-SCF    =       0.62750827 e
     the Fermi energy          =      -3.07098636 eV
                        (error :       1.33301364 eV)
     electrostatic embedding   =      -0.12957423 Ry
     cavitation energy         =       0.01235683 Ry
     electrolyte free energy   =      -0.00265996 Ry
     correction to one-el term =     -18.77348829 Ry

     iteration #  7     ecut=    80.00 Ry     beta= 0.20
     Davidson diagonalization with overlap

---- Real-time Memory Report at c_bands before calling an iterative solver
           252 MiB given to the printing process from OS
           122 MiB allocation reported by mallinfo(arena+hblkhd)
        172506 MiB available memory on the node where the printing process lives
------------------
     ethr =  2.03E-06,  avg # of iterations =  1.5

     negative rho (up, down):  4.257E-04 0.000E+00

     add environment contribution to local potential

     total cpu time spent up to now is      122.8 secs

     total energy              =    -240.63094123 Ry
     estimated scf accuracy    <       0.00100523 Ry

     total charge of GC-SCF    =       0.76134788 e
     the Fermi energy          =      -3.06253738 eV
                        (error :       1.34146262 eV)
     electrostatic embedding   =      -0.12516326 Ry
     cavitation energy         =       0.01235683 Ry
     electrolyte free energy   =      -0.00260295 Ry
     correction to one-el term =     -18.44902215 Ry

     iteration #  8     ecut=    80.00 Ry     beta= 0.20
     Davidson diagonalization with overlap

---- Real-time Memory Report at c_bands before calling an iterative solver
           252 MiB given to the printing process from OS
           122 MiB allocation reported by mallinfo(arena+hblkhd)
        172507 MiB available memory on the node where the printing process lives
------------------
     ethr =  2.03E-06,  avg # of iterations =  8.9

     negative rho (up, down):  4.598E-03 0.000E+00

     add environment contribution to local potential

     total cpu time spent up to now is      131.7 secs

     total energy              =    -240.62903411 Ry
     estimated scf accuracy    <       0.00074484 Ry

     total charge of GC-SCF    =       0.92564323 e
     the Fermi energy          =      -3.14243690 eV
                        (error :       1.26156310 eV)
     electrostatic embedding   =      -0.18064173 Ry
     cavitation energy         =       0.01235683 Ry
     electrolyte free energy   =      -0.00327865 Ry
     correction to one-el term =     -22.14551350 Ry

     iteration #  9     ecut=    80.00 Ry     beta= 0.20
     Davidson diagonalization with overlap

---- Real-time Memory Report at c_bands before calling an iterative solver
           252 MiB given to the printing process from OS
           122 MiB allocation reported by mallinfo(arena+hblkhd)
        172484 MiB available memory on the node where the printing process lives
------------------
     ethr =  1.58E-06,  avg # of iterations = 11.1

     negative rho (up, down):  1.157E-03 0.000E+00

     add environment contribution to local potential

     total cpu time spent up to now is      141.4 secs

     total energy              =    -240.72632239 Ry
     estimated scf accuracy    <       0.00027741 Ry

     total charge of GC-SCF    =       0.71040507 e
     the Fermi energy          =      -3.42330142 eV
                        (error :       0.98069858 eV)
     electrostatic embedding   =      -0.26279087 Ry
     cavitation energy         =       0.01235683 Ry
     electrolyte free energy   =      -0.00451997 Ry
     correction to one-el term =     -26.61663102 Ry

     iteration # 10     ecut=    80.00 Ry     beta= 0.20
     Davidson diagonalization with overlap

---- Real-time Memory Report at c_bands before calling an iterative solver
           252 MiB given to the printing process from OS
           125 MiB allocation reported by mallinfo(arena+hblkhd)
        172472 MiB available memory on the node where the printing process lives
------------------
     ethr =  5.87E-07,  avg # of iterations = 13.1

     negative rho (up, down):  5.771E-04 0.000E+00

     add environment contribution to local potential

     total cpu time spent up to now is      152.0 secs

     total energy              =    -240.61803181 Ry
     estimated scf accuracy    <       0.00064914 Ry

     total charge of GC-SCF    =       0.87978515 e
     the Fermi energy          =      -3.15937297 eV
                        (error :       1.24462703 eV)
     electrostatic embedding   =      -0.15375253 Ry
     cavitation energy         =       0.01235683 Ry
     electrolyte free energy   =      -0.00308444 Ry
     correction to one-el term =     -20.47495417 Ry

     iteration # 11     ecut=    80.00 Ry     beta= 0.20
     Davidson diagonalization with overlap

---- Real-time Memory Report at c_bands before calling an iterative solver
           252 MiB given to the printing process from OS
           125 MiB allocation reported by mallinfo(arena+hblkhd)
        172476 MiB available memory on the node where the printing process lives
------------------
     ethr =  5.87E-07,  avg # of iterations = 16.3

     negative rho (up, down):  6.428E-04 0.000E+00

     add environment contribution to local potential

     total cpu time spent up to now is      163.7 secs

     total energy              =    -240.65395994 Ry
     estimated scf accuracy    <       0.00020734 Ry

     total charge of GC-SCF    =       0.92510647 e
     the Fermi energy          =      -3.45696665 eV
                        (error :       0.94703335 eV)
     electrostatic embedding   =      -0.24560294 Ry
     cavitation energy         =       0.01235683 Ry
     electrolyte free energy   =      -0.00438780 Ry
     correction to one-el term =     -25.74929886 Ry

     iteration # 12     ecut=    80.00 Ry     beta= 0.20
     Davidson diagonalization with overlap

---- Real-time Memory Report at c_bands before calling an iterative solver
           252 MiB given to the printing process from OS
           125 MiB allocation reported by mallinfo(arena+hblkhd)
        172475 MiB available memory on the node where the printing process lives
------------------
     ethr =  4.40E-07,  avg # of iterations =  7.5

     negative rho (up, down):  5.553E-04 0.000E+00

     add environment contribution to local potential

     total cpu time spent up to now is      172.0 secs

     total energy              =    -240.65796661 Ry
     estimated scf accuracy    <       0.00023711 Ry

     total charge of GC-SCF    =       0.96144671 e
     the Fermi energy          =      -3.46416128 eV
                        (error :       0.93983872 eV)
     electrostatic embedding   =      -0.27106268 Ry
     cavitation energy         =       0.01235683 Ry
     electrolyte free energy   =      -0.00462684 Ry
     correction to one-el term =     -27.02019509 Ry

     iteration # 13     ecut=    80.00 Ry     beta= 0.20
     Davidson diagonalization with overlap

---- Real-time Memory Report at c_bands before calling an iterative solver
           252 MiB given to the printing process from OS
           125 MiB allocation reported by mallinfo(arena+hblkhd)
        172475 MiB available memory on the node where the printing process lives
------------------
     ethr =  4.40E-07,  avg # of iterations =  8.6

     negative rho (up, down):  2.095E-03 0.000E+00

     add environment contribution to local potential

     total cpu time spent up to now is      180.9 secs

     total energy              =    -240.64574123 Ry
     estimated scf accuracy    <       0.00023990 Ry

     total charge of GC-SCF    =       1.07023397 e
     the Fermi energy          =      -3.48945046 eV
                        (error :       0.91454954 eV)
     electrostatic embedding   =      -0.29153128 Ry
     cavitation energy         =       0.01235683 Ry
     electrolyte free energy   =      -0.00484240 Ry
     correction to one-el term =     -27.99582841 Ry

     iteration # 14     ecut=    80.00 Ry     beta= 0.20
     Davidson diagonalization with overlap

---- Real-time Memory Report at c_bands before calling an iterative solver
           252 MiB given to the printing process from OS
           125 MiB allocation reported by mallinfo(arena+hblkhd)
        172461 MiB available memory on the node where the printing process lives
------------------
     ethr =  4.40E-07,  avg # of iterations = 15.0

     negative rho (up, down):  3.828E-04 0.000E+00

     add environment contribution to local potential

     total cpu time spent up to now is      192.8 secs

     total energy              =    -240.65830321 Ry
     estimated scf accuracy    <       0.00018387 Ry

     total charge of GC-SCF    =       1.11635123 e
     the Fermi energy          =      -3.77239514 eV
                        (error :       0.63160486 eV)
     electrostatic embedding   =      -0.36601071 Ry
     cavitation energy         =       0.01235683 Ry
     electrolyte free energy   =      -0.00571951 Ry
     correction to one-el term =     -31.26683330 Ry

     iteration # 15     ecut=    80.00 Ry     beta= 0.20
     Davidson diagonalization with overlap

---- Real-time Memory Report at c_bands before calling an iterative solver
           252 MiB given to the printing process from OS
           125 MiB allocation reported by mallinfo(arena+hblkhd)
        172473 MiB available memory on the node where the printing process lives
------------------
     ethr =  3.92E-07,  avg # of iterations = 15.3

     negative rho (up, down):  2.753E-04 0.000E+00

     add environment contribution to local potential

     total cpu time spent up to now is      203.9 secs

     total energy              =    -240.67922349 Ry
     estimated scf accuracy    <       0.00018207 Ry

     total charge of GC-SCF    =       1.00835028 e
     the Fermi energy          =      -3.77072825 eV
                        (error :       0.63327175 eV)
     electrostatic embedding   =      -0.39410512 Ry
     cavitation energy         =       0.01235683 Ry
     electrolyte free energy   =      -0.00602215 Ry
     correction to one-el term =     -32.40931253 Ry

     iteration # 16     ecut=    80.00 Ry     beta= 0.20
     Davidson diagonalization with overlap

---- Real-time Memory Report at c_bands before calling an iterative solver
           252 MiB given to the printing process from OS
           125 MiB allocation reported by mallinfo(arena+hblkhd)
        172473 MiB available memory on the node where the printing process lives
------------------
     ethr =  3.87E-07,  avg # of iterations = 13.3

     negative rho (up, down):  3.308E-04 0.000E+00

     add environment contribution to local potential

     total cpu time spent up to now is      215.8 secs

     total energy              =    -240.65632680 Ry
     estimated scf accuracy    <       0.00012409 Ry

     total charge of GC-SCF    =       1.05650039 e
     the Fermi energy          =      -3.71429787 eV
                        (error :       0.68970213 eV)
     electrostatic embedding   =      -0.32402529 Ry
     cavitation energy         =       0.01235683 Ry
     electrolyte free energy   =      -0.00529157 Ry
     correction to one-el term =     -29.47938268 Ry

     iteration # 17     ecut=    80.00 Ry     beta= 0.20
     Davidson diagonalization with overlap

---- Real-time Memory Report at c_bands before calling an iterative solver
           252 MiB given to the printing process from OS
           125 MiB allocation reported by mallinfo(arena+hblkhd)
        172473 MiB available memory on the node where the printing process lives
------------------
     ethr =  2.64E-07,  avg # of iterations = 11.3

     negative rho (up, down):  2.596E-04 0.000E+00

     add environment contribution to local potential

     total cpu time spent up to now is      226.0 secs

     total energy              =    -240.65076762 Ry
     estimated scf accuracy    <       0.00013771 Ry

     total charge of GC-SCF    =       1.17499766 e
     the Fermi energy          =      -3.63882781 eV
                        (error :       0.76517219 eV)
     electrostatic embedding   =      -0.35190653 Ry
     cavitation energy         =       0.01235683 Ry
     electrolyte free energy   =      -0.00554117 Ry
     correction to one-el term =     -30.68131142 Ry

     iteration # 18     ecut=    80.00 Ry     beta= 0.20
     Davidson diagonalization with overlap

---- Real-time Memory Report at c_bands before calling an iterative solver
           252 MiB given to the printing process from OS
           125 MiB allocation reported by mallinfo(arena+hblkhd)
        172473 MiB available memory on the node where the printing process lives
------------------
     ethr =  2.64E-07,  avg # of iterations = 14.0

     negative rho (up, down):  2.725E-04 0.000E+00

     add environment contribution to local potential

     total cpu time spent up to now is      236.6 secs

     total energy              =    -240.65692093 Ry
     estimated scf accuracy    <       0.00006842 Ry

     total charge of GC-SCF    =       1.29474116 e
     the Fermi energy          =      -3.88507050 eV
                        (error :       0.51892950 eV)
     electrostatic embedding   =      -0.43969599 Ry
     cavitation energy         =       0.01235683 Ry
     electrolyte free energy   =      -0.00651477 Ry
     correction to one-el term =     -34.17539709 Ry

     iteration # 19     ecut=    80.00 Ry     beta= 0.20
     Davidson diagonalization with overlap

---- Real-time Memory Report at c_bands before calling an iterative solver
           252 MiB given to the printing process from OS
           125 MiB allocation reported by mallinfo(arena+hblkhd)
        172475 MiB available memory on the node where the printing process lives
------------------
     ethr =  1.46E-07,  avg # of iterations = 18.7

     negative rho (up, down):  4.567E-04 0.000E+00

     add environment contribution to local potential

     total cpu time spent up to now is      250.2 secs

     total energy              =    -240.66510884 Ry
     estimated scf accuracy    <       0.00004177 Ry

     total charge of GC-SCF    =       1.44364925 e
     the Fermi energy          =      -4.16208921 eV
                        (error :       0.24191079 eV)
     electrostatic embedding   =      -0.53847812 Ry
     cavitation energy         =       0.01235683 Ry
     electrolyte free energy   =      -0.00763832 Ry
     correction to one-el term =     -37.68434077 Ry

     iteration # 20     ecut=    80.00 Ry     beta= 0.20
     Davidson diagonalization with overlap

---- Real-time Memory Report at c_bands before calling an iterative solver
           252 MiB given to the printing process from OS
           125 MiB allocation reported by mallinfo(arena+hblkhd)
        172472 MiB available memory on the node where the printing process lives
------------------
     ethr =  8.97E-08,  avg # of iterations = 25.4

     negative rho (up, down):  4.754E-04 0.000E+00

     add environment contribution to local potential

     total cpu time spent up to now is      267.5 secs

     total energy              =    -240.66469610 Ry
     estimated scf accuracy    <       0.00001197 Ry

     total charge of GC-SCF    =       1.45054048 e
     the Fermi energy          =      -4.35918203 eV
                        (error :       0.04481797 eV)
     electrostatic embedding   =      -0.66326125 Ry
     cavitation energy         =       0.01235683 Ry
     electrolyte free energy   =      -0.00918413 Ry
     correction to one-el term =     -41.63190093 Ry

     iteration # 21     ecut=    80.00 Ry     beta= 0.20
     Davidson diagonalization with overlap

---- Real-time Memory Report at c_bands before calling an iterative solver
           252 MiB given to the printing process from OS
           125 MiB allocation reported by mallinfo(arena+hblkhd)
        172469 MiB available memory on the node where the printing process lives
------------------
     ethr =  2.57E-08,  avg # of iterations =  8.6

     negative rho (up, down):  5.240E-04 0.000E+00

     add environment contribution to local potential

     total cpu time spent up to now is      276.2 secs

     total energy              =    -240.66472843 Ry
     estimated scf accuracy    <       0.00000805 Ry

     total charge of GC-SCF    =       1.47300015 e
     the Fermi energy          =      -4.34661687 eV
                        (error :       0.05738313 eV)
     electrostatic embedding   =      -0.66859453 Ry
     cavitation energy         =       0.01235683 Ry
     electrolyte free energy   =      -0.00925527 Ry
     correction to one-el term =     -41.78826688 Ry

     iteration # 22     ecut=    80.00 Ry     beta= 0.20
     Davidson diagonalization with overlap

---- Real-time Memory Report at c_bands before calling an iterative solver
           252 MiB given to the printing process from OS
           125 MiB allocation reported by mallinfo(arena+hblkhd)
        172469 MiB available memory on the node where the printing process lives
------------------
     ethr =  1.73E-08,  avg # of iterations =  9.0

     negative rho (up, down):  2.638E-04 0.000E+00

     add environment contribution to local potential

     total cpu time spent up to now is      285.7 secs

     total energy              =    -240.66556493 Ry
     estimated scf accuracy    <       0.00000584 Ry

     total charge of GC-SCF    =       1.43228614 e
     the Fermi energy          =      -4.37333044 eV
                        (error :       0.03066956 eV)
     electrostatic embedding   =      -0.68989166 Ry
     cavitation energy         =       0.01235683 Ry
     electrolyte free energy   =      -0.00952282 Ry
     correction to one-el term =     -42.41851504 Ry

     iteration # 23     ecut=    80.00 Ry     beta= 0.20
     Davidson diagonalization with overlap

---- Real-time Memory Report at c_bands before calling an iterative solver
           252 MiB given to the printing process from OS
           125 MiB allocation reported by mallinfo(arena+hblkhd)
        172469 MiB available memory on the node where the printing process lives
------------------
     ethr =  1.25E-08,  avg # of iterations = 11.1

     negative rho (up, down):  7.560E-04 0.000E+00

     add environment contribution to local potential

     total cpu time spent up to now is      296.8 secs

     total energy              =    -240.66563129 Ry
     estimated scf accuracy    <       0.00000533 Ry

     total charge of GC-SCF    =       1.50868744 e
     the Fermi energy          =      -4.33512628 eV
                        (error :       0.06887372 eV)
     electrostatic embedding   =      -0.65116850 Ry
     cavitation energy         =       0.01235683 Ry
     electrolyte free energy   =      -0.00904399 Ry
     correction to one-el term =     -41.26316582 Ry

     iteration # 24     ecut=    80.00 Ry     beta= 0.20
     Davidson diagonalization with overlap

---- Real-time Memory Report at c_bands before calling an iterative solver
           252 MiB given to the printing process from OS
           125 MiB allocation reported by mallinfo(arena+hblkhd)
        172467 MiB available memory on the node where the printing process lives
------------------
     ethr =  1.15E-08,  avg # of iterations = 13.4

     negative rho (up, down):  3.649E-04 0.000E+00

     add environment contribution to local potential

     total cpu time spent up to now is      309.0 secs

     total energy              =    -240.66471323 Ry
     estimated scf accuracy    <       0.00000172 Ry

     total charge of GC-SCF    =       1.48784757 e
     the Fermi energy          =      -4.42353401 eV
                        (error :       0.01953401 eV)
     electrostatic embedding   =      -0.72168473 Ry
     cavitation energy         =       0.01235683 Ry
     electrolyte free energy   =      -0.00995208 Ry
     correction to one-el term =     -43.33569545 Ry

     iteration # 25     ecut=    80.00 Ry     beta= 0.20
     Davidson diagonalization with overlap

---- Real-time Memory Report at c_bands before calling an iterative solver
           252 MiB given to the printing process from OS
           125 MiB allocation reported by mallinfo(arena+hblkhd)
        172469 MiB available memory on the node where the printing process lives
------------------
     ethr =  3.70E-09,  avg # of iterations = 11.6

     negative rho (up, down):  2.641E-04 0.000E+00

     total cpu time spent up to now is      315.8 secs

     End of self-consistent calculation

          k = 0.0000 0.0000 0.0000 (128001 PWs)   bands (ev):

   -51.5667 -51.5655 -51.5579 -51.5564 -51.5561 -51.5559 -51.5507 -51.5495
   -50.8464 -50.8375 -50.8334 -50.8327 -50.8318 -50.8312 -50.8286 -50.8225
    -7.7701  -7.1248  -5.8032  -4.3359  -4.3359  -4.3358  -4.3358  -4.0205
    -4.0205  -4.0205  -4.0204  -3.9524  -3.7331  -3.2370  -3.0424  -1.6632
    -1.0434  -0.7527  -0.7527  -0.7526

     occupation numbers 
     1.0000   1.0000   1.0000   1.0000   1.0000   1.0000   1.0000   1.0000
     1.0000   1.0000   1.0000   1.0000   1.0000   1.0000   1.0000   1.0000
     1.0000   1.0000   1.0000   0.1373   0.1372   0.1370   0.1369   0.0000
     0.0000   0.0000   0.0000   0.0000   0.0000   0.0000   0.0000   0.0000
     0.0000   0.0000   0.0000   0.0000

          k = 0.0000 0.0964 0.0000 (128124 PWs)   bands (ev):

   -51.5665 -51.5653 -51.5580 -51.5565 -51.5562 -51.5559 -51.5508 -51.5496
   -50.8462 -50.8373 -50.8336 -50.8329 -50.8316 -50.8311 -50.8287 -50.8227
    -7.7409  -7.0956  -5.7732  -4.8859  -4.4882  -4.4434  -4.2003  -4.0123
    -3.9923  -3.9043  -3.8280  -3.7146  -3.7040  -3.2830  -3.0051  -1.7334
    -0.9528  -0.9513  -0.8377  -0.6140

     occupation numbers 
     1.0000   1.0000   1.0000   1.0000   1.0000   1.0000   1.0000   1.0000
     1.0000   1.0000   1.0000   1.0000   1.0000   1.0000   1.0000   1.0000
     1.0000   1.0000   1.0000   1.0001   0.8474   0.6136   0.0040   0.0000
     0.0000   0.0000   0.0000   0.0000   0.0000   0.0000   0.0000   0.0000
     0.0000   0.0000   0.0000   0.0000

          k = 0.0000 0.1928 0.0000 (128159 PWs)   bands (ev):

   -51.5659 -51.5648 -51.5583 -51.5567 -51.5563 -51.5556 -51.5512 -51.5500
   -50.8455 -50.8369 -50.8345 -50.8331 -50.8314 -50.8306 -50.8290 -50.8232
    -7.6532  -7.0083  -5.6834  -5.4183  -4.8789  -4.5910  -4.1898  -4.0970
    -3.8765  -3.7691  -3.7347  -3.6175  -3.4039  -3.1851  -2.8932  -1.9139
    -0.8637  -0.8229  -0.6992  -0.4934

     occupation numbers 
     1.0000   1.0000   1.0000   1.0000   1.0000   1.0000   1.0000   1.0000
     1.0000   1.0000   1.0000   1.0000   1.0000   1.0000   1.0000   1.0000
     1.0000   1.0000   1.0000   1.0000   1.0001   1.0830   0.0028   0.0001
     0.0000   0.0000   0.0000   0.0000   0.0000   0.0000   0.0000   0.0000
     0.0000   0.0000   0.0000   0.0000

          k = 0.0000 0.2893 0.0000 (128149 PWs)   bands (ev):

   -51.5651 -51.5639 -51.5590 -51.5576 -51.5559 -51.5550 -51.5518 -51.5506
   -50.8444 -50.8363 -50.8359 -50.8330 -50.8315 -50.8297 -50.8294 -50.8239
    -7.5070  -6.8630  -5.9051  -5.5351  -5.3166  -4.6401  -4.2345  -4.1711
    -4.1214  -3.5642  -3.5229  -3.4770  -3.4242  -2.8128  -2.7070  -2.1581
    -0.8280  -0.8259  -0.8052  -0.3385

     occupation numbers 
     1.0000   1.0000   1.0000   1.0000   1.0000   1.0000   1.0000   1.0000
     1.0000   1.0000   1.0000   1.0000   1.0000   1.0000   1.0000   1.0000
     1.0000   1.0000   1.0000   1.0000   1.0000   1.0655   0.0117   0.0015
     0.0002   0.0000   0.0000   0.0000   0.0000   0.0000   0.0000   0.0000
     0.0000   0.0000   0.0000   0.0000

          k = 0.0000 0.3857 0.0000 (128143 PWs)   bands (ev):

   -51.5639 -51.5628 -51.5601 -51.5587 -51.5552 -51.5543 -51.5526 -51.5513
   -50.8429 -50.8376 -50.8354 -50.8332 -50.8315 -50.8301 -50.8286 -50.8249
    -7.3022  -6.6604  -6.3394  -5.7244  -5.3305  -4.6377  -4.4445  -4.3750
    -4.1140  -3.7328  -3.2894  -3.2771  -3.0102  -2.7208  -2.4469  -2.4339
    -1.4150  -1.2506  -0.7213  -0.1738

     occupation numbers 
     1.0000   1.0000   1.0000   1.0000   1.0000   1.0000   1.0000   1.0000
     1.0000   1.0000   1.0000   1.0000   1.0000   1.0000   1.0000   1.0000
     1.0000   1.0000   1.0000   1.0000   1.0000   1.0671   0.6197   0.2685
     0.0002   0.0000   0.0000   0.0000   0.0000   0.0000   0.0000   0.0000
     0.0000   0.0000   0.0000   0.0000

          k = 0.0000 0.4821 0.0000 (128153 PWs)   bands (ev):

   -51.5627 -51.5617 -51.5613 -51.5598 -51.5543 -51.5536 -51.5534 -51.5520
   -50.8412 -50.8394 -50.8345 -50.8337 -50.8312 -50.8306 -50.8273 -50.8261
    -7.0391  -6.7179  -6.4016  -6.0884  -5.0739  -4.7733  -4.5880  -4.4975
    -4.0183  -3.8885  -3.0699  -3.0063  -2.8533  -2.7213  -2.5326  -2.1140
    -1.9968  -1.7116  -0.5498  -0.3207

     occupation numbers 
     1.0000   1.0000   1.0000   1.0000   1.0000   1.0000   1.0000   1.0000
     1.0000   1.0000   1.0000   1.0000   1.0000   1.0000   1.0000   1.0000
     1.0000   1.0000   1.0000   1.0000   1.0000   1.0048   1.0824   0.8883
     0.0000   0.0000   0.0000   0.0000   0.0000   0.0000   0.0000   0.0000
     0.0000   0.0000   0.0000   0.0000

          k = 0.0909 0.0321 0.0000 (128124 PWs)   bands (ev):

   -51.5665 -51.5653 -51.5580 -51.5565 -51.5563 -51.5558 -51.5508 -51.5496
   -50.8462 -50.8373 -50.8336 -50.8329 -50.8316 -50.8311 -50.8287 -50.8227
    -7.7409  -7.0956  -5.7732  -4.8859  -4.4882  -4.4434  -4.2003  -4.0123
    -3.9923  -3.9043  -3.8280  -3.7147  -3.7040  -3.2830  -3.0051  -1.7334
    -0.9528  -0.9513  -0.8377  -0.6140

     occupation numbers 
     1.0000   1.0000   1.0000   1.0000   1.0000   1.0000   1.0000   1.0000
     1.0000   1.0000   1.0000   1.0000   1.0000   1.0000   1.0000   1.0000
     1.0000   1.0000   1.0000   1.0001   0.8474   0.6136   0.0040   0.0000
     0.0000   0.0000   0.0000   0.0000   0.0000   0.0000   0.0000   0.0000
     0.0000   0.0000   0.0000   0.0000

          k = 0.0909 0.1286 0.0000 (128153 PWs)   bands (ev):

   -51.5662 -51.5651 -51.5581 -51.5566 -51.5562 -51.5561 -51.5509 -51.5497
   -50.8458 -50.8372 -50.8339 -50.8335 -50.8312 -50.8309 -50.8287 -50.8229
    -7.6922  -7.0475  -5.7241  -5.0424  -5.0424  -4.5559  -4.5559  -3.8485
    -3.7826  -3.7826  -3.6572  -3.4970  -3.4970  -3.1334  -2.9427  -1.5601
    -1.0519  -0.9164  -0.9164  -0.7345

     occupation numbers 
     1.0000   1.0000   1.0000   1.0000   1.0000   1.0000   1.0000   1.0000
     1.0000   1.0000   1.0000   1.0000   1.0000   1.0000   1.0000   1.0000
     1.0000   1.0000   1.0000   1.0000   1.0000   1.0564   1.0563   0.0000
     0.0000   0.0000   0.0000   0.0000   0.0000   0.0000   0.0000   0.0000
     0.0000   0.0000   0.0000   0.0000

          k = 0.0909 0.2250 0.0000 (128141 PWs)   bands (ev):

   -51.5656 -51.5645 -51.5583 -51.5567 -51.5566 -51.5559 -51.5512 -51.5500
   -50.8450 -50.8368 -50.8349 -50.8338 -50.8311 -50.8304 -50.8288 -50.8234
    -7.5850  -6.9410  -5.6155  -5.5611  -5.1392  -4.9992  -4.6151  -3.9111
    -3.7893  -3.7007  -3.5537  -3.2199  -3.0839  -3.0032  -2.8058  -1.5655
    -0.9656  -0.8125  -0.8047  -0.7214

     occupation numbers 
     1.0000   1.0000   1.0000   1.0000   1.0000   1.0000   1.0000   1.0000
     1.0000   1.0000   1.0000   1.0000   1.0000   1.0000   1.0000   1.0000
     1.0000   1.0000   1.0000   1.0000   1.0000   1.0000   1.0793   0.0000
     0.0000   0.0000   0.0000   0.0000   0.0000   0.0000   0.0000   0.0000
     0.0000   0.0000   0.0000   0.0000

          k = 0.0909 0.3214 0.0000 (128182 PWs)   bands (ev):

   -51.5647 -51.5636 -51.5591 -51.5576 -51.5562 -51.5553 -51.5518 -51.5506
   -50.8438 -50.8364 -50.8360 -50.8336 -50.8314 -50.8295 -50.8292 -50.8242
    -7.4190  -6.7766  -6.0309  -5.4486  -5.4296  -5.1787  -4.6217  -4.1942
    -3.8102  -3.5838  -3.3974  -3.1356  -2.8863  -2.7176  -2.5945  -1.8015
    -1.3163  -0.9057  -0.7224  -0.6383

     occupation numbers 
     1.0000   1.0000   1.0000   1.0000   1.0000   1.0000   1.0000   1.0000
     1.0000   1.0000   1.0000   1.0000   1.0000   1.0000   1.0000   1.0000
     1.0000   1.0000   1.0000   1.0000   1.0000   1.0000   1.0763   0.0033
     0.0000   0.0000   0.0000   0.0000   0.0000   0.0000   0.0000   0.0000
     0.0000   0.0000   0.0000   0.0000

          k = 0.0909 0.4178 0.0000 (128184 PWs)   bands (ev):

   -51.5636 -51.5625 -51.5601 -51.5587 -51.5555 -51.5546 -51.5525 -51.5513
   -50.8423 -50.8380 -50.8353 -50.8334 -50.8318 -50.8297 -50.8284 -50.8253
    -7.1944  -6.5549  -6.4465  -5.8238  -5.2262  -5.1635  -4.5777  -4.5249
    -3.8788  -3.4337  -3.2538  -3.1971  -2.7156  -2.5014  -2.3094  -2.1836
    -1.9721  -1.3786  -0.6328  -0.4523

     occupation numbers 
     1.0000   1.0000   1.0000   1.0000   1.0000   1.0000   1.0000   1.0000
     1.0000   1.0000   1.0000   1.0000   1.0000   1.0000   1.0000   1.0000
     1.0000   1.0000   1.0000   1.0000   1.0000   1.0000   1.0783   0.9878
     0.0000   0.0000   0.0000   0.0000   0.0000   0.0000   0.0000   0.0000
     0.0000   0.0000   0.0000   0.0000

          k = 0.0909 0.5143 0.0000 (128204 PWs)   bands (ev):

   -51.5623 -51.5614 -51.5614 -51.5598 -51.5547 -51.5539 -51.5534 -51.5520
   -50.8406 -50.8397 -50.8345 -50.8336 -50.8319 -50.8302 -50.8273 -50.8265
    -6.9112  -6.8057  -6.2771  -6.1713  -5.0967  -4.9533  -4.8469  -4.4858
    -3.9601  -3.4000  -3.2519  -2.9719  -2.8892  -2.6091  -2.5773  -2.0748
    -1.9522  -1.8220  -0.6737  -0.4005

     occupation numbers 
     1.0000   1.0000   1.0000   1.0000   1.0000   1.0000   1.0000   1.0000
     1.0000   1.0000   1.0000   1.0000   1.0000   1.0000   1.0000   1.0000
     1.0000   1.0000   1.0000   1.0000   1.0000   1.0000   1.0004   0.8357
     0.0000   0.0000   0.0000   0.0000   0.0000   0.0000   0.0000   0.0000
     0.0000   0.0000   0.0000   0.0000

          k = 0.0909-0.4500 0.0000 (128255 PWs)   bands (ev):

   -51.5627 -51.5617 -51.5610 -51.5595 -51.5543 -51.5538 -51.5537 -51.5522
   -50.8415 -50.8387 -50.8344 -50.8336 -50.8314 -50.8307 -50.8278 -50.8261
    -7.1073  -6.5699  -6.4666  -5.9455  -5.1342  -4.9822  -4.6396  -4.3494
    -4.0282  -3.5504  -3.1148  -3.1128  -3.0402  -3.0238  -2.7669  -2.2012
    -1.6244  -1.5272  -0.6976  -0.4567

     occupation numbers 
     1.0000   1.0000   1.0000   1.0000   1.0000   1.0000   1.0000   1.0000
     1.0000   1.0000   1.0000   1.0000   1.0000   1.0000   1.0000   1.0000
     1.0000   1.0000   1.0000   1.0000   1.0000   1.0000   1.0658   0.1758
     0.0000   0.0000   0.0000   0.0000   0.0000   0.0000   0.0000   0.0000
     0.0000   0.0000   0.0000   0.0000

          k = 0.0909-0.3536 0.0000 (128248 PWs)   bands (ev):

   -51.5640 -51.5628 -51.5597 -51.5583 -51.5552 -51.5543 -51.5529 -51.5516
   -50.8431 -50.8369 -50.8352 -50.8330 -50.8311 -50.8307 -50.8291 -50.8249
    -7.3508  -6.7069  -6.1714  -5.5646  -5.3746  -4.8251  -4.3053  -4.1733
    -4.0678  -3.7237  -3.5462  -3.4019  -3.3248  -2.8013  -2.6862  -2.5095
    -1.1798  -1.0537  -0.6925  -0.5832

     occupation numbers 
     1.0000   1.0000   1.0000   1.0000   1.0000   1.0000   1.0000   1.0000
     1.0000   1.0000   1.0000   1.0000   1.0000   1.0000   1.0000   1.0000
     1.0000   1.0000   1.0000   1.0000   1.0000   1.0010   0.0729   0.0016
     0.0000   0.0000   0.0000   0.0000   0.0000   0.0000   0.0000   0.0000
     0.0000   0.0000   0.0000   0.0000

          k = 0.0909-0.2571 0.0000 (128274 PWs)   bands (ev):

   -51.5650 -51.5639 -51.5587 -51.5573 -51.5559 -51.5550 -51.5521 -51.5509
   -50.8445 -50.8361 -50.8352 -50.8328 -50.8313 -50.8303 -50.8300 -50.8240
    -7.5360  -6.8907  -5.7179  -5.5614  -5.1431  -4.6328  -4.0740  -4.0524
    -3.9941  -3.9642  -3.7285  -3.7257  -3.4990  -2.8734  -2.7447  -2.5397
    -0.7831  -0.7254  -0.7111  -0.6511

     occupation numbers 
     1.0000   1.0000   1.0000   1.0000   1.0000   1.0000   1.0000   1.0000
     1.0000   1.0000   1.0000   1.0000   1.0000   1.0000   1.0000   1.0000
     1.0000   1.0000   1.0000   1.0000   1.0000   1.0702   0.0000   0.0000
     0.0000   0.0000   0.0000   0.0000   0.0000   0.0000   0.0000   0.0000
     0.0000   0.0000   0.0000   0.0000

          k = 0.0909-0.1607 0.0000 (128233 PWs)   bands (ev):

   -51.5659 -51.5647 -51.5581 -51.5565 -51.5563 -51.5557 -51.5515 -51.5502
   -50.8455 -50.8367 -50.8340 -50.8327 -50.8316 -50.8310 -50.8294 -50.8233
    -7.6627  -7.0171  -5.6912  -5.2137  -4.6991  -4.4163  -4.3890  -4.1040
    -3.9247  -3.8040  -3.7977  -3.7328  -3.6234  -3.3190  -2.9060  -2.2630
    -0.8964  -0.8469  -0.5690  -0.4848

     occupation numbers 
     1.0000   1.0000   1.0000   1.0000   1.0000   1.0000   1.0000   1.0000
     1.0000   1.0000   1.0000   1.0000   1.0000   1.0000   1.0000   1.0000
     1.0000   1.0000   1.0000   1.0000   1.0276   0.4651   0.3291   0.0001
     0.0000   0.0000   0.0000   0.0000   0.0000   0.0000   0.0000   0.0000
     0.0000   0.0000   0.0000   0.0000

          k = 0.0909-0.0643 0.0000 (128178 PWs)   bands (ev):

   -51.5664 -51.5652 -51.5579 -51.5564 -51.5561 -51.5559 -51.5510 -51.5498
   -50.8461 -50.8372 -50.8334 -50.8327 -50.8319 -50.8311 -50.8290 -50.8228
    -7.7310  -7.0855  -5.7621  -4.6683  -4.6683  -4.2804  -4.2804  -4.1935
    -3.8691  -3.8691  -3.8356  -3.8356  -3.6926  -3.4963  -2.9928  -1.9855
    -0.9269  -0.9269  -0.7010  -0.4443

     occupation numbers 
     1.0000   1.0000   1.0000   1.0000   1.0000   1.0000   1.0000   1.0000
     1.0000   1.0000   1.0000   1.0000   1.0000   1.0000   1.0000   1.0000
     1.0000   1.0000   1.0000   1.0463   1.0463   0.0407   0.0407   0.0032
     0.0000   0.0000   0.0000   0.0000   0.0000   0.0000   0.0000   0.0000
     0.0000   0.0000   0.0000   0.0000

          k = 0.1818 0.0643 0.0000 (128159 PWs)   bands (ev):

   -51.5659 -51.5648 -51.5583 -51.5568 -51.5563 -51.5554 -51.5512 -51.5500
   -50.8455 -50.8369 -50.8345 -50.8331 -50.8314 -50.8306 -50.8290 -50.8232
    -7.6532  -7.0083  -5.6834  -5.4183  -4.8789  -4.5910  -4.1898  -4.0970
    -3.8765  -3.7691  -3.7347  -3.6175  -3.4039  -3.1851  -2.8932  -1.9139
    -0.8637  -0.8229  -0.6992  -0.4934

     occupation numbers 
     1.0000   1.0000   1.0000   1.0000   1.0000   1.0000   1.0000   1.0000
     1.0000   1.0000   1.0000   1.0000   1.0000   1.0000   1.0000   1.0000
     1.0000   1.0000   1.0000   1.0000   1.0001   1.0830   0.0028   0.0001
     0.0000   0.0000   0.0000   0.0000   0.0000   0.0000   0.0000   0.0000
     0.0000   0.0000   0.0000   0.0000

          k = 0.1818 0.1607 0.0000 (128141 PWs)   bands (ev):

   -51.5656 -51.5645 -51.5583 -51.5568 -51.5566 -51.5557 -51.5512 -51.5500
   -50.8450 -50.8368 -50.8349 -50.8338 -50.8311 -50.8304 -50.8288 -50.8234
    -7.5850  -6.9410  -5.6155  -5.5611  -5.1392  -4.9992  -4.6151  -3.9111
    -3.7893  -3.7007  -3.5537  -3.2199  -3.0839  -3.0032  -2.8058  -1.5655
    -0.9656  -0.8125  -0.8047  -0.7214

     occupation numbers 
     1.0000   1.0000   1.0000   1.0000   1.0000   1.0000   1.0000   1.0000
     1.0000   1.0000   1.0000   1.0000   1.0000   1.0000   1.0000   1.0000
     1.0000   1.0000   1.0000   1.0000   1.0000   1.0000   1.0793   0.0000
     0.0000   0.0000   0.0000   0.0000   0.0000   0.0000   0.0000   0.0000
     0.0000   0.0000   0.0000   0.0000

          k = 0.1818 0.2571 0.0000 (128129 PWs)   bands (ev):

   -51.5650 -51.5638 -51.5584 -51.5569 -51.5565 -51.5564 -51.5515 -51.5503
   -50.8441 -50.8364 -50.8350 -50.8348 -50.8306 -50.8304 -50.8289 -50.8240
    -7.4579  -6.8153  -5.6439  -5.6439  -5.4880  -5.0615  -5.0615  -3.9005
    -3.9005  -3.5369  -3.4338  -2.8226  -2.7775  -2.7775  -2.6437  -1.3123
    -1.2508  -1.1821  -0.9085  -0.9060

     occupation numbers 
     1.0000   1.0000   1.0000   1.0000   1.0000   1.0000   1.0000   1.0000
     1.0000   1.0000   1.0000   1.0000   1.0000   1.0000   1.0000   1.0000
     1.0000   1.0000   1.0000   1.0000   1.0000   1.0000   1.0000   0.0000
     0.0000   0.0000   0.0000   0.0000   0.0000   0.0000   0.0000   0.0000
     0.0000   0.0000   0.0000   0.0000

          k = 0.1818 0.3536 0.0000 (128197 PWs)   bands (ev):

   -51.5641 -51.5629 -51.5589 -51.5573 -51.5568 -51.5560 -51.5521 -51.5508
   -50.8428 -50.8364 -50.8357 -50.8347 -50.8309 -50.8297 -50.8291 -50.8248
    -7.2719  -6.6315  -6.0966  -5.6683  -5.4834  -5.3026  -5.0675  -4.2126
    -3.8442  -3.3861  -3.2626  -2.6974  -2.5912  -2.5150  -2.4073  -1.9762
    -1.7327  -1.0680  -0.9837  -0.9628

     occupation numbers 
     1.0000   1.0000   1.0000   1.0000   1.0000   1.0000   1.0000   1.0000
     1.0000   1.0000   1.0000   1.0000   1.0000   1.0000   1.0000   1.0000
     1.0000   1.0000   1.0000   1.0000   1.0000   1.0000   1.0000   0.0060
     0.0000   0.0000   0.0000   0.0000   0.0000   0.0000   0.0000   0.0000
     0.0000   0.0000   0.0000   0.0000

          k = 0.1818 0.4500 0.0000 (128249 PWs)   bands (ev):

   -51.5629 -51.5618 -51.5599 -51.5584 -51.5562 -51.5553 -51.5528 -51.5515
   -50.8413 -50.8380 -50.8350 -50.8343 -50.8315 -50.8295 -50.8286 -50.8259
    -7.0269  -6.4938  -6.3901  -5.8638  -5.6364  -5.0622  -5.0189  -4.5469
    -3.7425  -3.3454  -3.0503  -2.7683  -2.6698  -2.5982  -2.3190  -2.2257
    -2.0972  -1.4354  -1.0598  -0.7397

     occupation numbers 
     1.0000   1.0000   1.0000   1.0000   1.0000   1.0000   1.0000   1.0000
     1.0000   1.0000   1.0000   1.0000   1.0000   1.0000   1.0000   1.0000
     1.0000   1.0000   1.0000   1.0000   1.0000   1.0000   1.0000   1.0413
     0.0000   0.0000   0.0000   0.0000   0.0000   0.0000   0.0000   0.0000
     0.0000   0.0000   0.0000   0.0000

          k = 0.1818 0.5464 0.0000 (128326 PWs)   bands (ev):

   -51.5616 -51.5611 -51.5608 -51.5594 -51.5554 -51.5545 -51.5537 -51.5523
   -50.8398 -50.8394 -50.8342 -50.8338 -50.8322 -50.8300 -50.8275 -50.8272
    -6.8340  -6.7231  -6.1949  -6.0928  -5.5502  -4.9179  -4.8607  -4.7728
    -3.5957  -3.3769  -3.2320  -2.8930  -2.8737  -2.8574  -2.8204  -1.9211
    -1.8584  -1.7155  -0.9935  -0.5660

     occupation numbers 
     1.0000   1.0000   1.0000   1.0000   1.0000   1.0000   1.0000   1.0000
     1.0000   1.0000   1.0000   1.0000   1.0000   1.0000   1.0000   1.0000
     1.0000   1.0000   1.0000   1.0000   1.0000   1.0000   1.0003   1.0049
     0.0000   0.0000   0.0000   0.0000   0.0000   0.0000   0.0000   0.0000
     0.0000   0.0000   0.0000   0.0000

          k = 0.1818-0.4178 0.0000 (128335 PWs)   bands (ev):

   -51.5624 -51.5614 -51.5603 -51.5589 -51.5546 -51.5545 -51.5541 -51.5527
   -50.8414 -50.8376 -50.8341 -50.8334 -50.8322 -50.8305 -50.8286 -50.8264
    -7.1163  -6.4725  -6.3609  -5.7421  -5.4121  -5.1344  -4.7668  -4.4459
    -3.7546  -3.4651  -3.4053  -3.3034  -3.1109  -3.0999  -2.6309  -2.2139
    -1.6113  -1.2688  -0.9513  -0.4362

     occupation numbers 
     1.0000   1.0000   1.0000   1.0000   1.0000   1.0000   1.0000   1.0000
     1.0000   1.0000   1.0000   1.0000   1.0000   1.0000   1.0000   1.0000
     1.0000   1.0000   1.0000   1.0000   1.0000   1.0000   1.0058   0.6277
     0.0000   0.0000   0.0000   0.0000   0.0000   0.0000   0.0000   0.0000
     0.0000   0.0000   0.0000   0.0000

          k = 0.1818-0.3214 0.0000 (128355 PWs)   bands (ev):

   -51.5636 -51.5625 -51.5592 -51.5577 -51.5555 -51.5546 -51.5535 -51.5522
   -50.8429 -50.8359 -50.8348 -50.8328 -50.8315 -50.8309 -50.8299 -50.8253
    -7.3405  -6.6946  -5.9418  -5.3584  -5.3435  -5.2249  -4.5683  -4.2165
    -4.1069  -3.8005  -3.4293  -3.3250  -3.3029  -3.1729  -2.6126  -2.4976
    -1.3033  -0.9434  -0.7967  -0.3017

     occupation numbers 
     1.0000   1.0000   1.0000   1.0000   1.0000   1.0000   1.0000   1.0000
     1.0000   1.0000   1.0000   1.0000   1.0000   1.0000   1.0000   1.0000
     1.0000   1.0000   1.0000   1.0000   1.0000   1.0000   1.0712   0.0068
     0.0001   0.0000   0.0000   0.0000   0.0000   0.0000   0.0000   0.0000
     0.0000   0.0000   0.0000   0.0000

          k = 0.1818-0.2250 0.0000 (128288 PWs)   bands (ev):

   -51.5647 -51.5635 -51.5583 -51.5567 -51.5562 -51.5554 -51.5527 -51.5514
   -50.8441 -50.8357 -50.8343 -50.8326 -50.8315 -50.8308 -50.8307 -50.8244
    -7.5063  -6.8598  -5.5276  -5.4683  -4.9924  -4.9079  -4.6137  -4.3259
    -4.1580  -3.8126  -3.5172  -3.4631  -3.4400  -2.9016  -2.8968  -2.7079
    -1.0023  -0.9462  -0.7012  -0.2865

     occupation numbers 
     1.0000   1.0000   1.0000   1.0000   1.0000   1.0000   1.0000   1.0000
     1.0000   1.0000   1.0000   1.0000   1.0000   1.0000   1.0000   1.0000
     1.0000   1.0000   1.0000   1.0000   1.0000   1.0000   1.0798   0.1128
     0.0009   0.0000   0.0000   0.0000   0.0000   0.0000   0.0000   0.0000
     0.0000   0.0000   0.0000   0.0000

          k = 0.1818-0.1286 0.0000 (128250 PWs)   bands (ev):

   -51.5654 -51.5643 -51.5579 -51.5565 -51.5561 -51.5559 -51.5520 -51.5507
   -50.8450 -50.8363 -50.8336 -50.8325 -50.8320 -50.8310 -50.8300 -50.8237
    -7.6137  -6.9675  -5.6390  -4.9459  -4.9459  -4.7198  -4.4588  -4.4588
    -4.0448  -3.6768  -3.6768  -3.5714  -3.4036  -3.4036  -2.8442  -2.5960
    -0.9357  -0.9356  -0.7174  -0.0744

     occupation numbers 
     1.0000   1.0000   1.0000   1.0000   1.0000   1.0000   1.0000   1.0000
     1.0000   1.0000   1.0000   1.0000   1.0000   1.0000   1.0000   1.0000
     1.0000   1.0000   1.0000   1.0000   1.0000   1.0182   0.6985   0.6982
     0.0000   0.0000   0.0000   0.0000   0.0000   0.0000   0.0000   0.0000
     0.0000   0.0000   0.0000   0.0000

          k = 0.1818-0.0321 0.0000 (128233 PWs)   bands (ev):

   -51.5659 -51.5647 -51.5581 -51.5566 -51.5563 -51.5555 -51.5515 -51.5502
   -50.8455 -50.8367 -50.8340 -50.8327 -50.8316 -50.8310 -50.8294 -50.8233
    -7.6627  -7.0171  -5.6912  -5.2137  -4.6991  -4.4163  -4.3890  -4.1040
    -3.9247  -3.8040  -3.7977  -3.7328  -3.6234  -3.3190  -2.9060  -2.2630
    -0.8964  -0.8469  -0.5690  -0.4848

     occupation numbers 
     1.0000   1.0000   1.0000   1.0000   1.0000   1.0000   1.0000   1.0000
     1.0000   1.0000   1.0000   1.0000   1.0000   1.0000   1.0000   1.0000
     1.0000   1.0000   1.0000   1.0000   1.0276   0.4651   0.3291   0.0001
     0.0000   0.0000   0.0000   0.0000   0.0000   0.0000   0.0000   0.0000
     0.0000   0.0000   0.0000   0.0000

          k = 0.2727 0.0964 0.0000 (128149 PWs)   bands (ev):

   -51.5651 -51.5639 -51.5590 -51.5577 -51.5559 -51.5548 -51.5518 -51.5506
   -50.8444 -50.8363 -50.8359 -50.8330 -50.8315 -50.8297 -50.8295 -50.8239
    -7.5070  -6.8630  -5.9051  -5.5351  -5.3166  -4.6401  -4.2345  -4.1711
    -4.1214  -3.5642  -3.5229  -3.4770  -3.4242  -2.8128  -2.7070  -2.1581
    -0.8280  -0.8259  -0.8052  -0.3386

     occupation numbers 
     1.0000   1.0000   1.0000   1.0000   1.0000   1.0000   1.0000   1.0000
     1.0000   1.0000   1.0000   1.0000   1.0000   1.0000   1.0000   1.0000
     1.0000   1.0000   1.0000   1.0000   1.0000   1.0655   0.0117   0.0015
     0.0002   0.0000   0.0000   0.0000   0.0000   0.0000   0.0000   0.0000
     0.0000   0.0000   0.0000   0.0000

          k = 0.2727 0.1928 0.0000 (128182 PWs)   bands (ev):

   -51.5647 -51.5636 -51.5591 -51.5577 -51.5562 -51.5552 -51.5518 -51.5506
   -50.8438 -50.8364 -50.8360 -50.8336 -50.8314 -50.8295 -50.8292 -50.8242
    -7.4190  -6.7766  -6.0309  -5.4486  -5.4296  -5.1787  -4.6217  -4.1942
    -3.8102  -3.5838  -3.3974  -3.1356  -2.8863  -2.7176  -2.5945  -1.8015
    -1.3163  -0.9057  -0.7224  -0.6383

     occupation numbers 
     1.0000   1.0000   1.0000   1.0000   1.0000   1.0000   1.0000   1.0000
     1.0000   1.0000   1.0000   1.0000   1.0000   1.0000   1.0000   1.0000
     1.0000   1.0000   1.0000   1.0000   1.0000   1.0000   1.0763   0.0033
     0.0000   0.0000   0.0000   0.0000   0.0000   0.0000   0.0000   0.0000
     0.0000   0.0000   0.0000   0.0000

          k = 0.2727 0.2893 0.0000 (128197 PWs)   bands (ev):

   -51.5641 -51.5629 -51.5589 -51.5575 -51.5568 -51.5558 -51.5521 -51.5508
   -50.8428 -50.8364 -50.8357 -50.8347 -50.8309 -50.8297 -50.8291 -50.8248
    -7.2719  -6.6315  -6.0966  -5.6683  -5.4834  -5.3026  -5.0675  -4.2126
    -3.8442  -3.3861  -3.2626  -2.6974  -2.5912  -2.5150  -2.4073  -1.9762
    -1.7327  -1.0680  -0.9837  -0.9628

     occupation numbers 
     1.0000   1.0000   1.0000   1.0000   1.0000   1.0000   1.0000   1.0000
     1.0000   1.0000   1.0000   1.0000   1.0000   1.0000   1.0000   1.0000
     1.0000   1.0000   1.0000   1.0000   1.0000   1.0000   1.0000   0.0060
     0.0000   0.0000   0.0000   0.0000   0.0000   0.0000   0.0000   0.0000
     0.0000   0.0000   0.0000   0.0000

          k = 0.2727 0.3857 0.0000 (128238 PWs)   bands (ev):

   -51.5631 -51.5620 -51.5588 -51.5573 -51.5570 -51.5568 -51.5526 -51.5514
   -50.8415 -50.8362 -50.8360 -50.8351 -50.8302 -50.8301 -50.8293 -50.8257
    -7.0654  -6.4278  -6.1036  -6.1036  -5.4793  -5.4793  -5.0987  -4.1771
    -4.1771  -3.0775  -3.0179  -2.6410  -2.4365  -2.4365  -2.3051  -2.2172
    -2.1457  -1.5024  -1.1098  -0.9598

     occupation numbers 
     1.0000   1.0000   1.0000   1.0000   1.0000   1.0000   1.0000   1.0000
     1.0000   1.0000   1.0000   1.0000   1.0000   1.0000   1.0000   1.0000
     1.0000   1.0000   1.0000   1.0000   1.0000   1.0000   1.0000   0.0018
     0.0018   0.0000   0.0000   0.0000   0.0000   0.0000   0.0000   0.0000
     0.0000   0.0000   0.0000   0.0000

          k = 0.2727 0.4821 0.0000 (128305 PWs)   bands (ev):

   -51.5620 -51.5609 -51.5595 -51.5579 -51.5570 -51.5562 -51.5533 -51.5521
   -50.8399 -50.8377 -50.8356 -50.8344 -50.8309 -50.8296 -50.8291 -50.8269
    -6.7995  -6.4823  -6.1664  -6.0533  -5.8454  -5.4189  -4.8402  -4.5113
    -4.0884  -3.2633  -2.8537  -2.8256  -2.7598  -2.5821  -2.2552  -2.2536
    -1.8105  -1.5979  -1.4203  -1.0638

     occupation numbers 
     1.0000   1.0000   1.0000   1.0000   1.0000   1.0000   1.0000   1.0000
     1.0000   1.0000   1.0000   1.0000   1.0000   1.0000   1.0000   1.0000
     1.0000   1.0000   1.0000   1.0000   1.0000   1.0000   1.0006   0.9429
     0.0001   0.0000   0.0000   0.0000   0.0000   0.0000   0.0000   0.0000
     0.0000   0.0000   0.0000   0.0000

          k = 0.2727 0.5785 0.0000 (128369 PWs)   bands (ev):

   -51.5607 -51.5606 -51.5601 -51.5587 -51.5563 -51.5554 -51.5542 -51.5529
   -50.8393 -50.8381 -50.8349 -50.8337 -50.8317 -50.8301 -50.8283 -50.8281
    -6.8035  -6.4743  -6.1599  -5.9470  -5.8487  -5.3035  -4.8154  -4.5337
    -3.9475  -3.8303  -3.3399  -2.8067  -2.7324  -2.6187  -2.5922  -2.0473
    -1.8211  -1.4042  -1.3302  -0.7572

     occupation numbers 
     1.0000   1.0000   1.0000   1.0000   1.0000   1.0000   1.0000   1.0000
     1.0000   1.0000   1.0000   1.0000   1.0000   1.0000   1.0000   1.0000
     1.0000   1.0000   1.0000   1.0000   1.0000   1.0000   1.0013   1.0120
     0.0000   0.0000   0.0000   0.0000   0.0000   0.0000   0.0000   0.0000
     0.0000   0.0000   0.0000   0.0000

          k = 0.2727-0.3857 0.0000 (128342 PWs)   bands (ev):

   -51.5618 -51.5607 -51.5595 -51.5580 -51.5553 -51.5552 -51.5548 -51.5535
   -50.8409 -50.8363 -50.8342 -50.8330 -50.8325 -50.8306 -50.8297 -50.8270
    -7.0666  -6.4200  -6.0905  -5.7861  -5.4780  -5.1347  -5.0750  -4.3358
    -4.1928  -3.8249  -3.7559  -3.0316  -2.9592  -2.7749  -2.4463  -2.1524
    -1.8133  -1.0786  -0.9374  -0.5582

     occupation numbers 
     1.0000   1.0000   1.0000   1.0000   1.0000   1.0000   1.0000   1.0000
     1.0000   1.0000   1.0000   1.0000   1.0000   1.0000   1.0000   1.0000
     1.0000   1.0000   1.0000   1.0000   1.0000   1.0000   1.0000   0.1370
     0.0031   0.0000   0.0000   0.0000   0.0000   0.0000   0.0000   0.0000
     0.0000   0.0000   0.0000   0.0000

          k = 0.2727-0.2893 0.0000 (128388 PWs)   bands (ev):

   -51.5630 -51.5618 -51.5584 -51.5569 -51.5560 -51.5553 -51.5543 -51.5530
   -50.8423 -50.8348 -50.8342 -50.8326 -50.8323 -50.8314 -50.8306 -50.8260
    -7.2715  -6.6239  -5.6497  -5.5721  -5.2825  -5.0606  -4.9141  -4.7777
    -4.2489  -3.8493  -3.5155  -3.2919  -3.2244  -2.8375  -2.5010  -2.4113
    -1.5550  -0.8972  -0.5267  -0.3663

     occupation numbers 
     1.0000   1.0000   1.0000   1.0000   1.0000   1.0000   1.0000   1.0000
     1.0000   1.0000   1.0000   1.0000   1.0000   1.0000   1.0000   1.0000
     1.0000   1.0000   1.0000   1.0000   1.0000   1.0000   1.0000   1.0042
     0.0178   0.0000   0.0000   0.0000   0.0000   0.0000   0.0000   0.0000
     0.0000   0.0000   0.0000   0.0000

          k = 0.2727-0.1928 0.0000 (128410 PWs)   bands (ev):

   -51.5640 -51.5628 -51.5579 -51.5565 -51.5561 -51.5559 -51.5534 -51.5522
   -50.8434 -50.8350 -50.8337 -50.8324 -50.8321 -50.8316 -50.8309 -50.8251
    -7.4181  -6.7708  -5.4342  -5.3067  -5.1551  -5.1551  -4.6437  -4.6100
    -4.6099  -3.5779  -3.5778  -3.3704  -3.2293  -2.8832  -2.8831  -2.5966
    -1.2788  -0.7736  -0.7735  -0.2551

     occupation numbers 
     1.0000   1.0000   1.0000   1.0000   1.0000   1.0000   1.0000   1.0000
     1.0000   1.0000   1.0000   1.0000   1.0000   1.0000   1.0000   1.0000
     1.0000   1.0000   1.0000   1.0000   1.0000   1.0000   1.0631   1.0811
     1.0811   0.0000   0.0000   0.0000   0.0000   0.0000   0.0000   0.0000
     0.0000   0.0000   0.0000   0.0000

          k = 0.2727-0.0964 0.0000 (128288 PWs)   bands (ev):

   -51.5647 -51.5635 -51.5583 -51.5569 -51.5562 -51.5553 -51.5527 -51.5514
   -50.8441 -50.8357 -50.8343 -50.8326 -50.8315 -50.8308 -50.8307 -50.8244
    -7.5063  -6.8598  -5.5276  -5.4683  -4.9924  -4.9079  -4.6137  -4.3259
    -4.1580  -3.8126  -3.5172  -3.4631  -3.4400  -2.9016  -2.8968  -2.7079
    -1.0023  -0.9462  -0.7012  -0.2865

     occupation numbers 
     1.0000   1.0000   1.0000   1.0000   1.0000   1.0000   1.0000   1.0000
     1.0000   1.0000   1.0000   1.0000   1.0000   1.0000   1.0000   1.0000
     1.0000   1.0000   1.0000   1.0000   1.0000   1.0000   1.0798   0.1128
     0.0009   0.0000   0.0000   0.0000   0.0000   0.0000   0.0000   0.0000
     0.0000   0.0000   0.0000   0.0000

          k = 0.2727-0.0000 0.0000 (128274 PWs)   bands (ev):

   -51.5650 -51.5639 -51.5587 -51.5574 -51.5559 -51.5549 -51.5521 -51.5509
   -50.8445 -50.8361 -50.8352 -50.8328 -50.8313 -50.8303 -50.8300 -50.8240
    -7.5360  -6.8907  -5.7179  -5.5614  -5.1431  -4.6328  -4.0740  -4.0524
    -3.9941  -3.9642  -3.7285  -3.7257  -3.4990  -2.8734  -2.7447  -2.5397
    -0.7831  -0.7254  -0.7111  -0.6511

     occupation numbers 
     1.0000   1.0000   1.0000   1.0000   1.0000   1.0000   1.0000   1.0000
     1.0000   1.0000   1.0000   1.0000   1.0000   1.0000   1.0000   1.0000
     1.0000   1.0000   1.0000   1.0000   1.0000   1.0702   0.0000   0.0000
     0.0000   0.0000   0.0000   0.0000   0.0000   0.0000   0.0000   0.0000
     0.0000   0.0000   0.0000   0.0000

          k = 0.3636 0.1286 0.0000 (128143 PWs)   bands (ev):

   -51.5639 -51.5628 -51.5601 -51.5588 -51.5552 -51.5541 -51.5526 -51.5514
   -50.8429 -50.8376 -50.8354 -50.8332 -50.8315 -50.8301 -50.8286 -50.8249
    -7.3022  -6.6604  -6.3394  -5.7244  -5.3305  -4.6377  -4.4445  -4.3750
    -4.1140  -3.7328  -3.2894  -3.2771  -3.0102  -2.7208  -2.4469  -2.4339
    -1.4150  -1.2506  -0.7213  -0.1738

     occupation numbers 
     1.0000   1.0000   1.0000   1.0000   1.0000   1.0000   1.0000   1.0000
     1.0000   1.0000   1.0000   1.0000   1.0000   1.0000   1.0000   1.0000
[...]

   -51.5793 -51.5792 -51.5767 -51.5767 -51.5748 -51.5748 -51.5746 -51.5745
   -50.8637 -50.8588 -50.8586 -50.8564 -50.8563 -50.8554 -50.8551 -50.8523
    -6.9479  -6.3112  -6.0903  -5.7448  -5.4497  -5.1508  -4.9769  -4.8614
    -4.3048  -4.0880  -3.8940  -3.1660  -2.9407  -2.2339  -2.1853  -2.1028
    -2.0549  -0.9891  -0.8497  -0.7465

     occupation numbers 
     1.0000   1.0000   1.0000   1.0000   1.0000   1.0000   1.0000   1.0000
     1.0000   1.0000   1.0000   1.0000   1.0000   1.0000   1.0000   1.0000
     1.0000   1.0000   1.0000   1.0000   1.0000   1.0000   1.0000   1.0003
     0.0718   0.0001   0.0000   0.0000   0.0000   0.0000   0.0000   0.0000
     0.0000   0.0000   0.0000   0.0000

          k = 0.4545-0.1286 0.0000 (128342 PWs)   bands (ev):

   -51.5801 -51.5801 -51.5778 -51.5777 -51.5738 -51.5737 -51.5737 -51.5736
   -50.8645 -50.8601 -50.8575 -50.8573 -50.8570 -50.8548 -50.8540 -50.8514
    -7.0564  -6.4219  -6.0779  -5.7719  -5.4764  -5.1334  -5.0950  -4.3199
    -4.2061  -3.8185  -3.7733  -3.0618  -2.9595  -2.7615  -2.4678  -2.1900
    -1.8474  -1.0840  -0.9795  -0.5992

     occupation numbers 
     1.0000   1.0000   1.0000   1.0000   1.0000   1.0000   1.0000   1.0000
     1.0000   1.0000   1.0000   1.0000   1.0000   1.0000   1.0000   1.0000
     1.0000   1.0000   1.0000   1.0000   1.0000   1.0000   1.0000   0.0994
     0.0048   0.0000   0.0000   0.0000   0.0000   0.0000   0.0000   0.0000
     0.0000   0.0000   0.0000   0.0000

          k = 0.4545-0.0321 0.0000 (128335 PWs)   bands (ev):

   -51.5807 -51.5807 -51.5786 -51.5786 -51.5731 -51.5730 -51.5729 -51.5729
   -50.8651 -50.8614 -50.8580 -50.8574 -50.8564 -50.8546 -50.8529 -50.8508
    -7.1063  -6.4745  -6.3490  -5.7414  -5.3968  -5.1542  -4.7645  -4.4605
    -3.7383  -3.4500  -3.4210  -3.2957  -3.1293  -3.1067  -2.6542  -2.2514
    -1.6397  -1.3099  -0.9612  -0.4605

     occupation numbers 
     1.0000   1.0000   1.0000   1.0000   1.0000   1.0000   1.0000   1.0000
     1.0000   1.0000   1.0000   1.0000   1.0000   1.0000   1.0000   1.0000
     1.0000   1.0000   1.0000   1.0000   1.0000   1.0000   1.0061   0.7064
     0.0000   0.0000   0.0000   0.0000   0.0000   0.0000   0.0000   0.0000
     0.0000   0.0000   0.0000   0.0000

          k = 0.4545 0.0643 0.0000 (128255 PWs)   bands (ev):

   -51.5810 -51.5810 -51.5793 -51.5792 -51.5728 -51.5727 -51.5723 -51.5722
   -50.8652 -50.8625 -50.8585 -50.8577 -50.8554 -50.8548 -50.8521 -50.8504
    -7.0974  -6.5585  -6.4684  -5.9454  -5.1536  -4.9659  -4.6554  -4.3461
    -4.0115  -3.5440  -3.1415  -3.1013  -3.0531  -3.0200  -2.7919  -2.2389
    -1.6353  -1.5674  -0.7189  -0.4668

     occupation numbers 
     1.0000   1.0000   1.0000   1.0000   1.0000   1.0000   1.0000   1.0000
     1.0000   1.0000   1.0000   1.0000   1.0000   1.0000   1.0000   1.0000
     1.0000   1.0000   1.0000   1.0000   1.0000   1.0000   1.0552   0.1653
     0.0000   0.0000   0.0000   0.0000   0.0000   0.0000   0.0000   0.0000
     0.0000   0.0000   0.0000   0.0000

     the Fermi energy is    -4.4040 ev

!    total energy              =    -240.66492944 Ry
     total all-electron energy =      -240.665059 Ry
     estimated scf accuracy    <          4.4E-13 Ry

!    total charge of GC-SCF    =       1.49703282 e
     smearing contrib. (-TS)   =       0.00058507 Ry
     internal energy E=F+TS    =    -240.66551451 Ry

     The total energy is F=E-TS. E is the sum of the following terms:
     one-electron contribution =   -2384.61867708 Ry
     hartree contribution      =    1163.19496358 Ry
     xc contribution           =     -56.86201604 Ry
     ewald contribution        =    1080.12176460 Ry
     one-center paw contrib.   =       1.41181380 Ry
      -> PAW hartree energy AE =       7.35162353 Ry
      -> PAW hartree energy PS =      -7.12889281 Ry
      -> PAW xc energy AE      =      -3.47284174 Ry
      -> PAW xc energy PS      =       3.33833961 Ry
      -> total E_H with PAW    =    1163.41769430 Ry
      -> total E_XC with PAW   =     -56.99651817 Ry
     pot.stat. contrib. (-muN) =      -0.48457160 Ry
     electrostatic embedding   =      -0.70681641 Ry
     cavitation energy         =       0.01235683 Ry
     electrolyte free energy   =      -0.00989232 Ry
     correction to one-el term =     -42.72443985 Ry

     WARNING: you are using the parabolic pbc correction;
              the potential shift above must be added to 
              band and Fermi energies.

     convergence has been achieved in  13 iterations
     The dielectric solvent contribution to forces
     atom    1 type  1   force =     0.00000001    0.00000014   -0.04709424
     atom    2 type  1   force =    -0.00000000   -0.00000000   -0.02276557
     atom    3 type  1   force =     0.00000003    0.00000001    0.02276044
     atom    4 type  1   force =     0.00000000    0.00000001    0.04709444
     atom    5 type  1   force =    -0.00000001   -0.00000015   -0.04709983
     atom    6 type  1   force =     0.00000000   -0.00000000   -0.02276384
     atom    7 type  1   force =     0.00000003    0.00000002    0.02276171
     atom    8 type  1   force =     0.00000000   -0.00000001    0.04709113
     atom    9 type  1   force =     0.00000001    0.00000015   -0.04709983
     atom   10 type  1   force =     0.00000000    0.00000000   -0.02276424
     atom   11 type  1   force =    -0.00000003   -0.00000002    0.02276171
     atom   12 type  1   force =    -0.00000000    0.00000001    0.04709027
     atom   13 type  1   force =    -0.00000002   -0.00000014   -0.04709425
     atom   14 type  1   force =     0.00000000    0.00000000   -0.02276572
     atom   15 type  1   force =    -0.00000003   -0.00000001    0.02276045
     atom   16 type  1   force =    -0.00000000   -0.00000001    0.04709347
 

     Forces acting on atoms (cartesian axes, Ry/au):

     atom    1 type  1   force =     0.00000020    0.00000005   -0.00031015
     atom    2 type  1   force =     0.00000000    0.00000000   -0.00027125
     atom    3 type  1   force =    -0.00000013   -0.00000006    0.00026622
     atom    4 type  1   force =     0.00000000    0.00000000    0.00031425
     atom    5 type  1   force =    -0.00000014   -0.00000012   -0.00030967
     atom    6 type  1   force =     0.00000000    0.00000000   -0.00027074
     atom    7 type  1   force =    -0.00000006    0.00000013    0.00026642
     atom    8 type  1   force =     0.00000000    0.00000000    0.00031479
     atom    9 type  1   force =     0.00000014    0.00000012   -0.00030967
     atom   10 type  1   force =     0.00000000    0.00000000   -0.00027062
     atom   11 type  1   force =     0.00000006   -0.00000013    0.00026642
     atom   12 type  1   force =     0.00000000    0.00000000    0.00031477
     atom   13 type  1   force =    -0.00000020   -0.00000005   -0.00031015
     atom   14 type  1   force =     0.00000000    0.00000000   -0.00027079
     atom   15 type  1   force =     0.00000013    0.00000006    0.00026622
     atom   16 type  1   force =     0.00000000    0.00000000    0.00031393
     The non-local contrib.  to forces
     atom    1 type  1   force =    -0.00000001    0.00000076   -0.08756990
     atom    2 type  1   force =     0.00000000    0.00000000    0.00389408
     atom    3 type  1   force =     0.00000007   -0.00000036   -0.00389840
     atom    4 type  1   force =     0.00000000    0.00000000    0.08756573
     atom    5 type  1   force =     0.00000042   -0.00000053   -0.08756232
     atom    6 type  1   force =     0.00000000    0.00000000    0.00389105
     atom    7 type  1   force =    -0.00000012   -0.00000006   -0.00389997
     atom    8 type  1   force =     0.00000000    0.00000000    0.08757074
     atom    9 type  1   force =    -0.00000042    0.00000053   -0.08756232
     atom   10 type  1   force =     0.00000000    0.00000000    0.00389204
     atom   11 type  1   force =     0.00000012    0.00000006   -0.00389997
     atom   12 type  1   force =     0.00000000    0.00000000    0.08757178
     atom   13 type  1   force =     0.00000001   -0.00000076   -0.08756990
     atom   14 type  1   force =     0.00000000    0.00000000    0.00389437
     atom   15 type  1   force =    -0.00000007    0.00000036   -0.00389840
     atom   16 type  1   force =     0.00000000    0.00000000    0.08756677
     The ionic contribution  to forces
     atom    1 type  1   force =     0.00000385    0.00000481   -9.01405316
     atom    2 type  1   force =    -0.00000006   -0.00000006   -3.01157875
     atom    3 type  1   force =    -0.00000261   -0.00000206    3.01133484
     atom    4 type  1   force =    -0.00000005   -0.00000011    9.01379031
     atom    5 type  1   force =     0.00000034   -0.00000425   -9.01372741
     atom    6 type  1   force =     0.00000006    0.00000007   -3.01130540
     atom    7 type  1   force =    -0.00000163    0.00000301    3.01153379
     atom    8 type  1   force =     0.00000004    0.00000012    9.01398716
     atom    9 type  1   force =    -0.00000037    0.00000423   -9.01372721
     atom   10 type  1   force =    -0.00000001   -0.00000005   -3.01135563
     atom   11 type  1   force =     0.00000159   -0.00000304    3.01153388
     atom   12 type  1   force =    -0.00000001   -0.00000011    9.01403976
     atom   13 type  1   force =    -0.00000387   -0.00000482   -9.01405333
     atom   14 type  1   force =     0.00000011    0.00000009   -3.01159723
     atom   15 type  1   force =     0.00000256    0.00000203    3.01133473
     atom   16 type  1   force =     0.00000007    0.00000013    9.01384362
     The local contribution  to forces
     atom    1 type  1   force =     0.00005194   -0.00001620    9.14840410
     atom    2 type  1   force =     0.00005791   -0.00002187    3.03018837
     atom    3 type  1   force =     0.00005822   -0.00000737   -3.02994081
     atom    4 type  1   force =     0.00005734   -0.00002302   -9.14813402
     atom    5 type  1   force =     0.00005469   -0.00000571    9.14807940
     atom    6 type  1   force =     0.00010286   -0.00001644    3.02991684
     atom    7 type  1   force =     0.00005751   -0.00001252   -3.03013783
     atom    8 type  1   force =     0.00010405   -0.00001409   -9.14833201
     atom    9 type  1   force =     0.00005651   -0.00001535    9.14807577
     atom   10 type  1   force =     0.00005867   -0.00002129    3.02996658
     atom   11 type  1   force =     0.00005425   -0.00000683   -3.03013904
     atom   12 type  1   force =     0.00005810   -0.00002244   -9.14838477
     atom   13 type  1   force =     0.00005926   -0.00000486    9.14840592
     atom   14 type  1   force =     0.00010362   -0.00001586    3.03020718
     atom   15 type  1   force =     0.00005353   -0.00001198   -3.02993899
     atom   16 type  1   force =     0.00010481   -0.00001293   -9.14818776
     The core correction contribution to forces
     atom    1 type  1   force =     0.00000000    0.00000000    0.00000000
     atom    2 type  1   force =     0.00000000    0.00000000    0.00000000
     atom    3 type  1   force =     0.00000000    0.00000000    0.00000000
     atom    4 type  1   force =     0.00000000    0.00000000    0.00000000
     atom    5 type  1   force =     0.00000000    0.00000000    0.00000000
     atom    6 type  1   force =     0.00000000    0.00000000    0.00000000
     atom    7 type  1   force =     0.00000000    0.00000000    0.00000000
     atom    8 type  1   force =     0.00000000    0.00000000    0.00000000
     atom    9 type  1   force =     0.00000000    0.00000000    0.00000000
     atom   10 type  1   force =     0.00000000    0.00000000    0.00000000
     atom   11 type  1   force =     0.00000000    0.00000000    0.00000000
     atom   12 type  1   force =     0.00000000    0.00000000    0.00000000
     atom   13 type  1   force =     0.00000000    0.00000000    0.00000000
     atom   14 type  1   force =     0.00000000    0.00000000    0.00000000
     atom   15 type  1   force =     0.00000000    0.00000000    0.00000000
     atom   16 type  1   force =     0.00000000    0.00000000    0.00000000
     The Hubbard contrib.    to forces
     atom    1 type  1   force =     0.00000000    0.00000000    0.00000000
     atom    2 type  1   force =     0.00000000    0.00000000    0.00000000
     atom    3 type  1   force =     0.00000000    0.00000000    0.00000000
     atom    4 type  1   force =     0.00000000    0.00000000    0.00000000
     atom    5 type  1   force =     0.00000000    0.00000000    0.00000000
     atom    6 type  1   force =     0.00000000    0.00000000    0.00000000
     atom    7 type  1   force =     0.00000000    0.00000000    0.00000000
     atom    8 type  1   force =     0.00000000    0.00000000    0.00000000
     atom    9 type  1   force =     0.00000000    0.00000000    0.00000000
     atom   10 type  1   force =     0.00000000    0.00000000    0.00000000
     atom   11 type  1   force =     0.00000000    0.00000000    0.00000000
     atom   12 type  1   force =     0.00000000    0.00000000    0.00000000
     atom   13 type  1   force =     0.00000000    0.00000000    0.00000000
     atom   14 type  1   force =     0.00000000    0.00000000    0.00000000
     atom   15 type  1   force =     0.00000000    0.00000000    0.00000000
     atom   16 type  1   force =     0.00000000    0.00000000    0.00000000
     The SCF correction term to forces
     atom    1 type  1   force =    -0.00000000    0.00000000    0.00000217
     atom    2 type  1   force =    -0.00000000   -0.00000000   -0.00000944
     atom    3 type  1   force =     0.00000002    0.00000002    0.00000923
     atom    4 type  1   force =    -0.00000000   -0.00000000   -0.00000227
     atom    5 type  1   force =    -0.00000000   -0.00000001    0.00000215
     atom    6 type  1   force =     0.00000000   -0.00000000   -0.00000944
     atom    7 type  1   force =     0.00000002   -0.00000001    0.00000923
     atom    8 type  1   force =     0.00000000   -0.00000000   -0.00000228
     atom    9 type  1   force =     0.00000000    0.00000001    0.00000215
     atom   10 type  1   force =     0.00000000   -0.00000000   -0.00000943
     atom   11 type  1   force =    -0.00000002    0.00000001    0.00000923
     atom   12 type  1   force =     0.00000000   -0.00000000   -0.00000232
     atom   13 type  1   force =     0.00000000   -0.00000000    0.00000217
     atom   14 type  1   force =     0.00000000   -0.00000000   -0.00000945
     atom   15 type  1   force =    -0.00000002   -0.00000002    0.00000923
     atom   16 type  1   force =     0.00000000   -0.00000000   -0.00000223

     Total force =     0.001165     Total SCF correction =     0.000027
     Energy error            =      8.2E-06 Ry
     Gradient error          =      3.1E-04 Ry/Bohr

     bfgs converged in  25 scf cycles and  17 bfgs steps
     (criteria: energy <  1.0E-05 Ry, force <  3.9E-04 Ry/Bohr)

     End of BFGS Geometry Optimization

     Final energy             =    -240.6649294352 Ry

     File ./Li/Lithium.bfgs deleted, as requested
Begin final coordinates

ATOMIC_POSITIONS (angstrom)
Li               0.9916243401        1.4024021101       19.9743621015
Li               1.9832882700        2.8047934300       22.3252321855
Li               0.9916489799        1.4023791596       24.8047401703
Li               1.9832882800        2.8047934500       27.1554219372
Li               0.0000167510        4.2072024201       19.9745268804
Li               0.9916443500        5.6095863900       22.3253382956
Li              -0.0000023106        4.2071689778       24.8048170396
Li               0.9916443300        5.6095863500       27.1555200234
Li               3.9665598690        1.4023840499       19.9745269404
Li               4.9582206700        2.8047934200       22.3253195208
Li               3.9665789206        1.4024174622       24.8048170596
Li               4.9582206800        2.8047934400       27.1555464683
Li               2.9749522799        4.2071843599       19.9743620715
Li               3.9665767500        5.6095863800       22.3252215176
Li               2.9749276301        4.2072072804       24.8047401403
Li               3.9665767300        5.6095863300       27.1554517046
End final coordinates



     Writing all to output data dir ./Li/Lithium.save/ :
     XML data file
     init_run     :      4.25s CPU      4.89s WALL (       1 calls)
     electrons    :   2999.25s CPU   3033.03s WALL (      25 calls)
     update_pot   :      1.88s CPU      1.95s WALL (      24 calls)
     forces       :    107.62s CPU    108.07s WALL (      25 calls)

     Called by init_run:
     wfcinit      :      1.21s CPU      1.29s WALL (       1 calls)
     wfcinit:wfcr :      1.15s CPU      1.22s WALL (      31 calls)
     potinit      :      0.10s CPU      0.16s WALL (       1 calls)
     hinit0       :      1.07s CPU      1.43s WALL (       1 calls)

     Called by electrons:
     c_bands      :   1923.88s CPU   1949.79s WALL (     362 calls)
     sum_band     :    215.34s CPU    217.24s WALL (     362 calls)
     v_of_rho     :     17.74s CPU     17.99s WALL (     363 calls)
     v_h          :      1.46s CPU      1.47s WALL (     363 calls)
     v_xc         :     16.28s CPU     16.52s WALL (     363 calls)
     newd         :      8.06s CPU      8.17s WALL (     363 calls)
     PAW_pot      :      7.40s CPU      7.48s WALL (     387 calls)
     mix_rho      :     40.00s CPU     40.26s WALL (     362 calls)

     Called by c_bands:
     init_us_2    :     20.29s CPU     21.19s WALL (   23994 calls)
     cegterg      :   1799.19s CPU   1814.11s WALL (   11918 calls)

     Called by sum_band:
     sum_band:wei :      1.40s CPU      1.41s WALL (     362 calls)
     sum_band:loo :    199.35s CPU    201.10s WALL (     362 calls)
     sum_band:buf :      2.12s CPU      2.15s WALL (   11222 calls)
     sum_band:ini :      9.66s CPU      9.75s WALL (   11222 calls)
     sum_band:cal :     18.61s CPU     18.85s WALL (   11966 calls)
     sum_band:bec :      0.69s CPU      0.70s WALL (   11966 calls)
     addusdens    :      3.44s CPU      3.49s WALL (     362 calls)
                                        0.00s GPU  (     362 calls)
     addusd:skk   :      0.42s CPU      0.43s WALL (     362 calls)
                                        0.00s GPU  (     362 calls)

     Called by *egterg:
     cdiaghg      :    277.75s CPU    279.23s WALL (  101413 calls)
     cegterg:over :    115.55s CPU    116.85s WALL (   91144 calls)
     cegterg:upda :     54.36s CPU     54.82s WALL (   91144 calls)
     cegterg:last :      9.93s CPU     10.00s WALL (   13590 calls)
     h_psi        :   1254.71s CPU   1266.06s WALL (  103093 calls)
     s_psi        :     35.40s CPU     35.85s WALL (  103093 calls)
     g_psi        :      2.42s CPU      2.45s WALL (   91144 calls)

     Called by h_psi:
     h_psi:calbec :     87.51s CPU     88.62s WALL (  103093 calls)
     vloc_psi     :   1120.01s CPU   1129.91s WALL (  103093 calls)
                                        0.00s GPU  (  103093 calls)
     add_vuspsi   :     42.33s CPU     42.73s WALL (  103093 calls)

     General routines
     calbec       :    110.16s CPU    111.65s WALL (  118159 calls)
     fft          :     16.62s CPU     16.99s WALL (    4767 calls)
     ffts         :     21.25s CPU     21.40s WALL (   39224 calls)
     fftw         :   1226.41s CPU   1237.28s WALL ( 3249098 calls)
     interpolate  :      1.29s CPU      1.30s WALL (     363 calls)
 
     Parallel routines

     PAW routines
     PAW_pot      :      7.40s CPU      7.48s WALL (     387 calls)
     PAW_symme    :      0.10s CPU      0.10s WALL (     749 calls)
 
     Environ routines
 
     PWSCF        :  53m21.08s CPU  54m 2.27s WALL

 
   This run was terminated on:  13:32:21   6Jan2025            

=------------------------------------------------------------------------------=
   JOB DONE.
=------------------------------------------------------------------------------=
