
     Program PWSCF v.7.4 starts on 28Dec2024 at 11:23:19 

     This program is part of the open-source Quantum ESPRESSO suite
     for quantum simulation of materials; please cite
         "P. Giannozzi et al., J. Phys.:Condens. Matter 21 395502 (2009);
         "P. Giannozzi et al., J. Phys.:Condens. Matter 29 465901 (2017);
         "P. Giannozzi et al., J. Chem. Phys. 152 154105 (2020);
          URL http://www.quantum-espresso.org", 
     in publications or presentations arising from this work. More details at
     http://www.quantum-espresso.org/quote

     Parallel version (MPI & OpenMP), running on     192 processor cores
     Number of MPI processes:               192
     Threads/MPI process:                     1

     MPI processes distributed on     1 nodes
     658362 MiB available memory on the printing compute node when the environment starts
 
     Reading input from espresso.pwi
Warning: card &CELL ignored
Warning: card    PRESS_CONV_THR   = 0.1 ignored
Warning: card    CELL_DOFREE      = 'ALL' ignored
Warning: card / ignored
Warning: card &FCP ignored
Warning: card / ignored
Warning: card &RISM ignored
Warning: card / ignored

     Current dimensions of program PWSCF are:
     Max number of different atomic species (ntypx) = 10
     Max number of k-points (npk) =  40000
     Max angular momentum in pseudopotentials (lmaxx) =  4

     IMPORTANT: XC functional enforced from input :
     Exchange-correlation= PBE
                           (   1   4   3   4   0   0   0)
     Any further DFT definition will be discarded
     Please, verify this is what you really want

 
     Reading input from environ.in:
     * using ionic solvent mode
     * setting boundary derivatives method to SSCS default
     * setting electrolyte-boundary derivatives method to SSCS default

Environ Warning (1001): card EOF ignored

     
 
     R & G space division:  proc/nbgrp/npool/nimage =     192
     Subspace diagonalization in iterative solution of the eigenvalue problem:
     one sub-group per band group will be used
     ELPA distributed-memory algorithm (size of sub-group:  2*  2 procs)

 
     Parallelization info
     --------------------
     sticks:   dense  smooth     PW     G-vecs:    dense   smooth      PW
     Min         115      46     12                70063    17712    2372
     Max         116      47     13                70104    17738    2406
     Sum       22119    8865   2329             13455463  3404289  459339
 
     Using Slab Decomposition
 


     bravais-lattice index     =           12
     lattice parameter (alat)  =      18.3607  a.u.
     unit-cell volume          =   35212.2539 (a.u.)^3
     number of atoms/cell      =           68
     number of atomic types    =            1
     number of electrons       =       204.00
     number of Kohn-Sham states=          153
     kinetic-energy cutoff     =      80.0000  Ry
     charge density cutoff     =     800.0000  Ry
     scf convergence threshold =      1.0E-14
     mixing beta               =       0.2000
     number of iterations used =            8  local-TF  mixing
     Exchange-correlation= PBE
                           (   1   4   3   4   0   0   0)

     ================================================================================
 
                                  Environ Setup Summary

     ================================================================================
 
     Please cite

          O. Andreussi, I. Dabo and N. Marzari, J. Chem. Phys. 136, 064102 (2012)
          F. Nattino, M. Truscott, N. Marzari, and O. Andreussi, J. Chem. Phys. 150, 041722 (2019)

     in publications or presentations arising from this work.

     ================================================================================
 
     Parameters
     ==========

     compensation onset threshold      =               0.1000E+00
     static permittivity               =                    89.90
     surface tension in input (dyn/cm) =                    37.30
     surface tension in internal units =               0.4792E-04

     Solvent Boundary
     ================

     solvent mode                      =                    ionic
     derivatives method                =                   lowmem
     electrolyte derivatives method    =                   lowmem
     numerical core for derivatives    =                      fft
     switching function adopted        =                     SCCS
     density limit for vacuum region   =               0.5000E-02
     density limit for bulk solvent    =               0.1000E-03
     soft-sphere radius mode           =                    bondi
     soft-sphere softness              =                     0.50
     alpha                             =                     1.32

     Electrostatic Setup
     ===================

     electrostatic problem to solve    =                    modpb
     numerical solver adopted          =                   newton
     type of auxiliary density adopted =                     none
     numerical core for poisson        =                      fft
     adopting a nested solver scheme
     inner solver                      =                       cg
     inner core                        =                      fft
     type of pbc corrections           =                parabolic
     numerical core for corrections    =                      1da

     ================================================================================
 

     celldm(1)=  18.360747  celldm(2)=   1.060660  celldm(3)=   5.518976
     celldm(4)=  -0.235702  celldm(5)=   0.000000  celldm(6)=   0.000000

     crystal axes: (cart. coord. in units of alat)
               a(1) = (   1.000000   0.000000   0.000000 )  
               a(2) = (  -0.250000   1.030776   0.000000 )  
               a(3) = (   0.000000   0.000000   5.518976 )  

     reciprocal axes: (cart. coord. in units 2 pi/alat)
               b(1) = (  1.000000  0.242536  0.000000 )  
               b(2) = (  0.000000  0.970143  0.000000 )  
               b(3) = (  0.000000  0.000000  0.181193 )  


     PseudoPot. # 1 for Li read from file:
     /home/ba3g18/Repos/Pseudopotentials/pslibrary.1.0.0/pbe/PSEUDOPOTENTIALS/Li.pbe-sl-kjpaw_psl.1.0.0.UPF
     MD5 check sum: 3f4d2cafebb47c6c3aa8ed472e6f074d
     Pseudo is Projector augmented-wave, Zval =  3.0
     Generated using 'atomic' code by A. Dal Corso  v.7.4
     Shape of augmentation charge: PSQ
     Using radial grid of 1017 points,  4 beta functions with: 
                l(1) =   0
                l(2) =   0
                l(3) =   1
                l(4) =   1
     Q(r) pseudized with 0 coefficients 


     atomic species   valence    mass     pseudopotential
     Li                3.00     6.94000     Li( 1.00)

     No symmetry found


                                    s                        frac. trans.

      isym =  1     identity                                     

 cryst.   s( 1) = (     1          0          0      )
                  (     0          1          0      )
                  (     0          0          1      )

 cart.    s( 1) = (  1.0000000  0.0000000  0.0000000 )
                  (  0.0000000  1.0000000  0.0000000 )
                  (  0.0000000  0.0000000  1.0000000 )


     point group C_1 (1)    
     there are  1 classes
     the character table:

       E    
A      1.00

     the symmetry operations in each class and the name of the first element:

     E        1
          identity                                               

   Cartesian axes

     site n.     atom                  positions (alat units)
         1        Li     tau(   1) = (  -0.0004017   0.0300770   2.0584414  )
         2        Li     tau(   2) = (   0.0002449   0.6032534   3.4218061  )
         3        Li     tau(   3) = (   0.2502699   0.7869870   3.2583512  )
         4        Li     tau(   4) = (   0.2503983   0.1911563   3.3004816  )
         5        Li     tau(   5) = (   0.0002587   0.3637194   3.1697971  )
         6        Li     tau(   6) = (   0.2501708   0.5502018   2.9940177  )
         7        Li     tau(   7) = (   0.2499217   0.9087355   2.6503438  )
         8        Li     tau(   8) = (   0.0002693   0.9695899   3.0900634  )
         9        Li     tau(   9) = (   0.0001382   0.1212516   2.9091667  )
        10        Li     tau(  10) = (   0.2499489   0.3060460   2.7264373  )
        11        Li     tau(  11) = (  -0.0001923   0.4832752   2.5664661  )
        12        Li     tau(  12) = (   0.2497917   0.6637477   2.3878715  )
        13        Li     tau(  13) = (   0.0000523   0.7266584   2.8276468  )
        14        Li     tau(  14) = (   0.2498089   0.0552256   2.5005611  )
        15        Li     tau(  15) = (  -0.0003566   0.2455258   2.3092014  )
        16        Li     tau(  16) = (   0.2497353   0.4016367   2.1268898  )
        17        Li     tau(  17) = (  -0.0002679   0.8516772   2.2288662  )
        18        Li     tau(  18) = (   0.0003498   0.0576452   3.2097732  )
        19        Li     tau(  19) = (   0.0002091   0.6701979   3.1311048  )
        20        Li     tau(  20) = (   0.2501921   0.8506704   2.9525104  )
        21        Li     tau(  21) = (   0.2501906   0.2479424   3.0184202  )
        22        Li     tau(  22) = (   0.0000774   0.4252102   2.8686327  )
        23        Li     tau(  23) = (   0.2499479   0.6072872   2.6913289  )
        24        Li     tau(  24) = (   0.2497408   0.9702262   2.3491797  )
        25        Li     tau(  25) = (   0.0000509   1.0278992   2.7925423  )
        26        Li     tau(  26) = (  -0.0001414   0.1819182   2.6098070  )
        27        Li     tau(  27) = (   0.2497311   0.3643549   2.4289148  )
        28        Li     tau(  28) = (  -0.0002689   0.5469597   2.2606257  )
        29        Li     tau(  29) = (   0.2497551   0.7306898   2.0971695  )
        30        Li     tau(  30) = (  -0.0001711   0.7837431   2.5249574  )
        31        Li     tau(  31) = (   0.2496021   0.1120146   2.2185037  )
        32        Li     tau(  32) = (   0.0004329   0.2730980   3.4605343  )
        33        Li     tau(  33) = (   0.2502684   0.4822693   3.2901087  )
        34        Li     tau(  34) = (   0.0002633   0.9323053   3.3920865  )
        35        Li     tau(  35) = (   0.4995561   0.0300694   2.0584422  )
        36        Li     tau(  36) = (   0.5002494   0.6032496   3.4218109  )
        37        Li     tau(  37) = (   0.7502760   0.7869886   3.2583507  )
        38        Li     tau(  38) = (   0.7503988   0.1911586   3.3004971  )
        39        Li     tau(  39) = (   0.5002569   0.3637188   3.1697962  )
        40        Li     tau(  40) = (   0.7501676   0.5502023   2.9940128  )
        41        Li     tau(  41) = (   0.7499250   0.9087373   2.6503447  )
        42        Li     tau(  42) = (   0.5002686   0.9695920   3.0900560  )
        43        Li     tau(  43) = (   0.5001413   0.1212517   2.9091694  )
        44        Li     tau(  44) = (   0.7499506   0.3060468   2.7264417  )
        45        Li     tau(  45) = (   0.4998062   0.4832749   2.5664653  )
        46        Li     tau(  46) = (   0.7497886   0.6637447   2.3878641  )
        47        Li     tau(  47) = (   0.5000536   0.7266586   2.8276525  )
        48        Li     tau(  48) = (   0.7498077   0.0552296   2.5005424  )
        49        Li     tau(  49) = (   0.4996529   0.2455239   2.3092026  )
        50        Li     tau(  50) = (   0.7497394   0.4016535   2.1268987  )
        51        Li     tau(  51) = (   0.4997312   0.8516744   2.2288748  )
        52        Li     tau(  52) = (   0.5003546   0.0576443   3.2097749  )
        53        Li     tau(  53) = (   0.5002104   0.6702010   3.1311119  )
        54        Li     tau(  54) = (   0.7501941   0.8506715   2.9525103  )
        55        Li     tau(  55) = (   0.7501920   0.2479425   3.0184283  )
        56        Li     tau(  56) = (   0.5000755   0.4252089   2.8686311  )
        57        Li     tau(  57) = (   0.7499464   0.6072877   2.6913241  )
        58        Li     tau(  58) = (   0.7497431   0.9702272   2.3491792  )
        59        Li     tau(  59) = (   0.5000490   1.0279003   2.7925309  )
        60        Li     tau(  60) = (   0.4998612   0.1819184   2.6098094  )
        61        Li     tau(  61) = (   0.7497315   0.3643548   2.4289180  )
        62        Li     tau(  62) = (   0.4997231   0.5469562   2.2606246  )
        63        Li     tau(  63) = (   0.7497499   0.7306985   2.0971656  )
        64        Li     tau(  64) = (   0.4998323   0.7837446   2.5249645  )
        65        Li     tau(  65) = (   0.7496017   0.1120099   2.2184694  )
        66        Li     tau(  66) = (   0.5004134   0.2730944   3.4605340  )
        67        Li     tau(  67) = (   0.7502676   0.4822704   3.2901027  )
        68        Li     tau(  68) = (   0.5002624   0.9322958   3.3920772  )

   Crystallographic axes

     site n.     atom                  positions (cryst. coord.)
         1        Li     tau(   1) = (  0.0068931  0.0291790  0.3729753  )
         2        Li     tau(   2) = (  0.1465555  0.5852420  0.6200075  )
         3        Li     tau(   3) = (  0.4411423  0.7634899  0.5903906  )
         4        Li     tau(   4) = (  0.2967605  0.1854489  0.5980243  )
         5        Li     tau(   5) = (  0.0884737  0.3528598  0.5743452  )
         6        Li     tau(   6) = (  0.3836144  0.5337744  0.5424952  )
         7        Li     tau(   7) = (  0.4703225  0.8816033  0.4802239  )
         8        Li     tau(   8) = (  0.2354295  0.9406407  0.5598980  )
         9        Li     tau(   9) = (  0.0295460  0.1176314  0.5271208  )
        10        Li     tau(  10) = (  0.3241759  0.2969084  0.4940115  )
        11        Li     tau(  11) = (  0.1170192  0.4688460  0.4650258  )
        12        Li     tau(  12) = (  0.4107742  0.6439301  0.4326657  )
        13        Li     tau(  13) = (  0.1762930  0.7049625  0.5123499  )
        14        Li     tau(  14) = (  0.2632031  0.0535767  0.4530843  )
        15        Li     tau(  15) = (  0.0591922  0.2381951  0.4184112  )
        16        Li     tau(  16) = (  0.3471465  0.3896450  0.3853776  )
        17        Li     tau(  17) = (  0.2062942  0.8262486  0.4038550  )
        18        Li     tau(  18) = (  0.0143309  0.0559241  0.5815886  )
        19        Li     tau(  19) = (  0.1627560  0.6501877  0.5673344  )
        20        Li     tau(  20) = (  0.4565101  0.8252718  0.5349743  )
        21        Li     tau(  21) = (  0.3103254  0.2405396  0.5469167  )
        22        Li     tau(  22) = (  0.1032061  0.4125147  0.5197763  )
        23        Li     tau(  23) = (  0.3972367  0.5891554  0.4876501  )
        24        Li     tau(  24) = (  0.4850553  0.9412580  0.4256550  )
        25        Li     tau(  25) = (  0.2493532  0.9972091  0.5059892  )
        26        Li     tau(  26) = (  0.0439802  0.1764866  0.4728789  )
        27        Li     tau(  27) = (  0.3381002  0.3534763  0.4401025  )
        28        Li     tau(  28) = (  0.1323884  0.5306291  0.4096096  )
        29        Li     tau(  29) = (  0.4269734  0.7088735  0.3799925  )
        30        Li     tau(  30) = (  0.1899146  0.7603428  0.4575047  )
        31        Li     tau(  31) = (  0.2767697  0.1086702  0.4019774  )
        32        Li     tau(  32) = (  0.0666689  0.2649441  0.6270247  )
        33        Li     tau(  33) = (  0.3672360  0.4678702  0.5961448  )
        34        Li     tau(  34) = (  0.2263806  0.9044693  0.6146225  )
        35        Li     tau(  35) = (  0.5068490  0.0291716  0.3729754  )
        36        Li     tau(  36) = (  0.6465590  0.5852383  0.6200083  )
        37        Li     tau(  37) = (  0.9411488  0.7634914  0.5903905  )
        38        Li     tau(  38) = (  0.7967616  0.1854512  0.5980271  )
        39        Li     tau(  39) = (  0.5884717  0.3528592  0.5743450  )
        40        Li     tau(  40) = (  0.8836113  0.5337748  0.5424943  )
        41        Li     tau(  41) = (  0.9703262  0.8816050  0.4802240  )
        42        Li     tau(  42) = (  0.7354293  0.9406428  0.5598966  )
        43        Li     tau(  43) = (  0.5295491  0.1176314  0.5271213  )
        44        Li     tau(  44) = (  0.8241779  0.2969092  0.4940123  )
        45        Li     tau(  45) = (  0.6170176  0.4688457  0.4650257  )
        46        Li     tau(  46) = (  0.9107705  0.6439272  0.4326644  )
        47        Li     tau(  47) = (  0.6762943  0.7049626  0.5123510  )
        48        Li     tau(  48) = (  0.7632029  0.0535806  0.4530809  )
        49        Li     tau(  49) = (  0.5592012  0.2381933  0.4184114  )
        50        Li     tau(  50) = (  0.8471547  0.3896612  0.3853792  )
        51        Li     tau(  51) = (  0.7062927  0.8262459  0.4038566  )
        52        Li     tau(  52) = (  0.5143354  0.0559232  0.5815889  )
        53        Li     tau(  53) = (  0.6627581  0.6501908  0.5673357  )
        54        Li     tau(  54) = (  0.9565124  0.8252729  0.5349743  )
        55        Li     tau(  55) = (  0.8103269  0.2405396  0.5469182  )
        56        Li     tau(  56) = (  0.6032038  0.4125134  0.5197760  )
        57        Li     tau(  57) = (  0.8972353  0.5891558  0.4876492  )
        58        Li     tau(  58) = (  0.9850578  0.9412590  0.4256549  )
        59        Li     tau(  59) = (  0.7493516  0.9972101  0.5059872  )
        60        Li     tau(  60) = (  0.5439830  0.1764868  0.4728793  )
        61        Li     tau(  61) = (  0.8381005  0.3534762  0.4401030  )
        62        Li     tau(  62) = (  0.6323795  0.5306257  0.4096094  )
        63        Li     tau(  63) = (  0.9269704  0.7088819  0.3799918  )
        64        Li     tau(  64) = (  0.6899184  0.7603442  0.4575060  )
        65        Li     tau(  65) = (  0.7767681  0.1086656  0.4019712  )
        66        Li     tau(  66) = (  0.5666485  0.2649406  0.6270247  )
        67        Li     tau(  67) = (  0.8672354  0.4678712  0.5961437  )
        68        Li     tau(  68) = (  0.7263774  0.9044601  0.6146208  )

     number of k points=    25  Marzari-Vanderbilt smearing, width (Ry)=  0.0100
                       cart. coord. in units 2pi/alat
        k(    1) = (   0.0000000   0.0000000   0.0000000), wk =   0.0408163
        k(    2) = (   0.0000000   0.1385918   0.0000000), wk =   0.0816327
        k(    3) = (   0.0000000   0.2771837   0.0000000), wk =   0.0816327
        k(    4) = (   0.0000000   0.4157755   0.0000000), wk =   0.0816327
        k(    5) = (   0.1428571   0.0346480   0.0000000), wk =   0.0816327
        k(    6) = (   0.1428571   0.1732398   0.0000000), wk =   0.0816327
        k(    7) = (   0.1428571   0.3118316   0.0000000), wk =   0.0816327
        k(    8) = (   0.1428571   0.4504235   0.0000000), wk =   0.0816327
        k(    9) = (   0.1428571  -0.3811276   0.0000000), wk =   0.0816327
        k(   10) = (   0.1428571  -0.2425357   0.0000000), wk =   0.0816327
        k(   11) = (   0.1428571  -0.1039439   0.0000000), wk =   0.0816327
        k(   12) = (   0.2857143   0.0692959   0.0000000), wk =   0.0816327
        k(   13) = (   0.2857143   0.2078878   0.0000000), wk =   0.0816327
        k(   14) = (   0.2857143   0.3464796   0.0000000), wk =   0.0816327
        k(   15) = (   0.2857143   0.4850714   0.0000000), wk =   0.0816327
        k(   16) = (   0.2857143  -0.3464796   0.0000000), wk =   0.0816327
        k(   17) = (   0.2857143  -0.2078878   0.0000000), wk =   0.0816327
        k(   18) = (   0.2857143  -0.0692959   0.0000000), wk =   0.0816327
        k(   19) = (   0.4285714   0.1039439   0.0000000), wk =   0.0816327
        k(   20) = (   0.4285714   0.2425357   0.0000000), wk =   0.0816327
        k(   21) = (   0.4285714   0.3811276   0.0000000), wk =   0.0816327
        k(   22) = (   0.4285714   0.5197194   0.0000000), wk =   0.0816327
        k(   23) = (   0.4285714  -0.3118316   0.0000000), wk =   0.0816327
        k(   24) = (   0.4285714  -0.1732398   0.0000000), wk =   0.0816327
        k(   25) = (   0.4285714  -0.0346480   0.0000000), wk =   0.0816327

                       cryst. coord.
        k(    1) = (   0.0000000   0.0000000   0.0000000), wk =   0.0408163
        k(    2) = (   0.0000000   0.1428571   0.0000000), wk =   0.0816327
        k(    3) = (   0.0000000   0.2857143   0.0000000), wk =   0.0816327
        k(    4) = (   0.0000000   0.4285714   0.0000000), wk =   0.0816327
        k(    5) = (   0.1428571  -0.0000000   0.0000000), wk =   0.0816327
        k(    6) = (   0.1428571   0.1428571   0.0000000), wk =   0.0816327
        k(    7) = (   0.1428571   0.2857143   0.0000000), wk =   0.0816327
        k(    8) = (   0.1428571   0.4285714   0.0000000), wk =   0.0816327
        k(    9) = (   0.1428571  -0.4285714   0.0000000), wk =   0.0816327
        k(   10) = (   0.1428571  -0.2857143   0.0000000), wk =   0.0816327
        k(   11) = (   0.1428571  -0.1428571   0.0000000), wk =   0.0816327
        k(   12) = (   0.2857143  -0.0000000   0.0000000), wk =   0.0816327
        k(   13) = (   0.2857143   0.1428571   0.0000000), wk =   0.0816327
        k(   14) = (   0.2857143   0.2857143   0.0000000), wk =   0.0816327
        k(   15) = (   0.2857143   0.4285714   0.0000000), wk =   0.0816327
        k(   16) = (   0.2857143  -0.4285714   0.0000000), wk =   0.0816327
        k(   17) = (   0.2857143  -0.2857143   0.0000000), wk =   0.0816327
        k(   18) = (   0.2857143  -0.1428571   0.0000000), wk =   0.0816327
        k(   19) = (   0.4285714  -0.0000000   0.0000000), wk =   0.0816327
        k(   20) = (   0.4285714   0.1428571   0.0000000), wk =   0.0816327
        k(   21) = (   0.4285714   0.2857143   0.0000000), wk =   0.0816327
        k(   22) = (   0.4285714   0.4285714   0.0000000), wk =   0.0816327
        k(   23) = (   0.4285714  -0.4285714   0.0000000), wk =   0.0816327
        k(   24) = (   0.4285714  -0.2857143   0.0000000), wk =   0.0816327
        k(   25) = (   0.4285714  -0.1428571   0.0000000), wk =   0.0816327

     Dense  grid: 13455463 G-vectors     FFT dimensions: ( 180, 180, 960)

     Smooth grid:  3404289 G-vectors     FFT dimensions: ( 108, 120, 600)

     Dynamical RAM for                 wfc:       5.17 MB

     Dynamical RAM for     wfc (w. buffer):     134.51 MB

     Dynamical RAM for           str. fact:       1.07 MB

     Dynamical RAM for           local pot:       0.00 MB

     Dynamical RAM for          nlocal pot:      18.39 MB

     Dynamical RAM for                qrad:       0.65 MB

     Dynamical RAM for          rho,v,vnew:       6.92 MB

     Dynamical RAM for               rhoin:       2.31 MB

     Dynamical RAM for            rho*nmix:      17.11 MB

     Dynamical RAM for           G-vectors:       4.15 MB

     Dynamical RAM for          h,s,v(r/c):       1.07 MB

     Dynamical RAM for          <psi|beta>:       1.27 MB

     Dynamical RAM for                 psi:      10.35 MB

     Dynamical RAM for                hpsi:      10.35 MB

     Dynamical RAM for                spsi:      10.35 MB

     Dynamical RAM for      wfcinit/wfcrot:      10.88 MB

     Dynamical RAM for           addusdens:     118.70 MB

     Dynamical RAM for          addusforce:     262.60 MB

     Estimated static dynamical RAM per process >     176.31 MB

     Estimated max dynamical RAM per process >     456.02 MB

     Estimated total dynamical RAM >      85.50 GB

     Initial potential from superposition of free atoms

     starting charge     203.6866, renormalised to     204.0000

     negative rho (up, down):  5.959E-03 0.000E+00
     Starting wfcs are random
     Checking if some PAW data can be deallocated... 

     total cpu time spent up to now is       33.4 secs

     Self-consistent Calculation

     iteration #  1     ecut=    80.00 Ry     beta= 0.20
     Davidson diagonalization with overlap

---- Real-time Memory Report at c_bands before calling an iterative solver
          1582 MiB given to the printing process from OS
             0 MiB allocation reported by mallinfo(arena+hblkhd)
        599245 MiB available memory on the node where the printing process lives
------------------
     ethr =  1.00E-02,  avg # of iterations = 12.6

     negative rho (up, down):  3.186E-04 0.000E+00

     total cpu time spent up to now is      165.1 secs

     total energy              =   -1018.40278873 Ry
     estimated scf accuracy    <      10.17357846 Ry
     electrostatic embedding   =       0.00000000 Ry
     cavitation energy         =       0.04332155 Ry
     electrolyte free energy   =       0.01515578 Ry
     correction to one-el term =       0.00000000 Ry

     iteration #  2     ecut=    80.00 Ry     beta= 0.20
     Davidson diagonalization with overlap

---- Real-time Memory Report at c_bands before calling an iterative solver
          1582 MiB given to the printing process from OS
             0 MiB allocation reported by mallinfo(arena+hblkhd)
        592395 MiB available memory on the node where the printing process lives
------------------
     ethr =  4.99E-03,  avg # of iterations =  5.0

     negative rho (up, down):  4.472E-05 0.000E+00

     total cpu time spent up to now is      215.0 secs

     total energy              =   -1020.49428901 Ry
     estimated scf accuracy    <       2.94629009 Ry
     electrostatic embedding   =       0.00000000 Ry
     cavitation energy         =       0.04332155 Ry
     electrolyte free energy   =       0.01515578 Ry
     correction to one-el term =       0.00000000 Ry

     iteration #  3     ecut=    80.00 Ry     beta= 0.20
     Davidson diagonalization with overlap

---- Real-time Memory Report at c_bands before calling an iterative solver
          1651 MiB given to the printing process from OS
             0 MiB allocation reported by mallinfo(arena+hblkhd)
        590786 MiB available memory on the node where the printing process lives
------------------
     ethr =  1.44E-03,  avg # of iterations =  5.2

     negative rho (up, down):  2.497E-05 0.000E+00

     total cpu time spent up to now is      284.7 secs

     total energy              =   -1022.46342341 Ry
     estimated scf accuracy    <       0.60387834 Ry
     electrostatic embedding   =       0.00000000 Ry
     cavitation energy         =       0.04332155 Ry
     electrolyte free energy   =       0.01515578 Ry
     correction to one-el term =       0.00000000 Ry

     iteration #  4     ecut=    80.00 Ry     beta= 0.20
     Davidson diagonalization with overlap

---- Real-time Memory Report at c_bands before calling an iterative solver
          1748 MiB given to the printing process from OS
             0 MiB allocation reported by mallinfo(arena+hblkhd)
        588979 MiB available memory on the node where the printing process lives
------------------
     ethr =  2.96E-04,  avg # of iterations =  8.6

     negative rho (up, down):  4.426E-06 0.000E+00

     total cpu time spent up to now is      339.2 secs

     total energy              =   -1022.56905212 Ry
     estimated scf accuracy    <       0.59955933 Ry
     electrostatic embedding   =       0.00000000 Ry
     cavitation energy         =       0.04332155 Ry
     electrolyte free energy   =       0.01515578 Ry
     correction to one-el term =       0.00000000 Ry

     iteration #  5     ecut=    80.00 Ry     beta= 0.20
     Davidson diagonalization with overlap

---- Real-time Memory Report at c_bands before calling an iterative solver
          1848 MiB given to the printing process from OS
             0 MiB allocation reported by mallinfo(arena+hblkhd)
        587904 MiB available memory on the node where the printing process lives
------------------
     ethr =  2.94E-04,  avg # of iterations =  1.5

     negative rho (up, down):  1.840E-04 0.000E+00

     total cpu time spent up to now is      373.5 secs

     total energy              =   -1022.48500179 Ry
     estimated scf accuracy    <       0.50088324 Ry
     electrostatic embedding   =       0.00000000 Ry
     cavitation energy         =       0.04332155 Ry
     electrolyte free energy   =       0.01515578 Ry
     correction to one-el term =       0.00000000 Ry

     iteration #  6     ecut=    80.00 Ry     beta= 0.20
     Davidson diagonalization with overlap

---- Real-time Memory Report at c_bands before calling an iterative solver
          1866 MiB given to the printing process from OS
             0 MiB allocation reported by mallinfo(arena+hblkhd)
        588149 MiB available memory on the node where the printing process lives
------------------
     ethr =  2.46E-04,  avg # of iterations =  4.2

     negative rho (up, down):  8.390E-04 0.000E+00

     total cpu time spent up to now is      412.4 secs

     total energy              =   -1022.49863746 Ry
     estimated scf accuracy    <       0.15491924 Ry
     electrostatic embedding   =       0.00000000 Ry
     cavitation energy         =       0.04332155 Ry
     electrolyte free energy   =       0.01515578 Ry
     correction to one-el term =       0.00000000 Ry

     iteration #  7     ecut=    80.00 Ry     beta= 0.20
     Davidson diagonalization with overlap

---- Real-time Memory Report at c_bands before calling an iterative solver
          1878 MiB given to the printing process from OS
             0 MiB allocation reported by mallinfo(arena+hblkhd)
        588804 MiB available memory on the node where the printing process lives
------------------
     ethr =  7.59E-05,  avg # of iterations = 11.3

     negative rho (up, down):  4.480E-03 0.000E+00

     total cpu time spent up to now is      465.8 secs

     total energy              =   -1022.49182840 Ry
     estimated scf accuracy    <       0.10313309 Ry
     electrostatic embedding   =       0.00000000 Ry
     cavitation energy         =       0.04332155 Ry
     electrolyte free energy   =       0.01515578 Ry
     correction to one-el term =       0.00000000 Ry

     iteration #  8     ecut=    80.00 Ry     beta= 0.20
     Davidson diagonalization with overlap

---- Real-time Memory Report at c_bands before calling an iterative solver
          1955 MiB given to the printing process from OS
             0 MiB allocation reported by mallinfo(arena+hblkhd)
        587667 MiB available memory on the node where the printing process lives
------------------
     ethr =  5.06E-05,  avg # of iterations =  2.9

     negative rho (up, down):  1.940E-02 0.000E+00

     total cpu time spent up to now is      502.8 secs

     total energy              =   -1022.47744494 Ry
     estimated scf accuracy    <       0.12008008 Ry
     electrostatic embedding   =       0.00000000 Ry
     cavitation energy         =       0.04332155 Ry
     electrolyte free energy   =       0.01515578 Ry
     correction to one-el term =       0.00000000 Ry

     iteration #  9     ecut=    80.00 Ry     beta= 0.20
     Davidson diagonalization with overlap

---- Real-time Memory Report at c_bands before calling an iterative solver
          1974 MiB given to the printing process from OS
             0 MiB allocation reported by mallinfo(arena+hblkhd)
        587668 MiB available memory on the node where the printing process lives
------------------
     ethr =  5.06E-05,  avg # of iterations =  7.9

     negative rho (up, down):  1.131E-01 0.000E+00

     add environment contribution to local potential

     total cpu time spent up to now is      557.6 secs

     total energy              =   -1022.47947723 Ry
     estimated scf accuracy    <       0.06570524 Ry
     electrostatic embedding   =       0.00000000 Ry
     cavitation energy         =       0.04332155 Ry
     electrolyte free energy   =       0.01515578 Ry
     correction to one-el term =       0.00000000 Ry

     iteration # 10     ecut=    80.00 Ry     beta= 0.20
     Davidson diagonalization with overlap

---- Real-time Memory Report at c_bands before calling an iterative solver
          1983 MiB given to the printing process from OS
             0 MiB allocation reported by mallinfo(arena+hblkhd)
        586174 MiB available memory on the node where the printing process lives
------------------
     c_bands:  5 eigenvalues not converged
     c_bands:  5 eigenvalues not converged
     c_bands:  4 eigenvalues not converged
     c_bands:  5 eigenvalues not converged
     c_bands:  4 eigenvalues not converged
     c_bands:  5 eigenvalues not converged
     c_bands:  3 eigenvalues not converged
     c_bands:  4 eigenvalues not converged
     c_bands:  2 eigenvalues not converged
     c_bands:  2 eigenvalues not converged
     c_bands:  5 eigenvalues not converged
     c_bands:  4 eigenvalues not converged
     c_bands:  3 eigenvalues not converged
     c_bands:  3 eigenvalues not converged
     c_bands:  1 eigenvalues not converged
     c_bands:  1 eigenvalues not converged
     c_bands:  2 eigenvalues not converged
     ethr =  3.22E-05,  avg # of iterations = 21.1

     negative rho (up, down):  1.190E-01 0.000E+00

     add environment contribution to local potential

     total cpu time spent up to now is      666.6 secs

     total energy              =   -1022.52168435 Ry
     estimated scf accuracy    <       0.09697203 Ry
     electrostatic embedding   =      -0.06192556 Ry
     cavitation energy         =       0.04332155 Ry
     electrolyte free energy   =      -0.00199142 Ry
     correction to one-el term =      -7.42454207 Ry

     iteration # 11     ecut=    80.00 Ry     beta= 0.20
     Davidson diagonalization with overlap

---- Real-time Memory Report at c_bands before calling an iterative solver
          2063 MiB given to the printing process from OS
             0 MiB allocation reported by mallinfo(arena+hblkhd)
        583114 MiB available memory on the node where the printing process lives
------------------
     ethr =  3.22E-05,  avg # of iterations =  2.8

     negative rho (up, down):  9.193E-02 0.000E+00

     total cpu time spent up to now is      702.6 secs

     total energy              =   -1022.52798231 Ry
     estimated scf accuracy    <       0.12341879 Ry
     electrostatic embedding   =      -0.06138364 Ry
     cavitation energy         =       0.04332155 Ry
     electrolyte free energy   =      -0.00244657 Ry
     correction to one-el term =      -6.12041340 Ry

     iteration # 12     ecut=    80.00 Ry     beta= 0.20
     Davidson diagonalization with overlap

---- Real-time Memory Report at c_bands before calling an iterative solver
          2070 MiB given to the printing process from OS
             0 MiB allocation reported by mallinfo(arena+hblkhd)
        583312 MiB available memory on the node where the printing process lives
------------------
     ethr =  3.22E-05,  avg # of iterations =  1.5

     negative rho (up, down):  1.369E-01 0.000E+00

     total cpu time spent up to now is      737.1 secs

     total energy              =   -1022.51877570 Ry
     estimated scf accuracy    <       0.13595200 Ry
     electrostatic embedding   =      -0.06149530 Ry
     cavitation energy         =       0.04332155 Ry
     electrolyte free energy   =      -0.00244657 Ry
     correction to one-el term =      -6.12019008 Ry

     iteration # 13     ecut=    80.00 Ry     beta= 0.20
     Davidson diagonalization with overlap

---- Real-time Memory Report at c_bands before calling an iterative solver
          2077 MiB given to the printing process from OS
             0 MiB allocation reported by mallinfo(arena+hblkhd)
        583651 MiB available memory on the node where the printing process lives
------------------
     c_bands:  1 eigenvalues not converged
     c_bands:  1 eigenvalues not converged
     ethr =  3.22E-05,  avg # of iterations =  7.1

     negative rho (up, down):  8.612E-02 0.000E+00

     add environment contribution to local potential

     total cpu time spent up to now is      789.9 secs

     total energy              =   -1022.52103057 Ry
     estimated scf accuracy    <       0.04902927 Ry
     electrostatic embedding   =      -0.06067374 Ry
     cavitation energy         =       0.04332155 Ry
     electrolyte free energy   =      -0.00244657 Ry
     correction to one-el term =      -6.12183320 Ry

     iteration # 14     ecut=    80.00 Ry     beta= 0.20
     Davidson diagonalization with overlap

---- Real-time Memory Report at c_bands before calling an iterative solver
          2085 MiB given to the printing process from OS
             0 MiB allocation reported by mallinfo(arena+hblkhd)
        584493 MiB available memory on the node where the printing process lives
------------------
     c_bands:  1 eigenvalues not converged
     c_bands:  1 eigenvalues not converged
     ethr =  2.40E-05,  avg # of iterations = 11.9

     negative rho (up, down):  1.444E-01 0.000E+00

     add environment contribution to local potential

     total cpu time spent up to now is      852.9 secs

     total energy              =   -1022.52314227 Ry
     estimated scf accuracy    <       0.07308850 Ry
     electrostatic embedding   =      -0.06182941 Ry
     cavitation energy         =       0.04332155 Ry
     electrolyte free energy   =      -0.00248684 Ry
     correction to one-el term =      -3.39999459 Ry

     iteration # 15     ecut=    80.00 Ry     beta= 0.20
     Davidson diagonalization with overlap

---- Real-time Memory Report at c_bands before calling an iterative solver
          2102 MiB given to the printing process from OS
             0 MiB allocation reported by mallinfo(arena+hblkhd)
        583606 MiB available memory on the node where the printing process lives
------------------
     ethr =  2.40E-05,  avg # of iterations =  4.8

     negative rho (up, down):  1.555E-01 0.000E+00

     add environment contribution to local potential

     total cpu time spent up to now is      903.9 secs

     total energy              =   -1022.52242052 Ry
     estimated scf accuracy    <       0.08487262 Ry
     electrostatic embedding   =      -0.06531536 Ry
     cavitation energy         =       0.04332155 Ry
     electrolyte free energy   =      -0.00238883 Ry
     correction to one-el term =      -0.38767799 Ry

     iteration # 16     ecut=    80.00 Ry     beta= 0.20
     Davidson diagonalization with overlap

---- Real-time Memory Report at c_bands before calling an iterative solver
          2102 MiB given to the printing process from OS
             0 MiB allocation reported by mallinfo(arena+hblkhd)
        583702 MiB available memory on the node where the printing process lives
------------------
     ethr =  2.40E-05,  avg # of iterations =  4.6

     negative rho (up, down):  1.135E-01 0.000E+00

     add environment contribution to local potential

     total cpu time spent up to now is      951.0 secs

     total energy              =   -1022.52185791 Ry
     estimated scf accuracy    <       0.02380579 Ry
     electrostatic embedding   =      -0.06937705 Ry
     cavitation energy         =       0.04332155 Ry
     electrolyte free energy   =      -0.00165894 Ry
     correction to one-el term =       0.73953548 Ry

     iteration # 17     ecut=    80.00 Ry     beta= 0.20
     Davidson diagonalization with overlap

---- Real-time Memory Report at c_bands before calling an iterative solver
          2111 MiB given to the printing process from OS
             0 MiB allocation reported by mallinfo(arena+hblkhd)
        584034 MiB available memory on the node where the printing process lives
------------------
     c_bands:  1 eigenvalues not converged
     c_bands:  1 eigenvalues not converged
     ethr =  1.17E-05,  avg # of iterations = 13.0

     negative rho (up, down):  1.437E-01 0.000E+00

     add environment contribution to local potential

     total cpu time spent up to now is     1014.6 secs

     total energy              =   -1022.52259924 Ry
     estimated scf accuracy    <       0.01638805 Ry
     electrostatic embedding   =      -0.07325431 Ry
     cavitation energy         =       0.04332155 Ry
     electrolyte free energy   =      -0.00105220 Ry
     correction to one-el term =       2.42864777 Ry

     iteration # 18     ecut=    80.00 Ry     beta= 0.20
     Davidson diagonalization with overlap

---- Real-time Memory Report at c_bands before calling an iterative solver
          2128 MiB given to the printing process from OS
             0 MiB allocation reported by mallinfo(arena+hblkhd)
        582953 MiB available memory on the node where the printing process lives
------------------
     ethr =  8.03E-06,  avg # of iterations =  7.4

     negative rho (up, down):  1.537E-01 0.000E+00

     add environment contribution to local potential

     total cpu time spent up to now is     1071.3 secs

     total energy              =   -1022.52099834 Ry
     estimated scf accuracy    <       0.03318929 Ry
     electrostatic embedding   =      -0.07004496 Ry
     cavitation energy         =       0.04332155 Ry
     electrolyte free energy   =      -0.00128062 Ry
     correction to one-el term =       3.87728633 Ry

     iteration # 19     ecut=    80.00 Ry     beta= 0.20
     Davidson diagonalization with overlap

---- Real-time Memory Report at c_bands before calling an iterative solver
          2131 MiB given to the printing process from OS
             0 MiB allocation reported by mallinfo(arena+hblkhd)
        582833 MiB available memory on the node where the printing process lives
------------------
     ethr =  8.03E-06,  avg # of iterations =  6.8

     negative rho (up, down):  1.535E-01 0.000E+00

     add environment contribution to local potential

     total cpu time spent up to now is     1122.6 secs

     total energy              =   -1022.52576017 Ry
     estimated scf accuracy    <       0.02013252 Ry
     electrostatic embedding   =      -0.06734332 Ry
     cavitation energy         =       0.04332155 Ry
     electrolyte free energy   =      -0.00185382 Ry
     correction to one-el term =       5.44226178 Ry

     iteration # 20     ecut=    80.00 Ry     beta= 0.20
     Davidson diagonalization with overlap

---- Real-time Memory Report at c_bands before calling an iterative solver
          2131 MiB given to the printing process from OS
             0 MiB allocation reported by mallinfo(arena+hblkhd)
        582835 MiB available memory on the node where the printing process lives
------------------
     ethr =  8.03E-06,  avg # of iterations =  2.2

     negative rho (up, down):  1.363E-01 0.000E+00

     add environment contribution to local potential

     total cpu time spent up to now is     1167.9 secs

     total energy              =   -1022.52306084 Ry
     estimated scf accuracy    <       0.01442248 Ry
     electrostatic embedding   =      -0.06828168 Ry
     cavitation energy         =       0.04332155 Ry
     electrolyte free energy   =      -0.00163110 Ry
     correction to one-el term =       6.74477401 Ry

     iteration # 21     ecut=    80.00 Ry     beta= 0.20
     Davidson diagonalization with overlap

---- Real-time Memory Report at c_bands before calling an iterative solver
          2134 MiB given to the printing process from OS
             0 MiB allocation reported by mallinfo(arena+hblkhd)
        582864 MiB available memory on the node where the printing process lives
------------------
     ethr =  7.07E-06,  avg # of iterations = 11.0

     negative rho (up, down):  1.333E-01 0.000E+00

     add environment contribution to local potential

     total cpu time spent up to now is     1230.3 secs

     total energy              =   -1022.52595676 Ry
     estimated scf accuracy    <       0.00895429 Ry
     electrostatic embedding   =      -0.06258631 Ry
     cavitation energy         =       0.04332155 Ry
     electrolyte free energy   =      -0.00124771 Ry
     correction to one-el term =      10.18047691 Ry

     iteration # 22     ecut=    80.00 Ry     beta= 0.20
     Davidson diagonalization with overlap

---- Real-time Memory Report at c_bands before calling an iterative solver
          2152 MiB given to the printing process from OS
             0 MiB allocation reported by mallinfo(arena+hblkhd)
        582346 MiB available memory on the node where the printing process lives
------------------
     ethr =  4.39E-06,  avg # of iterations =  6.3

     negative rho (up, down):  8.060E-02 0.000E+00

     add environment contribution to local potential

     total cpu time spent up to now is     1281.2 secs

     total energy              =   -1022.52607312 Ry
     estimated scf accuracy    <       0.00343077 Ry
     electrostatic embedding   =      -0.05970817 Ry
     cavitation energy         =       0.04332155 Ry
     electrolyte free energy   =      -0.00151447 Ry
     correction to one-el term =      10.52731684 Ry

     iteration # 23     ecut=    80.00 Ry     beta= 0.20
     Davidson diagonalization with overlap

---- Real-time Memory Report at c_bands before calling an iterative solver
          2152 MiB given to the printing process from OS
             0 MiB allocation reported by mallinfo(arena+hblkhd)
        582390 MiB available memory on the node where the printing process lives
------------------
     c_bands:  1 eigenvalues not converged
     c_bands:  2 eigenvalues not converged
     c_bands:  2 eigenvalues not converged
     c_bands:  1 eigenvalues not converged
     c_bands:  2 eigenvalues not converged
     c_bands:  1 eigenvalues not converged
     c_bands:  1 eigenvalues not converged
     c_bands:  3 eigenvalues not converged
     c_bands:  1 eigenvalues not converged
     c_bands:  1 eigenvalues not converged
     c_bands:  2 eigenvalues not converged
     c_bands:  1 eigenvalues not converged
     c_bands:  1 eigenvalues not converged
     c_bands:  1 eigenvalues not converged
     c_bands:  1 eigenvalues not converged
     ethr =  1.68E-06,  avg # of iterations = 17.8

     negative rho (up, down):  7.065E-02 0.000E+00

     add environment contribution to local potential

     total cpu time spent up to now is     1361.7 secs

     total energy              =   -1022.52614624 Ry
     estimated scf accuracy    <       0.00910069 Ry
     electrostatic embedding   =      -0.05686518 Ry
     cavitation energy         =       0.04332155 Ry
     electrolyte free energy   =      -0.00156022 Ry
     correction to one-el term =      11.99168299 Ry

     iteration # 24     ecut=    80.00 Ry     beta= 0.20
     Davidson diagonalization with overlap

---- Real-time Memory Report at c_bands before calling an iterative solver
          2197 MiB given to the printing process from OS
             0 MiB allocation reported by mallinfo(arena+hblkhd)
        580995 MiB available memory on the node where the printing process lives
------------------
     ethr =  1.68E-06,  avg # of iterations =  9.7

     negative rho (up, down):  4.563E-02 0.000E+00

     add environment contribution to local potential

     total cpu time spent up to now is     1418.6 secs

     total energy              =   -1022.52733881 Ry
     estimated scf accuracy    <       0.00581582 Ry
     electrostatic embedding   =      -0.05702390 Ry
     cavitation energy         =       0.04332155 Ry
     electrolyte free energy   =      -0.00121692 Ry
     correction to one-el term =      12.59968240 Ry

     iteration # 25     ecut=    80.00 Ry     beta= 0.20
     Davidson diagonalization with overlap

---- Real-time Memory Report at c_bands before calling an iterative solver
          2201 MiB given to the printing process from OS
             0 MiB allocation reported by mallinfo(arena+hblkhd)
        580811 MiB available memory on the node where the printing process lives
------------------
     c_bands:  2 eigenvalues not converged
     c_bands:  2 eigenvalues not converged
     ethr =  1.68E-06,  avg # of iterations = 10.7

     negative rho (up, down):  3.200E-02 0.000E+00

     add environment contribution to local potential

     total cpu time spent up to now is     1478.5 secs

     total energy              =   -1022.52750379 Ry
     estimated scf accuracy    <       0.00255991 Ry
     electrostatic embedding   =      -0.05775777 Ry
     cavitation energy         =       0.04332155 Ry
     electrolyte free energy   =      -0.00116301 Ry
     correction to one-el term =      13.19640164 Ry

     iteration # 26     ecut=    80.00 Ry     beta= 0.20
     Davidson diagonalization with overlap

---- Real-time Memory Report at c_bands before calling an iterative solver
          2209 MiB given to the printing process from OS
             0 MiB allocation reported by mallinfo(arena+hblkhd)
        580554 MiB available memory on the node where the printing process lives
------------------
     c_bands:  1 eigenvalues not converged
     c_bands:  2 eigenvalues not converged
     c_bands:  1 eigenvalues not converged
     c_bands:  1 eigenvalues not converged
     ethr =  1.25E-06,  avg # of iterations = 12.9

     negative rho (up, down):  2.733E-02 0.000E+00

     add environment contribution to local potential

     total cpu time spent up to now is     1540.1 secs

     total energy              =   -1022.52756092 Ry
     estimated scf accuracy    <       0.00132969 Ry
     electrostatic embedding   =      -0.05877886 Ry
     cavitation energy         =       0.04332155 Ry
     electrolyte free energy   =      -0.00119506 Ry
     correction to one-el term =      13.55733589 Ry

     iteration # 27     ecut=    80.00 Ry     beta= 0.20
     Davidson diagonalization with overlap

---- Real-time Memory Report at c_bands before calling an iterative solver
          2213 MiB given to the printing process from OS
             0 MiB allocation reported by mallinfo(arena+hblkhd)
        580456 MiB available memory on the node where the printing process lives
------------------
     c_bands:  2 eigenvalues not converged
     c_bands:  2 eigenvalues not converged
     c_bands:  1 eigenvalues not converged
     c_bands:  2 eigenvalues not converged
     c_bands:  1 eigenvalues not converged
     c_bands:  1 eigenvalues not converged
     ethr =  6.52E-07,  avg # of iterations = 13.9

     negative rho (up, down):  1.194E-02 0.000E+00

     add environment contribution to local potential

     total cpu time spent up to now is     1602.7 secs

     total energy              =   -1022.52764119 Ry
     estimated scf accuracy    <       0.00025848 Ry
     electrostatic embedding   =      -0.05912213 Ry
     cavitation energy         =       0.04332155 Ry
     electrolyte free energy   =      -0.00127667 Ry
     correction to one-el term =      13.70315859 Ry

     iteration # 28     ecut=    80.00 Ry     beta= 0.20
     Davidson diagonalization with overlap

---- Real-time Memory Report at c_bands before calling an iterative solver
          2217 MiB given to the printing process from OS
             0 MiB allocation reported by mallinfo(arena+hblkhd)
        580446 MiB available memory on the node where the printing process lives
------------------
     c_bands:  1 eigenvalues not converged
     c_bands:  1 eigenvalues not converged
     c_bands:  1 eigenvalues not converged
     c_bands:  4 eigenvalues not converged
     c_bands:  2 eigenvalues not converged
     c_bands:  2 eigenvalues not converged
     c_bands:  1 eigenvalues not converged
     c_bands:  1 eigenvalues not converged
     c_bands:  1 eigenvalues not converged
     c_bands:  1 eigenvalues not converged
     c_bands:  1 eigenvalues not converged
     c_bands:  1 eigenvalues not converged
     ethr =  1.27E-07,  avg # of iterations = 18.0

     negative rho (up, down):  1.166E-02 0.000E+00

     add environment contribution to local potential

     total cpu time spent up to now is     1678.3 secs

     total energy              =   -1022.52772289 Ry
     estimated scf accuracy    <       0.00016681 Ry
     electrostatic embedding   =      -0.05905034 Ry
     cavitation energy         =       0.04332155 Ry
     electrolyte free energy   =      -0.00132817 Ry
     correction to one-el term =      14.00254005 Ry

     iteration # 29     ecut=    80.00 Ry     beta= 0.20
     Davidson diagonalization with overlap

---- Real-time Memory Report at c_bands before calling an iterative solver
          2219 MiB given to the printing process from OS
             0 MiB allocation reported by mallinfo(arena+hblkhd)
        580253 MiB available memory on the node where the printing process lives
------------------
     c_bands:  2 eigenvalues not converged
     c_bands:  1 eigenvalues not converged
     ethr =  8.18E-08,  avg # of iterations =  5.3

     negative rho (up, down):  7.992E-03 0.000E+00

     add environment contribution to local potential

     total cpu time spent up to now is     1726.9 secs

     total energy              =   -1022.52771404 Ry
     estimated scf accuracy    <       0.00004220 Ry
     electrostatic embedding   =      -0.05890645 Ry
     cavitation energy         =       0.04332155 Ry
     electrolyte free energy   =      -0.00132586 Ry
     correction to one-el term =      13.99901671 Ry

     iteration # 30     ecut=    80.00 Ry     beta= 0.20
     Davidson diagonalization with overlap

---- Real-time Memory Report at c_bands before calling an iterative solver
          2219 MiB given to the printing process from OS
             0 MiB allocation reported by mallinfo(arena+hblkhd)
        580256 MiB available memory on the node where the printing process lives
------------------
     c_bands:  1 eigenvalues not converged
     c_bands:  1 eigenvalues not converged
     c_bands:  1 eigenvalues not converged
     c_bands:  2 eigenvalues not converged
     c_bands:  1 eigenvalues not converged
     c_bands:  1 eigenvalues not converged
     ethr =  2.07E-08,  avg # of iterations = 15.0

     negative rho (up, down):  5.188E-03 0.000E+00

     add environment contribution to local potential

     total cpu time spent up to now is     1795.2 secs

     total energy              =   -1022.52770062 Ry
     estimated scf accuracy    <       0.00001817 Ry
     electrostatic embedding   =      -0.05874286 Ry
     cavitation energy         =       0.04332155 Ry
     electrolyte free energy   =      -0.00133775 Ry
     correction to one-el term =      13.82122672 Ry

     iteration # 31     ecut=    80.00 Ry     beta= 0.20
     Davidson diagonalization with overlap

---- Real-time Memory Report at c_bands before calling an iterative solver
          2227 MiB given to the printing process from OS
             0 MiB allocation reported by mallinfo(arena+hblkhd)
        580084 MiB available memory on the node where the printing process lives
------------------
     c_bands:  1 eigenvalues not converged
     c_bands:  1 eigenvalues not converged
     c_bands:  1 eigenvalues not converged
     c_bands:  1 eigenvalues not converged
     ethr =  8.91E-09,  avg # of iterations = 11.4

     negative rho (up, down):  3.037E-03 0.000E+00

     add environment contribution to local potential

     total cpu time spent up to now is     1857.1 secs

     total energy              =   -1022.52769170 Ry
     estimated scf accuracy    <       0.00001574 Ry
     electrostatic embedding   =      -0.05859638 Ry
     cavitation energy         =       0.04332155 Ry
     electrolyte free energy   =      -0.00134203 Ry
     correction to one-el term =      13.60098434 Ry

     iteration # 32     ecut=    80.00 Ry     beta= 0.20
     Davidson diagonalization with overlap

---- Real-time Memory Report at c_bands before calling an iterative solver
          2231 MiB given to the printing process from OS
             0 MiB allocation reported by mallinfo(arena+hblkhd)
        580217 MiB available memory on the node where the printing process lives
------------------
     c_bands:  1 eigenvalues not converged
     ethr =  7.72E-09,  avg # of iterations =  3.3

     negative rho (up, down):  1.888E-03 0.000E+00

     add environment contribution to local potential

     total cpu time spent up to now is     1904.1 secs

     total energy              =   -1022.52769615 Ry
     estimated scf accuracy    <       0.00000666 Ry
     electrostatic embedding   =      -0.05853343 Ry
     cavitation energy         =       0.04332155 Ry
     electrolyte free energy   =      -0.00133734 Ry
     correction to one-el term =      13.53805324 Ry

     iteration # 33     ecut=    80.00 Ry     beta= 0.20
     Davidson diagonalization with overlap

---- Real-time Memory Report at c_bands before calling an iterative solver
          2231 MiB given to the printing process from OS
             0 MiB allocation reported by mallinfo(arena+hblkhd)
        580282 MiB available memory on the node where the printing process lives
------------------
     c_bands:  1 eigenvalues not converged
     ethr =  3.27E-09,  avg # of iterations =  6.6

     negative rho (up, down):  9.703E-04 0.000E+00

     add environment contribution to local potential

     total cpu time spent up to now is     1956.5 secs

     total energy              =   -1022.52769355 Ry
     estimated scf accuracy    <       0.00000510 Ry
     electrostatic embedding   =      -0.05853900 Ry
     cavitation energy         =       0.04332155 Ry
     electrolyte free energy   =      -0.00133967 Ry
     correction to one-el term =      13.55527125 Ry

     iteration # 34     ecut=    80.00 Ry     beta= 0.20
     Davidson diagonalization with overlap

---- Real-time Memory Report at c_bands before calling an iterative solver
          2231 MiB given to the printing process from OS
             0 MiB allocation reported by mallinfo(arena+hblkhd)
        580310 MiB available memory on the node where the printing process lives
------------------
     c_bands:  2 eigenvalues not converged
     c_bands:  1 eigenvalues not converged
     c_bands:  1 eigenvalues not converged
     c_bands:  1 eigenvalues not converged
     ethr =  2.50E-09,  avg # of iterations = 12.8

     negative rho (up, down):  1.317E-03 0.000E+00

     add environment contribution to local potential

     total cpu time spent up to now is     2019.8 secs

     total energy              =   -1022.52769571 Ry
     estimated scf accuracy    <       0.00000292 Ry
     electrostatic embedding   =      -0.05853613 Ry
     cavitation energy         =       0.04332155 Ry
     electrolyte free energy   =      -0.00133676 Ry
     correction to one-el term =      13.59411977 Ry

     iteration # 35     ecut=    80.00 Ry     beta= 0.20
     Davidson diagonalization with overlap

---- Real-time Memory Report at c_bands before calling an iterative solver
          2231 MiB given to the printing process from OS
             0 MiB allocation reported by mallinfo(arena+hblkhd)
        580137 MiB available memory on the node where the printing process lives
------------------
     c_bands:  1 eigenvalues not converged
     ethr =  1.43E-09,  avg # of iterations =  7.8

     negative rho (up, down):  1.129E-03 0.000E+00

     add environment contribution to local potential

     total cpu time spent up to now is     2076.1 secs

     total energy              =   -1022.52769909 Ry
     estimated scf accuracy    <       0.00000121 Ry
     electrostatic embedding   =      -0.05856777 Ry
     cavitation energy         =       0.04332155 Ry
     electrolyte free energy   =      -0.00133514 Ry
     correction to one-el term =      13.68008415 Ry

     iteration # 36     ecut=    80.00 Ry     beta= 0.20
     Davidson diagonalization with overlap

---- Real-time Memory Report at c_bands before calling an iterative solver
          2231 MiB given to the printing process from OS
             0 MiB allocation reported by mallinfo(arena+hblkhd)
        580190 MiB available memory on the node where the printing process lives
------------------
     ethr =  5.92E-10,  avg # of iterations =  4.2

     negative rho (up, down):  8.651E-04 0.000E+00

     add environment contribution to local potential

     total cpu time spent up to now is     2126.2 secs

     total energy              =   -1022.52770028 Ry
     estimated scf accuracy    <       0.00000092 Ry
     electrostatic embedding   =      -0.05858515 Ry
     cavitation energy         =       0.04332155 Ry
     electrolyte free energy   =      -0.00133379 Ry
     correction to one-el term =      13.70146752 Ry

     iteration # 37     ecut=    80.00 Ry     beta= 0.20
     Davidson diagonalization with overlap

---- Real-time Memory Report at c_bands before calling an iterative solver
          2231 MiB given to the printing process from OS
             0 MiB allocation reported by mallinfo(arena+hblkhd)
        580306 MiB available memory on the node where the printing process lives
------------------
     ethr =  4.52E-10,  avg # of iterations =  3.1

     negative rho (up, down):  7.679E-04 0.000E+00

     add environment contribution to local potential

     total cpu time spent up to now is     2173.1 secs

     total energy              =   -1022.52770072 Ry
     estimated scf accuracy    <       0.00000065 Ry
     electrostatic embedding   =      -0.05856068 Ry
     cavitation energy         =       0.04332155 Ry
     electrolyte free energy   =      -0.00133343 Ry
     correction to one-el term =      13.70283635 Ry

     iteration # 38     ecut=    80.00 Ry     beta= 0.20
     Davidson diagonalization with overlap

---- Real-time Memory Report at c_bands before calling an iterative solver
          2231 MiB given to the printing process from OS
             0 MiB allocation reported by mallinfo(arena+hblkhd)
        580471 MiB available memory on the node where the printing process lives
------------------
     c_bands:  3 eigenvalues not converged
     ethr =  3.20E-10,  avg # of iterations =  8.3

     negative rho (up, down):  7.529E-04 0.000E+00

     add environment contribution to local potential

     total cpu time spent up to now is     2231.8 secs

     total energy              =   -1022.52770115 Ry
     estimated scf accuracy    <       0.00000013 Ry
     electrostatic embedding   =      -0.05845222 Ry
     cavitation energy         =       0.04332155 Ry
     electrolyte free energy   =      -0.00133355 Ry
     correction to one-el term =      13.71636760 Ry

     iteration # 39     ecut=    80.00 Ry     beta= 0.20
     Davidson diagonalization with overlap

---- Real-time Memory Report at c_bands before calling an iterative solver
          2231 MiB given to the printing process from OS
             0 MiB allocation reported by mallinfo(arena+hblkhd)
        580213 MiB available memory on the node where the printing process lives
------------------
     ethr =  6.18E-11,  avg # of iterations =  4.6

     negative rho (up, down):  7.391E-04 0.000E+00

     add environment contribution to local potential

     total cpu time spent up to now is     2287.9 secs

     total energy              =   -1022.52770105 Ry
     estimated scf accuracy    <       0.00000011 Ry
     electrostatic embedding   =      -0.05845028 Ry
     cavitation energy         =       0.04332155 Ry
     electrolyte free energy   =      -0.00133370 Ry
     correction to one-el term =      13.71864957 Ry

     iteration # 40     ecut=    80.00 Ry     beta= 0.20
     Davidson diagonalization with overlap

---- Real-time Memory Report at c_bands before calling an iterative solver
          2239 MiB given to the printing process from OS
             0 MiB allocation reported by mallinfo(arena+hblkhd)
        578829 MiB available memory on the node where the printing process lives
------------------
     ethr =  5.62E-11,  avg # of iterations =  3.7

     negative rho (up, down):  7.489E-04 0.000E+00

     add environment contribution to local potential

     total cpu time spent up to now is     2335.9 secs

     total energy              =   -1022.52770100 Ry
     estimated scf accuracy    <       0.00000010 Ry
     electrostatic embedding   =      -0.05845411 Ry
     cavitation energy         =       0.04332155 Ry
     electrolyte free energy   =      -0.00133378 Ry
     correction to one-el term =      13.71743714 Ry

     iteration # 41     ecut=    80.00 Ry     beta= 0.20
     Davidson diagonalization with overlap

---- Real-time Memory Report at c_bands before calling an iterative solver
          2243 MiB given to the printing process from OS
             0 MiB allocation reported by mallinfo(arena+hblkhd)
        579159 MiB available memory on the node where the printing process lives
------------------
     ethr =  4.72E-11,  avg # of iterations =  3.4

     negative rho (up, down):  7.217E-04 0.000E+00

     add environment contribution to local potential

     total cpu time spent up to now is     2383.7 secs

     total energy              =   -1022.52770118 Ry
     estimated scf accuracy    <       0.00000008 Ry
     electrostatic embedding   =      -0.05845010 Ry
     cavitation energy         =       0.04332155 Ry
     electrolyte free energy   =      -0.00133322 Ry
     correction to one-el term =      13.71998066 Ry

     iteration # 42     ecut=    80.00 Ry     beta= 0.20
     Davidson diagonalization with overlap

---- Real-time Memory Report at c_bands before calling an iterative solver
          2243 MiB given to the printing process from OS
             0 MiB allocation reported by mallinfo(arena+hblkhd)
        579219 MiB available memory on the node where the printing process lives
------------------
     ethr =  3.72E-11,  avg # of iterations =  2.1

     negative rho (up, down):  7.042E-04 0.000E+00

     add environment contribution to local potential

     total cpu time spent up to now is     2429.3 secs

     total energy              =   -1022.52770116 Ry
     estimated scf accuracy    <       0.00000007 Ry
     electrostatic embedding   =      -0.05845769 Ry
     cavitation energy         =       0.04332155 Ry
     electrolyte free energy   =      -0.00133288 Ry
     correction to one-el term =      13.71605568 Ry

     iteration # 43     ecut=    80.00 Ry     beta= 0.20
     Davidson diagonalization with overlap

---- Real-time Memory Report at c_bands before calling an iterative solver
          2243 MiB given to the printing process from OS
             0 MiB allocation reported by mallinfo(arena+hblkhd)
        579709 MiB available memory on the node where the printing process lives
------------------
     ethr =  3.24E-11,  avg # of iterations =  1.9

     negative rho (up, down):  6.836E-04 0.000E+00

     add environment contribution to local potential

     total cpu time spent up to now is     2474.3 secs

     total energy              =   -1022.52770111 Ry
     estimated scf accuracy    <       0.00000005 Ry
     electrostatic embedding   =      -0.05846224 Ry
     cavitation energy         =       0.04332155 Ry
     electrolyte free energy   =      -0.00133254 Ry
     correction to one-el term =      13.71345834 Ry

     iteration # 44     ecut=    80.00 Ry     beta= 0.20
     Davidson diagonalization with overlap

---- Real-time Memory Report at c_bands before calling an iterative solver
          2243 MiB given to the printing process from OS
             0 MiB allocation reported by mallinfo(arena+hblkhd)
        580996 MiB available memory on the node where the printing process lives
------------------
     ethr =  2.63E-11,  avg # of iterations =  2.0

     negative rho (up, down):  6.861E-04 0.000E+00

     add environment contribution to local potential

     total cpu time spent up to now is     2520.1 secs

     total energy              =   -1022.52770114 Ry
     estimated scf accuracy    <       0.00000004 Ry
     electrostatic embedding   =      -0.05846793 Ry
     cavitation energy         =       0.04332155 Ry
     electrolyte free energy   =      -0.00133175 Ry
     correction to one-el term =      13.71254725 Ry

     iteration # 45     ecut=    80.00 Ry     beta= 0.20
     Davidson diagonalization with overlap

---- Real-time Memory Report at c_bands before calling an iterative solver
          2243 MiB given to the printing process from OS
             0 MiB allocation reported by mallinfo(arena+hblkhd)
        581491 MiB available memory on the node where the printing process lives
------------------
     ethr =  1.78E-11,  avg # of iterations =  1.0

     negative rho (up, down):  6.931E-04 0.000E+00

     add environment contribution to local potential

     total cpu time spent up to now is     2562.0 secs

     total energy              =   -1022.52770112 Ry
     estimated scf accuracy    <       0.00000003 Ry
     electrostatic embedding   =      -0.05846807 Ry
     cavitation energy         =       0.04332155 Ry
     electrolyte free energy   =      -0.00133166 Ry
     correction to one-el term =      13.71384644 Ry

     iteration # 46     ecut=    80.00 Ry     beta= 0.20
     Davidson diagonalization with overlap

---- Real-time Memory Report at c_bands before calling an iterative solver
          2243 MiB given to the printing process from OS
             0 MiB allocation reported by mallinfo(arena+hblkhd)
        584194 MiB available memory on the node where the printing process lives
------------------
     ethr =  1.71E-11,  avg # of iterations =  1.5

     negative rho (up, down):  6.951E-04 0.000E+00

     add environment contribution to local potential

     total cpu time spent up to now is     2605.1 secs

     total energy              =   -1022.52770113 Ry
     estimated scf accuracy    <       0.00000003 Ry
     electrostatic embedding   =      -0.05846960 Ry
     cavitation energy         =       0.04332155 Ry
     electrolyte free energy   =      -0.00133170 Ry
     correction to one-el term =      13.71521723 Ry

     iteration # 47     ecut=    80.00 Ry     beta= 0.20
     Davidson diagonalization with overlap

---- Real-time Memory Report at c_bands before calling an iterative solver
          2243 MiB given to the printing process from OS
             0 MiB allocation reported by mallinfo(arena+hblkhd)
        584904 MiB available memory on the node where the printing process lives
------------------
     ethr =  1.63E-11,  avg # of iterations =  1.8

     negative rho (up, down):  7.092E-04 0.000E+00

     add environment contribution to local potential

     total cpu time spent up to now is     2649.7 secs

     total energy              =   -1022.52770115 Ry
     estimated scf accuracy    <       0.00000003 Ry
     electrostatic embedding   =      -0.05847187 Ry
     cavitation energy         =       0.04332155 Ry
     electrolyte free energy   =      -0.00133169 Ry
     correction to one-el term =      13.71646899 Ry

     iteration # 48     ecut=    80.00 Ry     beta= 0.20
     Davidson diagonalization with overlap

---- Real-time Memory Report at c_bands before calling an iterative solver
          2243 MiB given to the printing process from OS
             0 MiB allocation reported by mallinfo(arena+hblkhd)
        584975 MiB available memory on the node where the printing process lives
------------------
     ethr =  1.38E-11,  avg # of iterations =  3.0

     negative rho (up, down):  7.129E-04 0.000E+00

     add environment contribution to local potential

     total cpu time spent up to now is     2696.3 secs

     total energy              =   -1022.52770114 Ry
     estimated scf accuracy    <       0.00000002 Ry
     electrostatic embedding   =      -0.05847182 Ry
     cavitation energy         =       0.04332155 Ry
     electrolyte free energy   =      -0.00133167 Ry
     correction to one-el term =      13.71802142 Ry

     iteration # 49     ecut=    80.00 Ry     beta= 0.20
     Davidson diagonalization with overlap

---- Real-time Memory Report at c_bands before calling an iterative solver
          2243 MiB given to the printing process from OS
             0 MiB allocation reported by mallinfo(arena+hblkhd)
        585079 MiB available memory on the node where the printing process lives
------------------
     ethr =  1.17E-11,  avg # of iterations =  1.1

     negative rho (up, down):  7.093E-04 0.000E+00

     add environment contribution to local potential

     total cpu time spent up to now is     2738.5 secs

     total energy              =   -1022.52770122 Ry
     estimated scf accuracy    <       0.00000002 Ry
     electrostatic embedding   =      -0.05846954 Ry
     cavitation energy         =       0.04332155 Ry
     electrolyte free energy   =      -0.00133173 Ry
     correction to one-el term =      13.71838078 Ry

     iteration # 50     ecut=    80.00 Ry     beta= 0.20
     Davidson diagonalization with overlap

---- Real-time Memory Report at c_bands before calling an iterative solver
          2243 MiB given to the printing process from OS
             0 MiB allocation reported by mallinfo(arena+hblkhd)
        585404 MiB available memory on the node where the printing process lives
------------------
     ethr =  1.09E-11,  avg # of iterations =  3.4

     negative rho (up, down):  7.068E-04 0.000E+00

     add environment contribution to local potential

     total cpu time spent up to now is     2785.5 secs

     total energy              =   -1022.52770124 Ry
     estimated scf accuracy    <       0.00000002 Ry
     electrostatic embedding   =      -0.05846810 Ry
     cavitation energy         =       0.04332155 Ry
     electrolyte free energy   =      -0.00133179 Ry
     correction to one-el term =      13.71831898 Ry

     iteration # 51     ecut=    80.00 Ry     beta= 0.20
     Davidson diagonalization with overlap

---- Real-time Memory Report at c_bands before calling an iterative solver
          2243 MiB given to the printing process from OS
             0 MiB allocation reported by mallinfo(arena+hblkhd)
        585398 MiB available memory on the node where the printing process lives
------------------
     ethr =  9.57E-12,  avg # of iterations =  1.8

     negative rho (up, down):  6.947E-04 0.000E+00

     add environment contribution to local potential

     total cpu time spent up to now is     2829.9 secs

     total energy              =   -1022.52770122 Ry
     estimated scf accuracy    <       0.00000002 Ry
     electrostatic embedding   =      -0.05846876 Ry
     cavitation energy         =       0.04332155 Ry
     electrolyte free energy   =      -0.00133176 Ry
     correction to one-el term =      13.71853560 Ry

     iteration # 52     ecut=    80.00 Ry     beta= 0.20
     Davidson diagonalization with overlap

---- Real-time Memory Report at c_bands before calling an iterative solver
          2243 MiB given to the printing process from OS
             0 MiB allocation reported by mallinfo(arena+hblkhd)
        585372 MiB available memory on the node where the printing process lives
------------------
     ethr =  9.03E-12,  avg # of iterations =  3.1

     negative rho (up, down):  7.013E-04 0.000E+00

     add environment contribution to local potential

     total cpu time spent up to now is     2877.2 secs

     total energy              =   -1022.52770115 Ry
     estimated scf accuracy    <       0.00000002 Ry
     electrostatic embedding   =      -0.05847316 Ry
     cavitation energy         =       0.04332155 Ry
     electrolyte free energy   =      -0.00133180 Ry
     correction to one-el term =      13.71893631 Ry

     iteration # 53     ecut=    80.00 Ry     beta= 0.20
     Davidson diagonalization with overlap

---- Real-time Memory Report at c_bands before calling an iterative solver
          2243 MiB given to the printing process from OS
             0 MiB allocation reported by mallinfo(arena+hblkhd)
        585342 MiB available memory on the node where the printing process lives
------------------
     ethr =  7.47E-12,  avg # of iterations =  1.8

     negative rho (up, down):  7.153E-04 0.000E+00

     add environment contribution to local potential

     total cpu time spent up to now is     2922.1 secs

     total energy              =   -1022.52770109 Ry
     estimated scf accuracy    <       0.00000001 Ry
     electrostatic embedding   =      -0.05847362 Ry
     cavitation energy         =       0.04332155 Ry
     electrolyte free energy   =      -0.00133174 Ry
     correction to one-el term =      13.71979031 Ry

     iteration # 54     ecut=    80.00 Ry     beta= 0.20
     Davidson diagonalization with overlap

---- Real-time Memory Report at c_bands before calling an iterative solver
          2243 MiB given to the printing process from OS
             0 MiB allocation reported by mallinfo(arena+hblkhd)
        585353 MiB available memory on the node where the printing process lives
------------------
     ethr =  6.44E-12,  avg # of iterations =  3.0

     negative rho (up, down):  7.198E-04 0.000E+00

     add environment contribution to local potential

     total cpu time spent up to now is     2968.7 secs

     total energy              =   -1022.52770110 Ry
     estimated scf accuracy    <       0.00000001 Ry
     electrostatic embedding   =      -0.05847177 Ry
     cavitation energy         =       0.04332155 Ry
     electrolyte free energy   =      -0.00133177 Ry
     correction to one-el term =      13.72081704 Ry

     iteration # 55     ecut=    80.00 Ry     beta= 0.20
     Davidson diagonalization with overlap

---- Real-time Memory Report at c_bands before calling an iterative solver
          2243 MiB given to the printing process from OS
             0 MiB allocation reported by mallinfo(arena+hblkhd)
        585355 MiB available memory on the node where the printing process lives
------------------
     ethr =  5.62E-12,  avg # of iterations =  2.0

     negative rho (up, down):  7.263E-04 0.000E+00

     add environment contribution to local potential

     total cpu time spent up to now is     3014.6 secs

     total energy              =   -1022.52770123 Ry
     estimated scf accuracy    <       0.00000001 Ry
     electrostatic embedding   =      -0.05847082 Ry
     cavitation energy         =       0.04332155 Ry
     electrolyte free energy   =      -0.00133189 Ry
     correction to one-el term =      13.72121901 Ry

     iteration # 56     ecut=    80.00 Ry     beta= 0.20
     Davidson diagonalization with overlap

---- Real-time Memory Report at c_bands before calling an iterative solver
          2243 MiB given to the printing process from OS
             0 MiB allocation reported by mallinfo(arena+hblkhd)
        585357 MiB available memory on the node where the printing process lives
------------------
     ethr =  5.12E-12,  avg # of iterations =  3.1

     negative rho (up, down):  7.283E-04 0.000E+00

     add environment contribution to local potential

     total cpu time spent up to now is     3062.4 secs

     total energy              =   -1022.52770130 Ry
     estimated scf accuracy    <          6.6E-09 Ry
     electrostatic embedding   =      -0.05846875 Ry
     cavitation energy         =       0.04332155 Ry
     electrolyte free energy   =      -0.00133202 Ry
     correction to one-el term =      13.72048713 Ry

     iteration # 57     ecut=    80.00 Ry     beta= 0.20
     Davidson diagonalization with overlap

---- Real-time Memory Report at c_bands before calling an iterative solver
          2243 MiB given to the printing process from OS
             0 MiB allocation reported by mallinfo(arena+hblkhd)
        585233 MiB available memory on the node where the printing process lives
------------------
     ethr =  3.25E-12,  avg # of iterations =  2.6

     negative rho (up, down):  7.146E-04 0.000E+00

     add environment contribution to local potential

     total cpu time spent up to now is     3109.0 secs

     total energy              =   -1022.52770115 Ry
     estimated scf accuracy    <          5.5E-09 Ry
     electrostatic embedding   =      -0.05846788 Ry
     cavitation energy         =       0.04332155 Ry
     electrolyte free energy   =      -0.00133200 Ry
     correction to one-el term =      13.72030283 Ry

     iteration # 58     ecut=    80.00 Ry     beta= 0.20
     Davidson diagonalization with overlap

[...]
     atom   63 type  1   force =     0.00012910    0.25727461   14.34496974
     atom   64 type  1   force =    -0.00029262    0.06673715    5.23309628
     atom   65 type  1   force =     0.00005348   -0.16764048   12.21980786
     atom   66 type  1   force =     0.00003115    0.17581417  -14.81749446
     atom   67 type  1   force =     0.00009637   -0.18037204  -11.93361901
     atom   68 type  1   force =    -0.00025754    0.05839229  -14.01279418
     The core correction contribution to forces
     atom    1 type  1   force =     0.00000000    0.00000000    0.00000000
     atom    2 type  1   force =     0.00000000    0.00000000    0.00000000
     atom    3 type  1   force =     0.00000000    0.00000000    0.00000000
     atom    4 type  1   force =     0.00000000    0.00000000    0.00000000
     atom    5 type  1   force =     0.00000000    0.00000000    0.00000000
     atom    6 type  1   force =     0.00000000    0.00000000    0.00000000
     atom    7 type  1   force =     0.00000000    0.00000000    0.00000000
     atom    8 type  1   force =     0.00000000    0.00000000    0.00000000
     atom    9 type  1   force =     0.00000000    0.00000000    0.00000000
     atom   10 type  1   force =     0.00000000    0.00000000    0.00000000
     atom   11 type  1   force =     0.00000000    0.00000000    0.00000000
     atom   12 type  1   force =     0.00000000    0.00000000    0.00000000
     atom   13 type  1   force =     0.00000000    0.00000000    0.00000000
     atom   14 type  1   force =     0.00000000    0.00000000    0.00000000
     atom   15 type  1   force =     0.00000000    0.00000000    0.00000000
     atom   16 type  1   force =     0.00000000    0.00000000    0.00000000
     atom   17 type  1   force =     0.00000000    0.00000000    0.00000000
     atom   18 type  1   force =     0.00000000    0.00000000    0.00000000
     atom   19 type  1   force =     0.00000000    0.00000000    0.00000000
     atom   20 type  1   force =     0.00000000    0.00000000    0.00000000
     atom   21 type  1   force =     0.00000000    0.00000000    0.00000000
     atom   22 type  1   force =     0.00000000    0.00000000    0.00000000
     atom   23 type  1   force =     0.00000000    0.00000000    0.00000000
     atom   24 type  1   force =     0.00000000    0.00000000    0.00000000
     atom   25 type  1   force =     0.00000000    0.00000000    0.00000000
     atom   26 type  1   force =     0.00000000    0.00000000    0.00000000
     atom   27 type  1   force =     0.00000000    0.00000000    0.00000000
     atom   28 type  1   force =     0.00000000    0.00000000    0.00000000
     atom   29 type  1   force =     0.00000000    0.00000000    0.00000000
     atom   30 type  1   force =     0.00000000    0.00000000    0.00000000
     atom   31 type  1   force =     0.00000000    0.00000000    0.00000000
     atom   32 type  1   force =     0.00000000    0.00000000    0.00000000
     atom   33 type  1   force =     0.00000000    0.00000000    0.00000000
     atom   34 type  1   force =     0.00000000    0.00000000    0.00000000
     atom   35 type  1   force =     0.00000000    0.00000000    0.00000000
     atom   36 type  1   force =     0.00000000    0.00000000    0.00000000
     atom   37 type  1   force =     0.00000000    0.00000000    0.00000000
     atom   38 type  1   force =     0.00000000    0.00000000    0.00000000
     atom   39 type  1   force =     0.00000000    0.00000000    0.00000000
     atom   40 type  1   force =     0.00000000    0.00000000    0.00000000
     atom   41 type  1   force =     0.00000000    0.00000000    0.00000000
     atom   42 type  1   force =     0.00000000    0.00000000    0.00000000
     atom   43 type  1   force =     0.00000000    0.00000000    0.00000000
     atom   44 type  1   force =     0.00000000    0.00000000    0.00000000
     atom   45 type  1   force =     0.00000000    0.00000000    0.00000000
     atom   46 type  1   force =     0.00000000    0.00000000    0.00000000
     atom   47 type  1   force =     0.00000000    0.00000000    0.00000000
     atom   48 type  1   force =     0.00000000    0.00000000    0.00000000
     atom   49 type  1   force =     0.00000000    0.00000000    0.00000000
     atom   50 type  1   force =     0.00000000    0.00000000    0.00000000
     atom   51 type  1   force =     0.00000000    0.00000000    0.00000000
     atom   52 type  1   force =     0.00000000    0.00000000    0.00000000
     atom   53 type  1   force =     0.00000000    0.00000000    0.00000000
     atom   54 type  1   force =     0.00000000    0.00000000    0.00000000
     atom   55 type  1   force =     0.00000000    0.00000000    0.00000000
     atom   56 type  1   force =     0.00000000    0.00000000    0.00000000
     atom   57 type  1   force =     0.00000000    0.00000000    0.00000000
     atom   58 type  1   force =     0.00000000    0.00000000    0.00000000
     atom   59 type  1   force =     0.00000000    0.00000000    0.00000000
     atom   60 type  1   force =     0.00000000    0.00000000    0.00000000
     atom   61 type  1   force =     0.00000000    0.00000000    0.00000000
     atom   62 type  1   force =     0.00000000    0.00000000    0.00000000
     atom   63 type  1   force =     0.00000000    0.00000000    0.00000000
     atom   64 type  1   force =     0.00000000    0.00000000    0.00000000
     atom   65 type  1   force =     0.00000000    0.00000000    0.00000000
     atom   66 type  1   force =     0.00000000    0.00000000    0.00000000
     atom   67 type  1   force =     0.00000000    0.00000000    0.00000000
     atom   68 type  1   force =     0.00000000    0.00000000    0.00000000
     The Hubbard contrib.    to forces
     atom    1 type  1   force =     0.00000000    0.00000000    0.00000000
     atom    2 type  1   force =     0.00000000    0.00000000    0.00000000
     atom    3 type  1   force =     0.00000000    0.00000000    0.00000000
     atom    4 type  1   force =     0.00000000    0.00000000    0.00000000
     atom    5 type  1   force =     0.00000000    0.00000000    0.00000000
     atom    6 type  1   force =     0.00000000    0.00000000    0.00000000
     atom    7 type  1   force =     0.00000000    0.00000000    0.00000000
     atom    8 type  1   force =     0.00000000    0.00000000    0.00000000
     atom    9 type  1   force =     0.00000000    0.00000000    0.00000000
     atom   10 type  1   force =     0.00000000    0.00000000    0.00000000
     atom   11 type  1   force =     0.00000000    0.00000000    0.00000000
     atom   12 type  1   force =     0.00000000    0.00000000    0.00000000
     atom   13 type  1   force =     0.00000000    0.00000000    0.00000000
     atom   14 type  1   force =     0.00000000    0.00000000    0.00000000
     atom   15 type  1   force =     0.00000000    0.00000000    0.00000000
     atom   16 type  1   force =     0.00000000    0.00000000    0.00000000
     atom   17 type  1   force =     0.00000000    0.00000000    0.00000000
     atom   18 type  1   force =     0.00000000    0.00000000    0.00000000
     atom   19 type  1   force =     0.00000000    0.00000000    0.00000000
     atom   20 type  1   force =     0.00000000    0.00000000    0.00000000
     atom   21 type  1   force =     0.00000000    0.00000000    0.00000000
     atom   22 type  1   force =     0.00000000    0.00000000    0.00000000
     atom   23 type  1   force =     0.00000000    0.00000000    0.00000000
     atom   24 type  1   force =     0.00000000    0.00000000    0.00000000
     atom   25 type  1   force =     0.00000000    0.00000000    0.00000000
     atom   26 type  1   force =     0.00000000    0.00000000    0.00000000
     atom   27 type  1   force =     0.00000000    0.00000000    0.00000000
     atom   28 type  1   force =     0.00000000    0.00000000    0.00000000
     atom   29 type  1   force =     0.00000000    0.00000000    0.00000000
     atom   30 type  1   force =     0.00000000    0.00000000    0.00000000
     atom   31 type  1   force =     0.00000000    0.00000000    0.00000000
     atom   32 type  1   force =     0.00000000    0.00000000    0.00000000
     atom   33 type  1   force =     0.00000000    0.00000000    0.00000000
     atom   34 type  1   force =     0.00000000    0.00000000    0.00000000
     atom   35 type  1   force =     0.00000000    0.00000000    0.00000000
     atom   36 type  1   force =     0.00000000    0.00000000    0.00000000
     atom   37 type  1   force =     0.00000000    0.00000000    0.00000000
     atom   38 type  1   force =     0.00000000    0.00000000    0.00000000
     atom   39 type  1   force =     0.00000000    0.00000000    0.00000000
     atom   40 type  1   force =     0.00000000    0.00000000    0.00000000
     atom   41 type  1   force =     0.00000000    0.00000000    0.00000000
     atom   42 type  1   force =     0.00000000    0.00000000    0.00000000
     atom   43 type  1   force =     0.00000000    0.00000000    0.00000000
     atom   44 type  1   force =     0.00000000    0.00000000    0.00000000
     atom   45 type  1   force =     0.00000000    0.00000000    0.00000000
     atom   46 type  1   force =     0.00000000    0.00000000    0.00000000
     atom   47 type  1   force =     0.00000000    0.00000000    0.00000000
     atom   48 type  1   force =     0.00000000    0.00000000    0.00000000
     atom   49 type  1   force =     0.00000000    0.00000000    0.00000000
     atom   50 type  1   force =     0.00000000    0.00000000    0.00000000
     atom   51 type  1   force =     0.00000000    0.00000000    0.00000000
     atom   52 type  1   force =     0.00000000    0.00000000    0.00000000
     atom   53 type  1   force =     0.00000000    0.00000000    0.00000000
     atom   54 type  1   force =     0.00000000    0.00000000    0.00000000
     atom   55 type  1   force =     0.00000000    0.00000000    0.00000000
     atom   56 type  1   force =     0.00000000    0.00000000    0.00000000
     atom   57 type  1   force =     0.00000000    0.00000000    0.00000000
     atom   58 type  1   force =     0.00000000    0.00000000    0.00000000
     atom   59 type  1   force =     0.00000000    0.00000000    0.00000000
     atom   60 type  1   force =     0.00000000    0.00000000    0.00000000
     atom   61 type  1   force =     0.00000000    0.00000000    0.00000000
     atom   62 type  1   force =     0.00000000    0.00000000    0.00000000
     atom   63 type  1   force =     0.00000000    0.00000000    0.00000000
     atom   64 type  1   force =     0.00000000    0.00000000    0.00000000
     atom   65 type  1   force =     0.00000000    0.00000000    0.00000000
     atom   66 type  1   force =     0.00000000    0.00000000    0.00000000
     atom   67 type  1   force =     0.00000000    0.00000000    0.00000000
     atom   68 type  1   force =     0.00000000    0.00000000    0.00000000
     The SCF correction term to forces
     atom    1 type  1   force =    -0.00000000   -0.00000000    0.00000000
     atom    2 type  1   force =    -0.00000000   -0.00000000    0.00000001
     atom    3 type  1   force =    -0.00000000   -0.00000000    0.00000001
     atom    4 type  1   force =    -0.00000000    0.00000000    0.00000001
     atom    5 type  1   force =    -0.00000000    0.00000000    0.00000001
     atom    6 type  1   force =    -0.00000000   -0.00000000    0.00000001
     atom    7 type  1   force =     0.00000000   -0.00000000    0.00000002
     atom    8 type  1   force =    -0.00000000   -0.00000000    0.00000001
     atom    9 type  1   force =     0.00000000    0.00000000    0.00000002
     atom   10 type  1   force =    -0.00000000    0.00000000    0.00000002
     atom   11 type  1   force =    -0.00000000    0.00000000    0.00000002
     atom   12 type  1   force =    -0.00000000   -0.00000000    0.00000002
     atom   13 type  1   force =    -0.00000000   -0.00000000    0.00000002
     atom   14 type  1   force =    -0.00000000   -0.00000000    0.00000001
     atom   15 type  1   force =    -0.00000000   -0.00000000    0.00000001
     atom   16 type  1   force =    -0.00000000   -0.00000000    0.00000001
     atom   17 type  1   force =    -0.00000000    0.00000000    0.00000001
     atom   18 type  1   force =    -0.00000000   -0.00000000    0.00000001
     atom   19 type  1   force =    -0.00000000   -0.00000000    0.00000001
     atom   20 type  1   force =    -0.00000000   -0.00000000    0.00000001
     atom   21 type  1   force =    -0.00000000    0.00000000    0.00000002
     atom   22 type  1   force =     0.00000000    0.00000000    0.00000002
     atom   23 type  1   force =    -0.00000000   -0.00000000    0.00000002
     atom   24 type  1   force =    -0.00000000   -0.00000000    0.00000002
     atom   25 type  1   force =    -0.00000000   -0.00000000    0.00000002
     atom   26 type  1   force =    -0.00000000   -0.00000000    0.00000002
     atom   27 type  1   force =    -0.00000000    0.00000000    0.00000002
     atom   28 type  1   force =    -0.00000000    0.00000000    0.00000001
     atom   29 type  1   force =    -0.00000000    0.00000000    0.00000000
     atom   30 type  1   force =    -0.00000000   -0.00000000    0.00000002
     atom   31 type  1   force =    -0.00000000   -0.00000000    0.00000000
     atom   32 type  1   force =    -0.00000000    0.00000000    0.00000001
     atom   33 type  1   force =     0.00000000   -0.00000000    0.00000001
     atom   34 type  1   force =    -0.00000000    0.00000000    0.00000000
     atom   35 type  1   force =     0.00000000   -0.00000000    0.00000000
     atom   36 type  1   force =     0.00000000   -0.00000000    0.00000001
     atom   37 type  1   force =    -0.00000000   -0.00000000    0.00000001
     atom   38 type  1   force =     0.00000000    0.00000000    0.00000001
     atom   39 type  1   force =     0.00000000    0.00000000    0.00000001
     atom   40 type  1   force =     0.00000000    0.00000000    0.00000002
     atom   41 type  1   force =     0.00000000   -0.00000000    0.00000002
     atom   42 type  1   force =     0.00000000   -0.00000000    0.00000001
     atom   43 type  1   force =     0.00000000    0.00000000    0.00000002
     atom   44 type  1   force =    -0.00000000    0.00000000    0.00000002
     atom   45 type  1   force =     0.00000000    0.00000000    0.00000002
     atom   46 type  1   force =     0.00000000    0.00000000    0.00000002
     atom   47 type  1   force =     0.00000000   -0.00000000    0.00000002
     atom   48 type  1   force =     0.00000000   -0.00000000    0.00000001
     atom   49 type  1   force =     0.00000000   -0.00000000    0.00000001
     atom   50 type  1   force =     0.00000000   -0.00000000    0.00000001
     atom   51 type  1   force =     0.00000000    0.00000000    0.00000001
     atom   52 type  1   force =     0.00000000   -0.00000000    0.00000001
     atom   53 type  1   force =     0.00000000   -0.00000000    0.00000001
     atom   54 type  1   force =    -0.00000000   -0.00000000    0.00000001
     atom   55 type  1   force =     0.00000000    0.00000000    0.00000002
     atom   56 type  1   force =    -0.00000000    0.00000000    0.00000002
     atom   57 type  1   force =     0.00000000    0.00000000    0.00000002
     atom   58 type  1   force =     0.00000000    0.00000000    0.00000001
     atom   59 type  1   force =     0.00000000    0.00000000    0.00000002
     atom   60 type  1   force =     0.00000000    0.00000000    0.00000002
     atom   61 type  1   force =     0.00000000    0.00000000    0.00000002
     atom   62 type  1   force =    -0.00000000    0.00000000    0.00000001
     atom   63 type  1   force =    -0.00000000    0.00000000    0.00000001
     atom   64 type  1   force =     0.00000000   -0.00000000    0.00000002
     atom   65 type  1   force =     0.00000000   -0.00000000    0.00000000
     atom   66 type  1   force =     0.00000000    0.00000000    0.00000000
     atom   67 type  1   force =    -0.00000000   -0.00000000    0.00000001
     atom   68 type  1   force =     0.00000000    0.00000000    0.00000000

     Total force =     0.000167     Total SCF correction =     0.000000
     Message from routine punch:
     Nothing written, as per user request (disk_io='none')
 
     init_run     :     30.34s CPU     31.97s WALL (       1 calls)
     electrons    :   5658.22s CPU   5714.58s WALL (       1 calls)
     forces       :     73.28s CPU     73.47s WALL (       1 calls)

     Called by init_run:
     wfcinit      :     12.52s CPU     12.86s WALL (       1 calls)
     wfcinit:wfcr :     11.76s CPU     12.08s WALL (      25 calls)
     potinit      :      0.45s CPU      0.72s WALL (       1 calls)
     hinit0       :      8.23s CPU      8.99s WALL (       1 calls)

     Called by electrons:
     c_bands      :   3984.42s CPU   4017.11s WALL (     118 calls)
     sum_band     :    627.43s CPU    639.43s WALL (     118 calls)
     v_of_rho     :     14.15s CPU     15.22s WALL (     119 calls)
     v_h          :      1.38s CPU      1.42s WALL (     119 calls)
     v_xc         :     12.78s CPU     13.79s WALL (     119 calls)
     newd         :     13.00s CPU     18.87s WALL (     119 calls)
     PAW_pot      :      2.34s CPU      2.44s WALL (     119 calls)
     mix_rho      :     44.53s CPU     45.39s WALL (     118 calls)

     Called by c_bands:
     init_us_2    :    121.13s CPU    121.49s WALL (    5950 calls)
     cegterg      :   3859.20s CPU   3891.13s WALL (    2955 calls)

     Called by sum_band:
     sum_band:wei :      0.36s CPU      0.36s WALL (     118 calls)
     sum_band:loo :    611.72s CPU    617.38s WALL (     118 calls)
     sum_band:buf :     11.77s CPU     11.82s WALL (    2950 calls)
     sum_band:ini :     59.57s CPU     59.67s WALL (    2950 calls)
     sum_band:cal :    170.69s CPU    170.84s WALL (    2950 calls)
     sum_band:bec :      3.04s CPU      3.09s WALL (    2950 calls)
     addusdens    :     13.05s CPU     19.25s WALL (     118 calls)
                                        0.00s GPU  (     118 calls)
     addusd:skk   :      3.09s CPU      6.15s WALL (     118 calls)
                                        0.00s GPU  (     118 calls)

     Called by *egterg:
     cdiaghg      :    212.96s CPU    214.16s WALL (   14616 calls)
     cegterg:over :    247.88s CPU    248.20s WALL (   11661 calls)
     cegterg:upda :    203.27s CPU    204.69s WALL (   11661 calls)
     cegterg:last :    311.17s CPU    311.58s WALL (    5101 calls)
     cdiaghg:chol :     17.71s CPU     17.88s WALL (   14616 calls)
     cdiaghg:inve :      5.20s CPU      5.26s WALL (   14616 calls)
     cdiaghg:para :     44.13s CPU     44.41s WALL (   29232 calls)
     h_psi        :   2397.01s CPU   2423.59s WALL (   14641 calls)
     s_psi        :    361.77s CPU    362.24s WALL (   14641 calls)
     g_psi        :      6.96s CPU      7.01s WALL (   11661 calls)

     Called by h_psi:
     h_psi:calbec :    435.97s CPU    436.89s WALL (   14641 calls)
     vloc_psi     :   1541.60s CPU   1566.11s WALL (   14641 calls)
                                        0.00s GPU  (   14641 calls)
     add_vuspsi   :    397.51s CPU    398.07s WALL (   14641 calls)

     General routines
     calbec       :    612.10s CPU    613.22s WALL (   17691 calls)
     fft          :     12.61s CPU     12.86s WALL (    1547 calls)
     ffts         :     22.12s CPU     22.33s WALL (   14628 calls)
     fftw         :   1778.10s CPU   1805.73s WALL ( 2435194 calls)
     interpolate  :      1.23s CPU      1.24s WALL (     119 calls)
 
     Parallel routines

     PAW routines
     PAW_pot      :      2.34s CPU      2.44s WALL (     119 calls)
 
     Environ routines
 
     PWSCF        :      1h36m CPU      1h37m WALL

 
   This run was terminated on:  13: 0:21  28Dec2024            

=------------------------------------------------------------------------------=
   JOB DONE.
=------------------------------------------------------------------------------=
