
     Program PWSCF v.7.4 starts on  3Jan2025 at 12: 0: 7 

     This program is part of the open-source Quantum ESPRESSO suite
     for quantum simulation of materials; please cite
         "P. Giannozzi et al., J. Phys.:Condens. Matter 21 395502 (2009);
         "P. Giannozzi et al., J. Phys.:Condens. Matter 29 465901 (2017);
         "P. Giannozzi et al., J. Chem. Phys. 152 154105 (2020);
          URL http://www.quantum-espresso.org", 
     in publications or presentations arising from this work. More details at
     http://www.quantum-espresso.org/quote

     Parallel version (MPI & OpenMP), running on     512 processor cores
     Number of MPI processes:               512
     Threads/MPI process:                     1

     MPI processes distributed on     4 nodes
     228392 MiB available memory on the printing compute node when the environment starts

     Reading input from espresso.pwi
Warning: card &CELL ignored
Warning: card    PRESS_CONV_THR   = 0.1 ignored
Warning: card    CELL_DOFREE      = 'ALL' ignored
Warning: card / ignored
Warning: card &FCP ignored
Warning: card / ignored
Warning: card &RISM ignored
Warning: card / ignored

     Current dimensions of program PWSCF are:
     Max number of different atomic species (ntypx) = 10
     Max number of k-points (npk) =  40000
     Max angular momentum in pseudopotentials (lmaxx) =  4

     IMPORTANT: XC functional enforced from input :
     Exchange-correlation= PBE
                           (   1   4   3   4   0   0   0)
     Any further DFT definition will be discarded
     Please, verify this is what you really want


     Reading input from environ.in:
     * using ionic solvent mode
     * setting boundary derivatives method to SSCS default
     * setting electrolyte-boundary derivatives method to SSCS default

Environ Warning (1001): card EOF ignored

     
     Found identity + (  0.5000  0.0000  0.0000) symmetry
     This is a supercell, fractional translations are disabled

     K-points division:     npool     =       2
     R & G space division:  proc/nbgrp/npool/nimage =     256
     Subspace diagonalization in iterative solution of the eigenvalue problem:
     one sub-group per band group will be used
     ELPA distributed-memory algorithm (size of sub-group:  2*  2 procs)


     Parallelization info
     --------------------
     sticks:   dense  smooth     PW     G-vecs:    dense   smooth      PW
     Min          91      36      9                56517    14280    1907
     Max          92      37     10                56562    14325    1964
     Sum       23389    9361   2459             14473305  3661695  495499

     Using Slab Decomposition



     bravais-lattice index     =           12
     lattice parameter (alat)  =      18.3607  a.u.
     unit-cell volume          =   37876.5244 (a.u.)^3
     number of atoms/cell      =           76
     number of atomic types    =            1
     number of electrons       =       228.00
     number of Kohn-Sham states=          171
     kinetic-energy cutoff     =      80.0000  Ry
     charge density cutoff     =     800.0000  Ry
     scf convergence threshold =      1.0E-06
     mixing beta               =       0.2000
     number of iterations used =            8  local-TF  mixing
     energy convergence thresh.=      1.0E-05
     force convergence thresh. =      3.9E-04
     Exchange-correlation= PBE
                           (   1   4   3   4   0   0   0)
     nstep                     =          999


     ================================================================================

                                  Environ Setup Summary

     ================================================================================

     Please cite

          O. Andreussi, I. Dabo and N. Marzari, J. Chem. Phys. 136, 064102 (2012)
          F. Nattino, M. Truscott, N. Marzari, and O. Andreussi, J. Chem. Phys. 150, 041722 (2019)

     in publications or presentations arising from this work.

     ================================================================================

     Parameters
     ==========

     compensation onset threshold      =               0.1000E+00
     static permittivity               =                    89.90
     surface tension in input (dyn/cm) =                    37.30
     surface tension in internal units =               0.4792E-04

     Solvent Boundary
     ================

     solvent mode                      =                    ionic
     derivatives method                =                   lowmem
     electrolyte derivatives method    =                   lowmem
     numerical core for derivatives    =                      fft
     switching function adopted        =                     SCCS
     density limit for vacuum region   =               0.5000E-02
     density limit for bulk solvent    =               0.1000E-03
     soft-sphere radius mode           =                    bondi
     soft-sphere softness              =                     0.50
     alpha                             =                     1.32

     Electrostatic Setup
     ===================

     electrostatic problem to solve    =                    modpb
     numerical solver adopted          =                   newton
     type of auxiliary density adopted =                     none
     numerical core for poisson        =                      fft
     adopting a nested solver scheme
     inner solver                      =                       cg
     inner core                        =                      fft
     type of pbc corrections           =                parabolic
     numerical core for corrections    =                      1da

     ================================================================================


     >>>>> Grand-Canonical SCF is activated <<<<<
     Initial Total Charge  =     0.000000 e
     Target Fermi Energy   =    -2.404000 eV
     Thr. of Fermi Energy  =     0.001000 eV
     Wave-shift of Kerker  =     0.400000 bohr^-1
     Wave-shift of Hartree =     1.500000 bohr^-1
     Mixing Rate of Fermi  =     0.050000

     celldm(1)=  18.360747  celldm(2)=   1.118034  celldm(3)=   5.615419
     celldm(4)=   0.223607  celldm(5)=   0.000000  celldm(6)=   0.000000

     crystal axes: (cart. coord. in units of alat)
               a(1) = (   1.000000   0.000000   0.000000 )  
               a(2) = (   0.250000   1.089725   0.000000 )  
               a(3) = (   0.000000   0.000000   5.615419 )  

     reciprocal axes: (cart. coord. in units 2 pi/alat)
               b(1) = (  1.000000 -0.229416  0.000000 )  
               b(2) = (  0.000000  0.917663  0.000000 )  
               b(3) = (  0.000000  0.000000  0.178081 )  


     PseudoPot. # 1 for Li read from file:
     /work/e89/e89/ba3g18/Repos/Pseudopotentials/Pslibrary/Li.pbe-sl-kjpaw_psl.1.0.0.UPF
     MD5 check sum: 3f4d2cafebb47c6c3aa8ed472e6f074d
     Pseudo is Projector augmented-wave, Zval =  3.0
     Generated using 'atomic' code by A. Dal Corso  v.7.4
     Shape of augmentation charge: PSQ
     Using radial grid of 1017 points,  4 beta functions with: 
                l(1) =   0
                l(2) =   0
                l(3) =   1
                l(4) =   1
     Q(r) pseudized with 0 coefficients 


     atomic species   valence    mass     pseudopotential
     Li                3.00     6.94000     Li( 1.00)

     No symmetry found


                                    s                        frac. trans.

      isym =  1     identity                                     

 cryst.   s( 1) = (     1          0          0      )
                  (     0          1          0      )
                  (     0          0          1      )

 cart.    s( 1) = (  1.0000000  0.0000000  0.0000000 )
                  (  0.0000000  1.0000000  0.0000000 )
                  (  0.0000000  0.0000000  1.0000000 )


     point group C_1 (1)    
     there are  1 classes
     the character table:

       E    
A      1.00

     the symmetry operations in each class and the name of the first element:

     E        1
          identity                                               

   Cartesian axes

     site n.     atom                  positions (alat units)
         1        Li     tau(   1) = (   0.0010106  -0.0652653   3.5582675  )
         2        Li     tau(   2) = (   0.2489803   0.7563107   2.0928696  )
         3        Li     tau(   3) = (   0.2490104   0.3867766   2.1968212  )
         4        Li     tau(   4) = (   0.2489576   0.0602942   2.3014124  )
         5        Li     tau(   5) = (   0.4989573   0.8120510   2.3201154  )
         6        Li     tau(   6) = (   0.4989716   0.4401561   2.4077535  )
         7        Li     tau(   7) = (   0.4989806   0.1125533   2.4969369  )
         8        Li     tau(   8) = (   0.2491329   0.8604345   2.5752496  )
         9        Li     tau(   9) = (   0.2493827   0.5186067   2.6653848  )
        10        Li     tau(  10) = (   0.2496438   0.1674365   2.7557577  )
        11        Li     tau(  11) = (   0.5001862   0.9129288   2.8337827  )
        12        Li     tau(  12) = (   0.5005098   0.5757108   2.9069077  )
        13        Li     tau(  13) = (   0.5007503   0.2338477   3.0063288  )
        14        Li     tau(  14) = (   0.2509532   0.9849240   3.0572295  )
        15        Li     tau(  15) = (   0.2510181   0.6311007   3.1340283  )
        16        Li     tau(  16) = (   0.2510443   0.2876826   3.2433724  )
        17        Li     tau(  17) = (   0.5010531   1.0302326   3.3250343  )
        18        Li     tau(  18) = (   0.5010225   0.7226172   3.4247181  )
        19        Li     tau(  19) = (   0.5009968   0.3460632   3.4761132  )
        20        Li     tau(  20) = (   0.2489468   0.9771550   2.2903845  )
        21        Li     tau(  21) = (   0.2489556   0.6299804   2.3720464  )
        22        Li     tau(  22) = (   0.2489818   0.2865620   2.4813907  )
        23        Li     tau(  23) = (   0.4990469   1.0224636   2.5581895  )
        24        Li     tau(  24) = (   0.4992499   0.6838154   2.6090900  )
        25        Li     tau(  25) = (   0.4994904   0.3419525   2.7085113  )
        26        Li     tau(  26) = (   0.4998141   0.0047340   2.7816362  )
        27        Li     tau(  27) = (   0.2503564   0.7502263   2.8596613  )
        28        Li     tau(  28) = (   0.2506175   0.3990565   2.9500340  )
        29        Li     tau(  29) = (   0.2508673   0.0572285   3.0401693  )
        30        Li     tau(  30) = (   0.5010194   0.8051094   3.1184821  )
        31        Li     tau(  31) = (   0.5010283   0.4775066   3.2076654  )
        32        Li     tau(  32) = (   0.5010425   0.1056118   3.2953034  )
        33        Li     tau(  33) = (   0.2510423   0.8573686   3.3140065  )
        34        Li     tau(  34) = (   0.2509894   0.5308865   3.4185978  )
        35        Li     tau(  35) = (   0.2510194   0.1613522   3.5225492  )
        36        Li     tau(  36) = (   0.4989891   0.9829279   2.0571512  )
        37        Li     tau(  37) = (   0.4990029   0.5715993   2.1393058  )
        38        Li     tau(  38) = (   0.4989774   0.1950458   2.1907007  )
        39        Li     tau(  39) = (   0.5010105  -0.0652652   3.5582675  )
        40        Li     tau(  40) = (   0.7489803   0.7563106   2.0928696  )
        41        Li     tau(  41) = (   0.7490104   0.3867766   2.1968212  )
        42        Li     tau(  42) = (   0.7489576   0.0602942   2.3014125  )
        43        Li     tau(  43) = (   0.9989573   0.8120511   2.3201154  )
        44        Li     tau(  44) = (   0.9989716   0.4401561   2.4077535  )
        45        Li     tau(  45) = (   0.9989806   0.1125533   2.4969368  )
        46        Li     tau(  46) = (   0.7491329   0.8604345   2.5752496  )
        47        Li     tau(  47) = (   0.7493828   0.5186067   2.6653848  )
        48        Li     tau(  48) = (   0.7496439   0.1674365   2.7557577  )
        49        Li     tau(  49) = (   1.0001862   0.9129288   2.8337827  )
        50        Li     tau(  50) = (   1.0005098   0.5757108   2.9069077  )
        51        Li     tau(  51) = (   1.0007503   0.2338476   3.0063287  )
        52        Li     tau(  52) = (   0.7509532   0.9849240   3.0572295  )
        53        Li     tau(  53) = (   0.7510181   0.6311007   3.1340284  )
        54        Li     tau(  54) = (   0.7510443   0.2876826   3.2433724  )
        55        Li     tau(  55) = (   1.0010531   1.0302326   3.3250343  )
        56        Li     tau(  56) = (   1.0010225   0.7226171   3.4247180  )
        57        Li     tau(  57) = (   1.0009968   0.3460632   3.4761131  )
        58        Li     tau(  58) = (   0.7489468   0.9771550   2.2903845  )
        59        Li     tau(  59) = (   0.7489556   0.6299804   2.3720465  )
        60        Li     tau(  60) = (   0.7489818   0.2865620   2.4813907  )
        61        Li     tau(  61) = (   0.9990469   1.0224637   2.5581895  )
        62        Li     tau(  62) = (   0.9992499   0.6838154   2.6090900  )
        63        Li     tau(  63) = (   0.9994904   0.3419525   2.7085113  )
        64        Li     tau(  64) = (   0.9998141   0.0047339   2.7816362  )
        65        Li     tau(  65) = (   0.7503563   0.7502263   2.8596613  )
        66        Li     tau(  66) = (   0.7506175   0.3990566   2.9500340  )
        67        Li     tau(  67) = (   0.7508673   0.0572285   3.0401693  )
        68        Li     tau(  68) = (   1.0010194   0.8051095   3.1184820  )
        69        Li     tau(  69) = (   1.0010283   0.4775065   3.2076653  )
        70        Li     tau(  70) = (   1.0010425   0.1056117   3.2953034  )
        71        Li     tau(  71) = (   0.7510423   0.8573686   3.3140065  )
        72        Li     tau(  72) = (   0.7509894   0.5308865   3.4185978  )
        73        Li     tau(  73) = (   0.7510195   0.1613522   3.5225492  )
        74        Li     tau(  74) = (   0.9989891   0.9829279   2.0571512  )
        75        Li     tau(  75) = (   0.9990029   0.5715994   2.1393058  )
        76        Li     tau(  76) = (   0.9989774   0.1950458   2.1907007  )

   Crystallographic axes

     site n.     atom                  positions (cryst. coord.)
         1        Li     tau(   1) = (  0.0159835 -0.0598915  0.6336602  )
         2        Li     tau(   2) = (  0.0754708  0.6940381  0.3727005  )
         3        Li     tau(   3) = (  0.1602778  0.3549304  0.3912123  )
         4        Li     tau(   4) = (  0.2351252  0.0553298  0.4098381  )
         5        Li     tau(   5) = (  0.3126601  0.7451890  0.4131687  )
         6        Li     tau(   6) = (  0.3979929  0.4039148  0.4287754  )
         7        Li     tau(   7) = (  0.4731591  0.1032860  0.4446573  )
         8        Li     tau(   8) = (  0.0517357  0.7895887  0.4586033  )
         9        Li     tau(   9) = (  0.1304062  0.4759060  0.4746547  )
        10        Li     tau(  10) = (  0.2112313  0.1536502  0.4907484  )
        11        Li     tau(  11) = (  0.2907460  0.8377607  0.5046431  )
        12        Li     tau(  12) = (  0.3684327  0.5283084  0.5176653  )
        13        Li     tau(  13) = (  0.4471020  0.2145933  0.5353703  )
        14        Li     tau(  14) = (  0.0249962  0.9038280  0.5444348  )
        15        Li     tau(  15) = (  0.1062337  0.5791376  0.5581112  )
        16        Li     tau(  16) = (  0.1850454  0.2639956  0.5775833  )
        17        Li     tau(  17) = (  0.2647016  0.9454061  0.5921258  )
        18        Li     tau(  18) = (  0.3352427  0.6631188  0.6098776  )
        19        Li     tau(  19) = (  0.4216045  0.3175693  0.6190301  )
        20        Li     tau(  20) = (  0.0247721  0.8966987  0.4078742  )
        21        Li     tau(  21) = (  0.1044282  0.5781096  0.4224166  )
        22        Li     tau(  22) = (  0.1832400  0.2629673  0.4418888  )
        23        Li     tau(  23) = (  0.2644777  0.9382768  0.4555652  )
        24        Li     tau(  24) = (  0.3423719  0.6275119  0.4646296  )
        25        Li     tau(  25) = (  0.4210411  0.3137971  0.4823347  )
        26        Li     tau(  26) = (  0.4987280  0.0043442  0.4953568  )
        27        Li     tau(  27) = (  0.0782427  0.6884547  0.5092516  )
        28        Li     tau(  28) = (  0.1590677  0.3661993  0.5253453  )
        29        Li     tau(  29) = (  0.2377382  0.0525165  0.5413967  )
        30        Li     tau(  30) = (  0.3163147  0.7388189  0.5553427  )
        31        Li     tau(  31) = (  0.3914808  0.4381900  0.5712246  )
        32        Li     tau(  32) = (  0.4768135  0.0969160  0.5868313  )
        33        Li     tau(  33) = (  0.0543485  0.7867752  0.5901619  )
        34        Li     tau(  34) = (  0.1291958  0.4871747  0.6087877  )
        35        Li     tau(  35) = (  0.2140027  0.1480669  0.6272994  )
        36        Li     tau(  36) = (  0.2734901  0.9019963  0.3663398  )
        37        Li     tau(  37) = (  0.3678690  0.5245354  0.3809699  )
        38        Li     tau(  38) = (  0.4542308  0.1789862  0.3901224  )
        39        Li     tau(  39) = (  0.5159834 -0.0598914  0.6336602  )
        40        Li     tau(  40) = (  0.5754708  0.6940381  0.3727005  )
        41        Li     tau(  41) = (  0.6602778  0.3549304  0.3912123  )
        42        Li     tau(  42) = (  0.7351251  0.0553298  0.4098381  )
        43        Li     tau(  43) = (  0.8126601  0.7451890  0.4131687  )
        44        Li     tau(  44) = (  0.8979929  0.4039149  0.4287754  )
        45        Li     tau(  45) = (  0.9731591  0.1032860  0.4446573  )
        46        Li     tau(  46) = (  0.5517357  0.7895887  0.4586033  )
        47        Li     tau(  47) = (  0.6304063  0.4759060  0.4746547  )
        48        Li     tau(  48) = (  0.7112313  0.1536503  0.4907484  )
        49        Li     tau(  49) = (  0.7907460  0.8377607  0.5046431  )
        50        Li     tau(  50) = (  0.8684327  0.5283084  0.5176653  )
        51        Li     tau(  51) = (  0.9471020  0.2145933  0.5353703  )
        52        Li     tau(  52) = (  0.5249962  0.9038280  0.5444348  )
        53        Li     tau(  53) = (  0.6062337  0.5791376  0.5581112  )
        54        Li     tau(  54) = (  0.6850454  0.2639956  0.5775833  )
        55        Li     tau(  55) = (  0.7647016  0.9454061  0.5921258  )
        56        Li     tau(  56) = (  0.8352428  0.6631188  0.6098776  )
        57        Li     tau(  57) = (  0.9216045  0.3175693  0.6190300  )
        58        Li     tau(  58) = (  0.5247721  0.8966987  0.4078742  )
        59        Li     tau(  59) = (  0.6044282  0.5781096  0.4224166  )
        60        Li     tau(  60) = (  0.6832400  0.2629673  0.4418888  )
        61        Li     tau(  61) = (  0.7644777  0.9382768  0.4555652  )
        62        Li     tau(  62) = (  0.8423719  0.6275119  0.4646296  )
        63        Li     tau(  63) = (  0.9210411  0.3137971  0.4823347  )
        64        Li     tau(  64) = (  0.9987280  0.0043442  0.4953568  )
        65        Li     tau(  65) = (  0.5782427  0.6884547  0.5092516  )
        66        Li     tau(  66) = (  0.6590677  0.3661993  0.5253453  )
        67        Li     tau(  67) = (  0.7377382  0.0525165  0.5413967  )
        68        Li     tau(  68) = (  0.8163146  0.7388189  0.5553427  )
        69        Li     tau(  69) = (  0.8914808  0.4381899  0.5712246  )
        70        Li     tau(  70) = (  0.9768135  0.0969160  0.5868313  )
        71        Li     tau(  71) = (  0.5543485  0.7867752  0.5901619  )
        72        Li     tau(  72) = (  0.6291957  0.4871747  0.6087877  )
        73        Li     tau(  73) = (  0.7140028  0.1480669  0.6272994  )
        74        Li     tau(  74) = (  0.7734900  0.9019963  0.3663398  )
        75        Li     tau(  75) = (  0.8678691  0.5245354  0.3809699  )
        76        Li     tau(  76) = (  0.9542308  0.1789862  0.3901224  )

     number of k points=    22  Marzari-Vanderbilt smearing, width (Ry)=  0.0100
                       cart. coord. in units 2pi/alat
        k(    1) = (   0.0000000   0.0000000   0.0000000), wk =   0.0476190
        k(    2) = (   0.0000000   0.1529438   0.0000000), wk =   0.0952381
        k(    3) = (   0.0000000   0.3058876   0.0000000), wk =   0.0952381
        k(    4) = (   0.0000000  -0.4588314   0.0000000), wk =   0.0476190
        k(    5) = (   0.1428571  -0.0327737   0.0000000), wk =   0.0952381
        k(    6) = (   0.1428571   0.1201701   0.0000000), wk =   0.0952381
        k(    7) = (   0.1428571   0.2731139   0.0000000), wk =   0.0952381
        k(    8) = (   0.1428571  -0.4916050   0.0000000), wk =   0.0952381
        k(    9) = (   0.1428571  -0.3386612   0.0000000), wk =   0.0952381
        k(   10) = (   0.1428571  -0.1857175   0.0000000), wk =   0.0952381
        k(   11) = (   0.2857143  -0.0655473   0.0000000), wk =   0.0952381
        k(   12) = (   0.2857143   0.0873964   0.0000000), wk =   0.0952381
        k(   13) = (   0.2857143   0.2403402   0.0000000), wk =   0.0952381
        k(   14) = (   0.2857143  -0.5243787   0.0000000), wk =   0.0952381
        k(   15) = (   0.2857143  -0.3714349   0.0000000), wk =   0.0952381
        k(   16) = (   0.2857143  -0.2184911   0.0000000), wk =   0.0952381
        k(   17) = (   0.4285714  -0.0983210   0.0000000), wk =   0.0952381
        k(   18) = (   0.4285714   0.0546228   0.0000000), wk =   0.0952381
        k(   19) = (   0.4285714   0.2075666   0.0000000), wk =   0.0952381
        k(   20) = (   0.4285714  -0.5571524   0.0000000), wk =   0.0952381
        k(   21) = (   0.4285714  -0.4042086   0.0000000), wk =   0.0952381
        k(   22) = (   0.4285714  -0.2512648   0.0000000), wk =   0.0952381

                       cryst. coord.
        k(    1) = (   0.0000000   0.0000000   0.0000000), wk =   0.0476190
        k(    2) = (   0.0000000   0.1666667   0.0000000), wk =   0.0952381
        k(    3) = (   0.0000000   0.3333333   0.0000000), wk =   0.0952381
        k(    4) = (   0.0000000  -0.5000000   0.0000000), wk =   0.0476190
        k(    5) = (   0.1428571   0.0000000   0.0000000), wk =   0.0952381
        k(    6) = (   0.1428571   0.1666667   0.0000000), wk =   0.0952381
        k(    7) = (   0.1428571   0.3333333   0.0000000), wk =   0.0952381
        k(    8) = (   0.1428571  -0.5000000   0.0000000), wk =   0.0952381
        k(    9) = (   0.1428571  -0.3333333   0.0000000), wk =   0.0952381
        k(   10) = (   0.1428571  -0.1666667   0.0000000), wk =   0.0952381
        k(   11) = (   0.2857143   0.0000000   0.0000000), wk =   0.0952381
        k(   12) = (   0.2857143   0.1666667   0.0000000), wk =   0.0952381
        k(   13) = (   0.2857143   0.3333333   0.0000000), wk =   0.0952381
        k(   14) = (   0.2857143  -0.5000000   0.0000000), wk =   0.0952381
        k(   15) = (   0.2857143  -0.3333333   0.0000000), wk =   0.0952381
        k(   16) = (   0.2857143  -0.1666667   0.0000000), wk =   0.0952381
        k(   17) = (   0.4285714   0.0000000   0.0000000), wk =   0.0952381
        k(   18) = (   0.4285714   0.1666667   0.0000000), wk =   0.0952381
        k(   19) = (   0.4285714   0.3333333   0.0000000), wk =   0.0952381
        k(   20) = (   0.4285714  -0.5000000   0.0000000), wk =   0.0952381
        k(   21) = (   0.4285714  -0.3333333   0.0000000), wk =   0.0952381
        k(   22) = (   0.4285714  -0.1666667   0.0000000), wk =   0.0952381

     Dense  grid: 14473305 G-vectors     FFT dimensions: ( 180, 192, 960)

     Smooth grid:  3661695 G-vectors     FFT dimensions: ( 108, 120, 600)

     Dynamical RAM for                 wfc:       4.66 MB

     Dynamical RAM for     wfc (w. buffer):      55.95 MB

     Dynamical RAM for           str. fact:       0.86 MB

     Dynamical RAM for           local pot:       0.00 MB

     Dynamical RAM for          nlocal pot:      16.58 MB

     Dynamical RAM for                qrad:       0.65 MB

     Dynamical RAM for          rho,v,vnew:       5.75 MB

     Dynamical RAM for               rhoin:       1.92 MB

     Dynamical RAM for            rho*nmix:      13.80 MB

     Dynamical RAM for           G-vectors:       3.34 MB

     Dynamical RAM for          h,s,v(r/c):       5.35 MB

     Dynamical RAM for          <psi|beta>:       1.59 MB

     Dynamical RAM for                 psi:      18.65 MB

     Dynamical RAM for                hpsi:      18.65 MB

     Dynamical RAM for                spsi:      18.65 MB

     Dynamical RAM for      wfcinit/wfcrot:      10.00 MB

     Dynamical RAM for           addusdens:      51.75 MB

     Dynamical RAM for          addusforce:     116.51 MB

     Estimated static dynamical RAM per process >      92.05 MB

     Estimated max dynamical RAM per process >     222.36 MB

     Estimated total dynamical RAM >     107.73 GB

     Initial potential from superposition of free atoms

     starting charge     227.6497, renormalised to     228.0000

     negative rho (up, down):  6.346E-03 0.000E+00
     Starting wfcs are random
     Checking if some PAW data can be deallocated... 

     total cpu time spent up to now is       51.8 secs

     Self-consistent Calculation

     iteration #  1     ecut=    80.00 Ry     beta= 0.20
     Davidson diagonalization with overlap

---- Real-time Memory Report at c_bands before calling an iterative solver
          1419 MiB given to the printing process from OS
             0 MiB allocation reported by mallinfo(arena+hblkhd)
        205594 MiB available memory on the node where the printing process lives
------------------
     c_bands:  3 eigenvalues not converged
     c_bands:  2 eigenvalues not converged
     ethr =  1.00E-12,  avg # of iterations =140.6

     negative rho (up, down):  4.694E-03 0.000E+00

     total cpu time spent up to now is      779.5 secs

     total energy              =   -1142.50517109 Ry
     estimated scf accuracy    <       0.22860965 Ry

     total charge of GC-SCF    =      -0.02657440 e
     the Fermi energy          =      -4.23047883 eV
                        (error :       1.82647883 eV)
     electrostatic embedding   =       0.00000000 Ry
     cavitation energy         =       0.04286773 Ry
     electrolyte free energy   =       0.01630252 Ry
     correction to one-el term =      -0.00000000 Ry

     iteration #  2     ecut=    80.00 Ry     beta= 0.20
     Davidson diagonalization with overlap

---- Real-time Memory Report at c_bands before calling an iterative solver
          1419 MiB given to the printing process from OS
             0 MiB allocation reported by mallinfo(arena+hblkhd)
        202335 MiB available memory on the node where the printing process lives
------------------
     ethr =  1.00E-05,  avg # of iterations = 12.6

     negative rho (up, down):  3.691E-03 0.000E+00

     total cpu time spent up to now is      858.2 secs

     total energy              =   -1142.94438508 Ry
     estimated scf accuracy    <       0.14162152 Ry

     total charge of GC-SCF    =      -0.01361379 e
     the Fermi energy          =      -2.84329116 eV
                        (error :       0.43929116 eV)
     electrostatic embedding   =      -0.00025127 Ry
     cavitation energy         =       0.04286773 Ry
     electrolyte free energy   =       0.01630252 Ry
     correction to one-el term =      -0.00000000 Ry

     iteration #  3     ecut=    80.00 Ry     beta= 0.20
     Davidson diagonalization with overlap

---- Real-time Memory Report at c_bands before calling an iterative solver
          1419 MiB given to the printing process from OS
             0 MiB allocation reported by mallinfo(arena+hblkhd)
        202001 MiB available memory on the node where the printing process lives
------------------
     ethr =  1.00E-05,  avg # of iterations = 10.4

     negative rho (up, down):  2.784E-03 0.000E+00

     add environment contribution to local potential

     total cpu time spent up to now is      930.5 secs

     total energy              =   -1142.74008649 Ry
     estimated scf accuracy    <       0.06774502 Ry

     total charge of GC-SCF    =       0.06002018 e
     the Fermi energy          =      -2.77028422 eV
                        (error :       0.36628422 eV)
     electrostatic embedding   =      -0.00012873 Ry
     cavitation energy         =       0.04286773 Ry
     electrolyte free energy   =       0.01630252 Ry
     correction to one-el term =      -0.00000000 Ry

     iteration #  4     ecut=    80.00 Ry     beta= 0.20
     Davidson diagonalization with overlap

---- Real-time Memory Report at c_bands before calling an iterative solver
          1419 MiB given to the printing process from OS
             0 MiB allocation reported by mallinfo(arena+hblkhd)
        202098 MiB available memory on the node where the printing process lives
------------------
     ethr =  1.00E-05,  avg # of iterations = 35.0

     negative rho (up, down):  2.381E-03 0.000E+00

     add environment contribution to local potential

     total cpu time spent up to now is     1081.6 secs

     total energy              =   -1142.83384423 Ry
     estimated scf accuracy    <       0.02282557 Ry

     total charge of GC-SCF    =      -0.03060661 e
     the Fermi energy          =      -2.57836674 eV
                        (error :       0.17436674 eV)
     electrostatic embedding   =      -0.03355035 Ry
     cavitation energy         =       0.04286773 Ry
     electrolyte free energy   =      -0.00157268 Ry
     correction to one-el term =       4.68847797 Ry

     iteration #  5     ecut=    80.00 Ry     beta= 0.20
     Davidson diagonalization with overlap

---- Real-time Memory Report at c_bands before calling an iterative solver
          1419 MiB given to the printing process from OS
             0 MiB allocation reported by mallinfo(arena+hblkhd)
        201976 MiB available memory on the node where the printing process lives
------------------
     ethr =  1.00E-05,  avg # of iterations = 13.4

     negative rho (up, down):  2.123E-03 0.000E+00

     add environment contribution to local potential

     total cpu time spent up to now is     1158.1 secs

     total energy              =   -1142.78744459 Ry
     estimated scf accuracy    <       0.01462520 Ry

     total charge of GC-SCF    =      -0.28910677 e
     the Fermi energy          =      -2.70597661 eV
                        (error :       0.30197661 eV)
     electrostatic embedding   =      -0.04035602 Ry
     cavitation energy         =       0.04286773 Ry
     electrolyte free energy   =      -0.00209661 Ry
     correction to one-el term =       6.96895976 Ry

     iteration #  6     ecut=    80.00 Ry     beta= 0.20
     Davidson diagonalization with overlap

---- Real-time Memory Report at c_bands before calling an iterative solver
          1419 MiB given to the printing process from OS
             0 MiB allocation reported by mallinfo(arena+hblkhd)
        201986 MiB available memory on the node where the printing process lives
------------------
     ethr =  6.41E-06,  avg # of iterations = 14.0

     negative rho (up, down):  1.815E-03 0.000E+00

     add environment contribution to local potential

     total cpu time spent up to now is     1257.1 secs

     total energy              =   -1142.76377227 Ry
     estimated scf accuracy    <       0.01224010 Ry

     total charge of GC-SCF    =      -0.37297834 e
     the Fermi energy          =      -2.79172147 eV
                        (error :       0.38772147 eV)
     electrostatic embedding   =      -0.07034579 Ry
     cavitation energy         =       0.04286773 Ry
     electrolyte free energy   =      -0.00240313 Ry
     correction to one-el term =      20.66741337 Ry

     iteration #  7     ecut=    80.00 Ry     beta= 0.20
     Davidson diagonalization with overlap

---- Real-time Memory Report at c_bands before calling an iterative solver
          1419 MiB given to the printing process from OS
             0 MiB allocation reported by mallinfo(arena+hblkhd)
        201885 MiB available memory on the node where the printing process lives
------------------
     ethr =  5.36E-06,  avg # of iterations = 21.3

     negative rho (up, down):  1.636E-03 0.000E+00

     add environment contribution to local potential

     total cpu time spent up to now is     1383.0 secs

     total energy              =   -1142.88418160 Ry
     estimated scf accuracy    <       0.00395598 Ry

     total charge of GC-SCF    =      -0.50295229 e
     the Fermi energy          =      -2.43858458 eV
                        (error :       0.03458458 eV)
     electrostatic embedding   =      -0.08044291 Ry
     cavitation energy         =       0.04286773 Ry
     electrolyte free energy   =      -0.00063511 Ry
     correction to one-el term =      28.25799831 Ry

     iteration #  8     ecut=    80.00 Ry     beta= 0.20
     Davidson diagonalization with overlap

---- Real-time Memory Report at c_bands before calling an iterative solver
          1419 MiB given to the printing process from OS
             0 MiB allocation reported by mallinfo(arena+hblkhd)
        201833 MiB available memory on the node where the printing process lives
------------------
     ethr =  1.73E-06,  avg # of iterations = 15.5

     negative rho (up, down):  1.547E-03 0.000E+00

     add environment contribution to local potential

     total cpu time spent up to now is     1474.1 secs

     total energy              =   -1142.85631319 Ry
     estimated scf accuracy    <       0.00767887 Ry

     total charge of GC-SCF    =      -0.69483855 e
     the Fermi energy          =      -2.35460938 eV
                        (error :       0.04939062 eV)
     electrostatic embedding   =      -0.10319394 Ry
     cavitation energy         =       0.04286773 Ry
     electrolyte free energy   =      -0.00113964 Ry
     correction to one-el term =      34.86002852 Ry

     iteration #  9     ecut=    80.00 Ry     beta= 0.20
     Davidson diagonalization with overlap

---- Real-time Memory Report at c_bands before calling an iterative solver
          1419 MiB given to the printing process from OS
             0 MiB allocation reported by mallinfo(arena+hblkhd)
        201808 MiB available memory on the node where the printing process lives
------------------
     ethr =  1.73E-06,  avg # of iterations = 14.9

     negative rho (up, down):  1.447E-03 0.000E+00

     add environment contribution to local potential

     total cpu time spent up to now is     1562.1 secs

     total energy              =   -1142.85362217 Ry
     estimated scf accuracy    <       0.00277453 Ry

     total charge of GC-SCF    =      -0.80864613 e
     the Fermi energy          =      -2.41679947 eV
                        (error :       0.01279947 eV)
     electrostatic embedding   =      -0.14432659 Ry
     cavitation energy         =       0.04286773 Ry
     electrolyte free energy   =      -0.00108533 Ry
     correction to one-el term =      41.99102653 Ry

     iteration # 10     ecut=    80.00 Ry     beta= 0.20
     Davidson diagonalization with overlap

---- Real-time Memory Report at c_bands before calling an iterative solver
          1419 MiB given to the printing process from OS
             0 MiB allocation reported by mallinfo(arena+hblkhd)
        201745 MiB available memory on the node where the printing process lives
------------------
     ethr =  1.21E-06,  avg # of iterations = 15.3

     negative rho (up, down):  1.305E-03 0.000E+00

     add environment contribution to local potential

     total cpu time spent up to now is     1651.0 secs

     total energy              =   -1142.86949320 Ry
     estimated scf accuracy    <       0.00051716 Ry

     total charge of GC-SCF    =      -0.93902797 e
     the Fermi energy          =      -2.49621500 eV
                        (error :       0.09221500 eV)
     electrostatic embedding   =      -0.17298518 Ry
     cavitation energy         =       0.04286773 Ry
     electrolyte free energy   =      -0.00107667 Ry
     correction to one-el term =      45.05206450 Ry

     iteration # 11     ecut=    80.00 Ry     beta= 0.20
     Davidson diagonalization with overlap

---- Real-time Memory Report at c_bands before calling an iterative solver
          1419 MiB given to the printing process from OS
             0 MiB allocation reported by mallinfo(arena+hblkhd)
        201612 MiB available memory on the node where the printing process lives
------------------
     ethr =  2.26E-07,  avg # of iterations = 22.5

     negative rho (up, down):  1.168E-03 0.000E+00

     add environment contribution to local potential

     total cpu time spent up to now is     1778.8 secs

     total energy              =   -1142.87232932 Ry
     estimated scf accuracy    <       0.00017814 Ry

     total charge of GC-SCF    =      -1.05271440 e
     the Fermi energy          =      -2.54032707 eV
                        (error :       0.13632707 eV)
     electrostatic embedding   =      -0.20525616 Ry
     cavitation energy         =       0.04286773 Ry
     electrolyte free energy   =      -0.00120699 Ry
     correction to one-el term =      48.42502183 Ry

     iteration # 12     ecut=    80.00 Ry     beta= 0.20
     Davidson diagonalization with overlap

---- Real-time Memory Report at c_bands before calling an iterative solver
          1419 MiB given to the printing process from OS
             0 MiB allocation reported by mallinfo(arena+hblkhd)
        201597 MiB available memory on the node where the printing process lives
------------------
     ethr =  7.78E-08,  avg # of iterations = 17.8

     negative rho (up, down):  1.055E-03 0.000E+00

     add environment contribution to local potential

     total cpu time spent up to now is     1885.7 secs

     total energy              =   -1142.87387230 Ry
     estimated scf accuracy    <       0.00013658 Ry

     total charge of GC-SCF    =      -1.16291704 e
     the Fermi energy          =      -2.51396915 eV
                        (error :       0.10996915 eV)
     electrostatic embedding   =      -0.23403319 Ry
     cavitation energy         =       0.04286773 Ry
     electrolyte free energy   =      -0.00126584 Ry
     correction to one-el term =      52.57016181 Ry

     iteration # 13     ecut=    80.00 Ry     beta= 0.20
     Davidson diagonalization with overlap

---- Real-time Memory Report at c_bands before calling an iterative solver
          1419 MiB given to the printing process from OS
             0 MiB allocation reported by mallinfo(arena+hblkhd)
        201203 MiB available memory on the node where the printing process lives
------------------
     ethr =  5.96E-08,  avg # of iterations = 14.7

     negative rho (up, down):  9.760E-04 0.000E+00

     add environment contribution to local potential

     total cpu time spent up to now is     1978.2 secs

     total energy              =   -1142.87478362 Ry
     estimated scf accuracy    <       0.00014123 Ry

     total charge of GC-SCF    =      -1.26377124 e
     the Fermi energy          =      -2.51471390 eV
                        (error :       0.11071390 eV)
     electrostatic embedding   =      -0.26445796 Ry
     cavitation energy         =       0.04286773 Ry
     electrolyte free energy   =      -0.00137522 Ry
     correction to one-el term =      56.03963884 Ry

     iteration # 14     ecut=    80.00 Ry     beta= 0.20
     Davidson diagonalization with overlap

---- Real-time Memory Report at c_bands before calling an iterative solver
          1419 MiB given to the printing process from OS
             0 MiB allocation reported by mallinfo(arena+hblkhd)
        201388 MiB available memory on the node where the printing process lives
------------------
     ethr =  5.96E-08,  avg # of iterations = 14.7

     negative rho (up, down):  9.116E-04 0.000E+00

     add environment contribution to local potential

     total cpu time spent up to now is     2070.1 secs

     total energy              =   -1142.87701860 Ry
     estimated scf accuracy    <       0.00003746 Ry

     total charge of GC-SCF    =      -1.35429332 e
     the Fermi energy          =      -2.51879986 eV
                        (error :       0.11479986 eV)
     electrostatic embedding   =      -0.29548682 Ry
     cavitation energy         =       0.04286773 Ry
     electrolyte free energy   =      -0.00154356 Ry
     correction to one-el term =      59.32348626 Ry

     iteration # 15     ecut=    80.00 Ry     beta= 0.20
     Davidson diagonalization with overlap

---- Real-time Memory Report at c_bands before calling an iterative solver
          1419 MiB given to the printing process from OS
             0 MiB allocation reported by mallinfo(arena+hblkhd)
        201494 MiB available memory on the node where the printing process lives
------------------
     ethr =  1.63E-08,  avg # of iterations = 15.6

     negative rho (up, down):  8.599E-04 0.000E+00

     add environment contribution to local potential

     total cpu time spent up to now is     2179.9 secs

     total energy              =   -1142.87799688 Ry
     estimated scf accuracy    <       0.00003677 Ry

     total charge of GC-SCF    =      -1.43942204 e
     the Fermi energy          =      -2.51281273 eV
                        (error :       0.10881273 eV)
     electrostatic embedding   =      -0.32370773 Ry
     cavitation energy         =       0.04286773 Ry
     electrolyte free energy   =      -0.00167475 Ry
     correction to one-el term =      62.39642966 Ry

     iteration # 16     ecut=    80.00 Ry     beta= 0.20
     Davidson diagonalization with overlap

---- Real-time Memory Report at c_bands before calling an iterative solver
          1419 MiB given to the printing process from OS
             0 MiB allocation reported by mallinfo(arena+hblkhd)
        201350 MiB available memory on the node where the printing process lives
------------------
     ethr =  1.60E-08,  avg # of iterations = 14.5

     negative rho (up, down):  8.175E-04 0.000E+00

     add environment contribution to local potential

     total cpu time spent up to now is     2278.1 secs

     total energy              =   -1142.87778387 Ry
     estimated scf accuracy    <       0.00003733 Ry

     total charge of GC-SCF    =      -1.58023252 e
     the Fermi energy          =      -2.50668228 eV
                        (error :       0.10268228 eV)
     electrostatic embedding   =      -0.35119918 Ry
     cavitation energy         =       0.04286773 Ry
     electrolyte free energy   =      -0.00180795 Ry
     correction to one-el term =      65.26773524 Ry

     iteration # 17     ecut=    80.00 Ry     beta= 0.20
     Davidson diagonalization with overlap

---- Real-time Memory Report at c_bands before calling an iterative solver
          1419 MiB given to the printing process from OS
             0 MiB allocation reported by mallinfo(arena+hblkhd)
        201516 MiB available memory on the node where the printing process lives
------------------
     ethr =  1.60E-08,  avg # of iterations = 20.9

     negative rho (up, down):  7.685E-04 0.000E+00

     add environment contribution to local potential

     total cpu time spent up to now is     2410.9 secs

     total energy              =   -1142.88620320 Ry
     estimated scf accuracy    <       0.00003005 Ry

     total charge of GC-SCF    =      -2.05815708 e
     the Fermi energy          =      -2.49640857 eV
                        (error :       0.09240857 eV)
     electrostatic embedding   =      -0.40029250 Ry
     cavitation energy         =       0.04286773 Ry
     electrolyte free energy   =      -0.00207935 Ry
     correction to one-el term =      70.15112891 Ry

     iteration # 18     ecut=    80.00 Ry     beta= 0.20
     Davidson diagonalization with overlap

---- Real-time Memory Report at c_bands before calling an iterative solver
          1419 MiB given to the printing process from OS
             0 MiB allocation reported by mallinfo(arena+hblkhd)
        201295 MiB available memory on the node where the printing process lives
------------------
     ethr =  1.31E-08,  avg # of iterations = 31.1

     negative rho (up, down):  7.471E-04 0.000E+00

     add environment contribution to local potential

     total cpu time spent up to now is     2577.3 secs

     total energy              =   -1142.88428580 Ry
     estimated scf accuracy    <       0.00001164 Ry

     total charge of GC-SCF    =      -2.27305621 e
     the Fermi energy          =      -2.45728630 eV
                        (error :       0.05328630 eV)
     electrostatic embedding   =      -0.59445700 Ry
     cavitation energy         =       0.04286773 Ry
     electrolyte free energy   =      -0.00332863 Ry
     correction to one-el term =      86.94007725 Ry

     iteration # 19     ecut=    80.00 Ry     beta= 0.20
     Davidson diagonalization with overlap

---- Real-time Memory Report at c_bands before calling an iterative solver
          1419 MiB given to the printing process from OS
             0 MiB allocation reported by mallinfo(arena+hblkhd)
        201399 MiB available memory on the node where the printing process lives
------------------
     ethr =  5.05E-09,  avg # of iterations = 38.5

     negative rho (up, down):  7.339E-04 0.000E+00

     add environment contribution to local potential

     total cpu time spent up to now is     2767.4 secs

     total energy              =   -1142.88465317 Ry
     estimated scf accuracy    <       0.00000815 Ry

     total charge of GC-SCF    =      -2.37925566 e
     the Fermi energy          =      -2.43655697 eV
                        (error :       0.03255697 eV)
     electrostatic embedding   =      -0.69541983 Ry
     cavitation energy         =       0.04286773 Ry
     electrolyte free energy   =      -0.00407826 Ry
     correction to one-el term =      94.61645685 Ry

     iteration # 20     ecut=    80.00 Ry     beta= 0.20
     Davidson diagonalization with overlap

---- Real-time Memory Report at c_bands before calling an iterative solver
          1419 MiB given to the printing process from OS
             0 MiB allocation reported by mallinfo(arena+hblkhd)
        201359 MiB available memory on the node where the printing process lives
------------------
     ethr =  3.54E-09,  avg # of iterations = 24.9

     negative rho (up, down):  7.211E-04 0.000E+00

     add environment contribution to local potential

     total cpu time spent up to now is     2898.8 secs

     total energy              =   -1142.88598405 Ry
     estimated scf accuracy    <       0.00000513 Ry

     total charge of GC-SCF    =      -2.54223660 e
     the Fermi energy          =      -2.42835897 eV
                        (error :       0.02435897 eV)
     electrostatic embedding   =      -0.74808953 Ry
     cavitation energy         =       0.04286773 Ry
     electrolyte free energy   =      -0.00448450 Ry
     correction to one-el term =      98.28140232 Ry

     iteration # 21     ecut=    80.00 Ry     beta= 0.20
     Davidson diagonalization with overlap

---- Real-time Memory Report at c_bands before calling an iterative solver
          1419 MiB given to the printing process from OS
             0 MiB allocation reported by mallinfo(arena+hblkhd)
        201280 MiB available memory on the node where the printing process lives
------------------
     c_bands:  1 eigenvalues not converged
     ethr =  2.23E-09,  avg # of iterations = 35.8

     negative rho (up, down):  7.099E-04 0.000E+00

     add environment contribution to local potential

     total cpu time spent up to now is     3081.7 secs

     total energy              =   -1142.88582181 Ry
     estimated scf accuracy    <       0.00000210 Ry

     total charge of GC-SCF    =      -2.64283196 e
     the Fermi energy          =      -2.41641748 eV
                        (error :       0.01241748 eV)
     electrostatic embedding   =      -0.83253661 Ry
     cavitation energy         =       0.04286773 Ry
     electrolyte free energy   =      -0.00515379 Ry
     correction to one-el term =     103.86275442 Ry

     iteration # 22     ecut=    80.00 Ry     beta= 0.20
     Davidson diagonalization with overlap

---- Real-time Memory Report at c_bands before calling an iterative solver
          1419 MiB given to the printing process from OS
             0 MiB allocation reported by mallinfo(arena+hblkhd)
        201389 MiB available memory on the node where the printing process lives
------------------
     ethr =  9.11E-10,  avg # of iterations = 30.7

     negative rho (up, down):  6.995E-04 0.000E+00

     add environment contribution to local potential

     total cpu time spent up to now is     3239.5 secs

     total energy              =   -1142.88561435 Ry
     estimated scf accuracy    <       0.00000090 Ry

     total charge of GC-SCF    =      -2.69266913 e
     the Fermi energy          =      -2.40951561 eV
                        (error :       0.00551561 eV)
     electrostatic embedding   =      -0.88664072 Ry
     cavitation energy         =       0.04286773 Ry
     electrolyte free energy   =      -0.00559404 Ry
     correction to one-el term =     107.25347548 Ry

     iteration # 23     ecut=    80.00 Ry     beta= 0.20
     Davidson diagonalization with overlap

---- Real-time Memory Report at c_bands before calling an iterative solver
          1419 MiB given to the printing process from OS
             0 MiB allocation reported by mallinfo(arena+hblkhd)
        201388 MiB available memory on the node where the printing process lives
------------------
     ethr =  3.90E-10,  avg # of iterations = 34.7

     negative rho (up, down):  6.922E-04 0.000E+00

     add environment contribution to local potential

     total cpu time spent up to now is     3402.8 secs

     total energy              =   -1142.88558307 Ry
     estimated scf accuracy    <       0.00000024 Ry

     total charge of GC-SCF    =      -2.72215715 e
     the Fermi energy          =      -2.40675943 eV
                        (error :       0.00275943 eV)
     electrostatic embedding   =      -0.91371492 Ry
     cavitation energy         =       0.04286773 Ry
     electrolyte free energy   =      -0.00581644 Ry
     correction to one-el term =     108.87254405 Ry

     iteration # 24     ecut=    80.00 Ry     beta= 0.20
     Davidson diagonalization with overlap

---- Real-time Memory Report at c_bands before calling an iterative solver
          1419 MiB given to the printing process from OS
             0 MiB allocation reported by mallinfo(arena+hblkhd)
        201318 MiB available memory on the node where the printing process lives
------------------
     ethr =  1.04E-10,  avg # of iterations = 42.1

     negative rho (up, down):  6.673E-04 0.000E+00

     total cpu time spent up to now is     3584.3 secs

     End of self-consistent calculation

          k = 0.0000 0.0000 0.0000 (457757 PWs)   bands (ev):

   -49.8874 -49.8873 -49.8872 -49.8871 -49.5315 -49.5314 -49.5314 -49.5312
   -49.3673 -49.3673 -49.3672 -49.3672 -49.3318 -49.3317 -49.3316 -49.3315
   -49.2067 -49.2067 -49.2064 -49.2064 -48.9743 -48.9737 -48.9724 -48.9721
   -48.9569 -48.9566 -48.9538 -48.9534 -48.9533 -48.9525 -48.9523 -48.9523
   -48.9479 -48.9479 -48.9472 -48.9471 -48.9469 -48.9468 -48.9466 -48.9466
   -48.9322 -48.9320 -48.9319 -48.9317 -48.9297 -48.9295 -48.9273 -48.9261
   -48.9259 -48.9257 -48.9257 -48.9255 -48.9222 -48.9219 -48.9214 -48.9201
   -48.9191 -48.9190 -48.9170 -48.9169 -48.9128 -48.9124 -48.9095 -48.9092
   -48.9081 -48.9080 -48.9079 -48.9056 -48.9025 -48.9024 -48.9023 -48.9000
   -48.8415 -48.8411 -48.8410 -48.8407  -5.8871  -5.6135  -5.1495  -4.8831
    -4.8814  -4.6364  -4.6338  -4.6081  -4.5989  -4.5278  -4.3536  -4.3508
    -4.1380  -4.1337  -4.1333  -4.1055  -3.8970  -3.8881  -3.8302  -3.8264
    -3.8253  -3.4968  -3.4536  -3.4069  -3.3859  -3.2277  -3.2043  -3.1440
    -3.1286  -3.0717  -2.9128  -2.9126  -2.7821  -2.7659  -2.7521  -2.7019
    -2.5257  -2.4906  -2.4500  -2.4256  -2.3073  -2.1989  -2.1427  -2.1187
    -2.0676  -2.0196  -1.9841  -1.9390  -1.8897  -1.7886  -1.7819  -1.7401
    -1.6915  -1.6821  -1.6722  -1.6691  -1.6383  -1.5735  -1.5224  -1.5175
    -1.4813  -1.3970  -1.3187  -1.2081  -1.0874  -1.0477  -1.0303  -0.8606
    -0.8510  -0.7974  -0.7641  -0.7280  -0.7075  -0.5653  -0.4652  -0.3718
    -0.3390  -0.2688  -0.2615  -0.2213  -0.1311  -0.0426   0.0107   0.0199
     0.1175   0.1578   0.1587   0.1768   0.2314   0.2971   0.3129   0.3408
     0.3544   0.4578   0.5574

     occupation numbers 
     1.0000   1.0000   1.0000   1.0000   1.0000   1.0000   1.0000   1.0000
     1.0000   1.0000   1.0000   1.0000   1.0000   1.0000   1.0000   1.0000
     1.0000   1.0000   1.0000   1.0000   1.0000   1.0000   1.0000   1.0000
     1.0000   1.0000   1.0000   1.0000   1.0000   1.0000   1.0000   1.0000
     1.0000   1.0000   1.0000   1.0000   1.0000   1.0000   1.0000   1.0000
     1.0000   1.0000   1.0000   1.0000   1.0000   1.0000   1.0000   1.0000
     1.0000   1.0000   1.0000   1.0000   1.0000   1.0000   1.0000   1.0000
     1.0000   1.0000   1.0000   1.0000   1.0000   1.0000   1.0000   1.0000
     1.0000   1.0000   1.0000   1.0000   1.0000   1.0000   1.0000   1.0000
     1.0000   1.0000   1.0000   1.0000   1.0000   1.0000   1.0000   1.0000
     1.0000   1.0000   1.0000   1.0000   1.0000   1.0000   1.0000   1.0000
     1.0000   1.0000   1.0000   1.0000   1.0000   1.0000   1.0000   1.0000
     1.0000   1.0000   1.0000   1.0000   1.0000   1.0000   1.0000   1.0000
     1.0000   1.0000   1.0000   1.0000   1.0038   1.0060   1.0086   1.0265
     0.9886   0.8552   0.6468   0.5119   0.0753   0.0038   0.0005   0.0002
     0.0000   0.0000   0.0000   0.0000   0.0000   0.0000   0.0000   0.0000
     0.0000   0.0000   0.0000   0.0000   0.0000   0.0000   0.0000   0.0000
     0.0000   0.0000   0.0000   0.0000   0.0000   0.0000   0.0000   0.0000
     0.0000   0.0000   0.0000   0.0000   0.0000   0.0000   0.0000   0.0000
     0.0000   0.0000   0.0000   0.0000   0.0000   0.0000   0.0000   0.0000
     0.0000   0.0000   0.0000   0.0000   0.0000   0.0000   0.0000   0.0000
     0.0000   0.0000   0.0000

          k = 0.0000 0.1529 0.0000 (457632 PWs)   bands (ev):

   -49.8874 -49.8873 -49.8872 -49.8871 -49.5315 -49.5314 -49.5314 -49.5312
   -49.3673 -49.3673 -49.3672 -49.3672 -49.3318 -49.3317 -49.3316 -49.3315
   -49.2067 -49.2067 -49.2064 -49.2064 -48.9743 -48.9737 -48.9724 -48.9721
   -48.9569 -48.9566 -48.9538 -48.9534 -48.9533 -48.9525 -48.9523 -48.9523
   -48.9479 -48.9479 -48.9472 -48.9471 -48.9469 -48.9468 -48.9466 -48.9466
   -48.9322 -48.9320 -48.9319 -48.9317 -48.9297 -48.9294 -48.9274 -48.9261
   -48.9259 -48.9257 -48.9257 -48.9255 -48.9221 -48.9219 -48.9214 -48.9202
   -48.9191 -48.9190 -48.9170 -48.9169 -48.9128 -48.9124 -48.9095 -48.9092
   -48.9081 -48.9080 -48.9079 -48.9056 -48.9025 -48.9024 -48.9023 -48.9000
   -48.8415 -48.8411 -48.8410 -48.8407  -5.8594  -5.5858  -5.1903  -5.1228
    -4.9086  -4.6908  -4.5497  -4.5242  -4.4918  -4.4070  -4.4042  -4.3560
    -4.2438  -4.2393  -4.0764  -3.9225  -3.8606  -3.8472  -3.7591  -3.7565
    -3.7296  -3.6026  -3.5754  -3.5380  -3.2817  -3.2662  -3.1203  -3.1168
    -3.1052  -3.0928  -2.9876  -2.9405  -2.8183  -2.7503  -2.5790  -2.5374
    -2.4810  -2.4611  -2.3985  -2.3624  -2.3532  -2.3388  -2.2983  -2.2549
    -2.2279  -2.2011  -2.1778  -2.1321  -1.9441  -1.8956  -1.8515  -1.8028
    -1.7678  -1.6958  -1.6808  -1.6016  -1.5882  -1.5491  -1.5063  -1.4472
    -1.2682  -1.2330  -1.1370  -1.1037  -1.0646  -1.0417  -0.9129  -0.8683
    -0.8456  -0.8116  -0.7405  -0.7120  -0.5044  -0.4894  -0.4604  -0.3729
    -0.3408  -0.2728  -0.2236  -0.1898  -0.0903  -0.0863  -0.0374  -0.0365
     0.1190   0.1787   0.2011   0.2324   0.2772   0.3090   0.3489   0.3816
     0.3856   0.3896   0.4353

     occupation numbers 
     1.0000   1.0000   1.0000   1.0000   1.0000   1.0000   1.0000   1.0000
     1.0000   1.0000   1.0000   1.0000   1.0000   1.0000   1.0000   1.0000
     1.0000   1.0000   1.0000   1.0000   1.0000   1.0000   1.0000   1.0000
     1.0000   1.0000   1.0000   1.0000   1.0000   1.0000   1.0000   1.0000
     1.0000   1.0000   1.0000   1.0000   1.0000   1.0000   1.0000   1.0000
     1.0000   1.0000   1.0000   1.0000   1.0000   1.0000   1.0000   1.0000
     1.0000   1.0000   1.0000   1.0000   1.0000   1.0000   1.0000   1.0000
     1.0000   1.0000   1.0000   1.0000   1.0000   1.0000   1.0000   1.0000
     1.0000   1.0000   1.0000   1.0000   1.0000   1.0000   1.0000   1.0000
     1.0000   1.0000   1.0000   1.0000   1.0000   1.0000   1.0000   1.0000
     1.0000   1.0000   1.0000   1.0000   1.0000   1.0000   1.0000   1.0000
     1.0000   1.0000   1.0000   1.0000   1.0000   1.0000   1.0000   1.0000
     1.0000   1.0000   1.0000   1.0000   1.0000   1.0000   1.0000   1.0000
     1.0000   1.0000   1.0000   1.0000   1.0012   1.0090   1.0787   1.0197
     0.8099   0.7075   0.3715   0.2174   0.1862   0.1432   0.0615   0.0206
     0.0095   0.0041   0.0018   0.0003   0.0000   0.0000   0.0000   0.0000
     0.0000   0.0000   0.0000   0.0000   0.0000   0.0000   0.0000   0.0000
     0.0000   0.0000   0.0000   0.0000   0.0000   0.0000   0.0000   0.0000
     0.0000   0.0000   0.0000   0.0000   0.0000   0.0000   0.0000   0.0000
     0.0000   0.0000   0.0000   0.0000   0.0000   0.0000   0.0000   0.0000
     0.0000   0.0000   0.0000   0.0000   0.0000   0.0000   0.0000   0.0000
     0.0000   0.0000   0.0000

          k = 0.0000 0.3059 0.0000 (457552 PWs)   bands (ev):

   -49.8874 -49.8873 -49.8872 -49.8871 -49.5315 -49.5314 -49.5314 -49.5312
   -49.3673 -49.3673 -49.3672 -49.3672 -49.3318 -49.3317 -49.3316 -49.3315
   -49.2067 -49.2067 -49.2064 -49.2064 -48.9742 -48.9737 -48.9724 -48.9721
   -48.9569 -48.9566 -48.9539 -48.9534 -48.9533 -48.9525 -48.9523 -48.9522
   -48.9480 -48.9479 -48.9472 -48.9471 -48.9469 -48.9467 -48.9466 -48.9466
   -48.9322 -48.9320 -48.9319 -48.9317 -48.9297 -48.9294 -48.9274 -48.9262
   -48.9259 -48.9257 -48.9257 -48.9255 -48.9219 -48.9217 -48.9214 -48.9205
   -48.9191 -48.9190 -48.9170 -48.9169 -48.9128 -48.9124 -48.9095 -48.9092
   -48.9081 -48.9080 -48.9079 -48.9056 -48.9025 -48.9024 -48.9023 -48.9000
   -48.8415 -48.8411 -48.8410 -48.8407  -5.7761  -5.5026  -5.4413  -5.1713
    -5.0283  -4.6989  -4.6908  -4.5242  -4.4070  -4.4063  -4.3560  -4.2437
    -4.0854  -4.0765  -4.0614  -3.9224  -3.8604  -3.8327  -3.7564  -3.6756
    -3.6030  -3.5754  -3.5383  -3.3424  -3.3337  -3.2816  -3.2660  -3.1167
    -3.0932  -3.0685  -2.9448  -2.9408  -2.8176  -2.7908  -2.7519  -2.6798
    -2.6036  -2.5795  -2.5371  -2.4616  -2.3618  -2.3503  -2.3137  -2.2970
    -2.2272  -2.2210  -2.1743  -2.1322  -2.0045  -1.9498  -1.9250  -1.8510
    -1.8371  -1.7691  -1.6813  -1.6533  -1.6345  -1.6016  -1.5057  -1.3489
    -1.2702  -1.1238  -1.1084  -1.0432  -1.0290  -0.9072  -0.8677  -0.8097
    -0.7689  -0.7419  -0.6752  -0.4590  -0.4232  -0.3433  -0.3420  -0.2818
    -0.2506  -0.2137  -0.1896  -0.1606  -0.0895  -0.0503  -0.0202   0.0197
     0.0606   0.0968   0.1625   0.2019   0.2562   0.2763   0.2980   0.3488
     0.3586   0.3824   0.4332

     occupation numbers 
     1.0000   1.0000   1.0000   1.0000   1.0000   1.0000   1.0000   1.0000
     1.0000   1.0000   1.0000   1.0000   1.0000   1.0000   1.0000   1.0000
     1.0000   1.0000   1.0000   1.0000   1.0000   1.0000   1.0000   1.0000
     1.0000   1.0000   1.0000   1.0000   1.0000   1.0000   1.0000   1.0000
     1.0000   1.0000   1.0000   1.0000   1.0000   1.0000   1.0000   1.0000
     1.0000   1.0000   1.0000   1.0000   1.0000   1.0000   1.0000   1.0000
     1.0000   1.0000   1.0000   1.0000   1.0000   1.0000   1.0000   1.0000
     1.0000   1.0000   1.0000   1.0000   1.0000   1.0000   1.0000   1.0000
     1.0000   1.0000   1.0000   1.0000   1.0000   1.0000   1.0000   1.0000
     1.0000   1.0000   1.0000   1.0000   1.0000   1.0000   1.0000   1.0000
     1.0000   1.0000   1.0000   1.0000   1.0000   1.0000   1.0000   1.0000
     1.0000   1.0000   1.0000   1.0000   1.0000   1.0000   1.0000   1.0000
     1.0000   1.0000   1.0000   1.0000   1.0000   1.0000   1.0000   1.0000
     1.0000   1.0000   1.0000   1.0000   1.0013   1.0029   1.0087   1.0391
     1.0827   1.0789   1.0190   0.7097   0.2155   0.1767   0.0864   0.0596
     0.0093   0.0077   0.0016   0.0003   0.0000   0.0000   0.0000   0.0000
     0.0000   0.0000   0.0000   0.0000   0.0000   0.0000   0.0000   0.0000
     0.0000   0.0000   0.0000   0.0000   0.0000   0.0000   0.0000   0.0000
     0.0000   0.0000   0.0000   0.0000   0.0000   0.0000   0.0000   0.0000
     0.0000   0.0000   0.0000   0.0000   0.0000   0.0000   0.0000   0.0000
     0.0000   0.0000   0.0000   0.0000   0.0000   0.0000   0.0000   0.0000
     0.0000   0.0000   0.0000

          k = 0.0000-0.4588 0.0000 (457642 PWs)   bands (ev):

   -49.8874 -49.8873 -49.8872 -49.8871 -49.5315 -49.5314 -49.5314 -49.5312
   -49.3673 -49.3673 -49.3672 -49.3672 -49.3318 -49.3317 -49.3316 -49.3315
   -49.2067 -49.2067 -49.2064 -49.2064 -48.9742 -48.9737 -48.9724 -48.9721
   -48.9569 -48.9566 -48.9539 -48.9534 -48.9533 -48.9525 -48.9523 -48.9522
   -48.9480 -48.9479 -48.9472 -48.9471 -48.9469 -48.9467 -48.9466 -48.9466
   -48.9322 -48.9319 -48.9319 -48.9317 -48.9297 -48.9294 -48.9275 -48.9262
   -48.9259 -48.9257 -48.9257 -48.9255 -48.9219 -48.9215 -48.9214 -48.9208
   -48.9191 -48.9190 -48.9170 -48.9169 -48.9128 -48.9124 -48.9095 -48.9092
   -48.9081 -48.9080 -48.9079 -48.9056 -48.9025 -48.9024 -48.9023 -48.9000
   -48.8415 -48.8411 -48.8410 -48.8407  -5.6448  -5.6286  -5.3776  -5.3486
    -4.9105  -4.8737  -4.6364  -4.6338  -4.3535  -4.3508  -4.2989  -4.2256
    -4.1379  -4.1333  -3.8970  -3.8882  -3.8304  -3.8264  -3.6136  -3.6065
    -3.6042  -3.5112  -3.4067  -3.3865  -3.3276  -3.3016  -3.2275  -3.2049
    -3.1443  -3.1292  -2.9126  -2.9121  -2.9089  -2.8604  -2.7861  -2.7662
    -2.7529  -2.7470  -2.5263  -2.4875  -2.4493  -2.4263  -2.2883  -2.1943
    -2.1860  -2.1437  -2.1123  -2.0921  -2.0410  -1.9846  -1.9393  -1.8997
    -1.7865  -1.6924  -1.6893  -1.6714  -1.6427  -1.5277  -1.5172  -1.4790
    -1.3762  -1.2919  -1.0646  -1.0297  -0.8585  -0.8512  -0.8462  -0.7303
    -0.7303  -0.7154  -0.6872  -0.5429  -0.4633  -0.3880  -0.3585  -0.2676
    -0.2241  -0.2210  -0.2110  -0.0520  -0.0405   0.1072   0.1421   0.1583
     0.1785   0.2124   0.2325   0.2405   0.2544   0.3031   0.3125   0.3149
     0.3180   0.3406   0.4285

     occupation numbers 
     1.0000   1.0000   1.0000   1.0000   1.0000   1.0000   1.0000   1.0000
     1.0000   1.0000   1.0000   1.0000   1.0000   1.0000   1.0000   1.0000
     1.0000   1.0000   1.0000   1.0000   1.0000   1.0000   1.0000   1.0000
     1.0000   1.0000   1.0000   1.0000   1.0000   1.0000   1.0000   1.0000
     1.0000   1.0000   1.0000   1.0000   1.0000   1.0000   1.0000   1.0000
     1.0000   1.0000   1.0000   1.0000   1.0000   1.0000   1.0000   1.0000
     1.0000   1.0000   1.0000   1.0000   1.0000   1.0000   1.0000   1.0000
     1.0000   1.0000   1.0000   1.0000   1.0000   1.0000   1.0000   1.0000
     1.0000   1.0000   1.0000   1.0000   1.0000   1.0000   1.0000   1.0000
     1.0000   1.0000   1.0000   1.0000   1.0000   1.0000   1.0000   1.0000
     1.0000   1.0000   1.0000   1.0000   1.0000   1.0000   1.0000   1.0000
     1.0000   1.0000   1.0000   1.0000   1.0000   1.0000   1.0000   1.0000
     1.0000   1.0000   1.0000   1.0000   1.0000   1.0000   1.0000   1.0000
     1.0000   1.0000   1.0000   1.0000   1.0000   1.0003   1.0034   1.0060
     1.0085   1.0098   0.9903   0.8411   0.6428   0.5158   0.0486   0.0032
     0.0024   0.0005   0.0001   0.0001   0.0000   0.0000   0.0000   0.0000
     0.0000   0.0000   0.0000   0.0000   0.0000   0.0000   0.0000   0.0000
     0.0000   0.0000   0.0000   0.0000   0.0000   0.0000   0.0000   0.0000
     0.0000   0.0000   0.0000   0.0000   0.0000   0.0000   0.0000   0.0000
     0.0000   0.0000   0.0000   0.0000   0.0000   0.0000   0.0000   0.0000
     0.0000   0.0000   0.0000   0.0000   0.0000   0.0000   0.0000   0.0000
     0.0000   0.0000   0.0000

          k = 0.1429-0.0328 0.0000 (457619 PWs)   bands (ev):

   -49.8874 -49.8873 -49.8872 -49.8871 -49.5315 -49.5314 -49.5314 -49.5312
   -49.3673 -49.3673 -49.3672 -49.3672 -49.3318 -49.3317 -49.3316 -49.3315
   -49.2067 -49.2067 -49.2064 -49.2064 -48.9742 -48.9736 -48.9725 -48.9722
   -48.9569 -48.9566 -48.9538 -48.9534 -48.9533 -48.9526 -48.9523 -48.9523
   -48.9479 -48.9478 -48.9472 -48.9471 -48.9469 -48.9468 -48.9467 -48.9467
   -48.9322 -48.9320 -48.9319 -48.9317 -48.9297 -48.9295 -48.9273 -48.9261
   -48.9259 -48.9258 -48.9257 -48.9255 -48.9222 -48.9218 -48.9213 -48.9201
   -48.9190 -48.9189 -48.9172 -48.9172 -48.9125 -48.9122 -48.9096 -48.9093
   -48.9083 -48.9082 -48.9075 -48.9057 -48.9026 -48.9023 -48.9022 -48.9001
   -48.8415 -48.8411 -48.8410 -48.8407  -5.8616  -5.5878  -5.1233  -4.9667
    -4.9288  -4.7856  -4.6861  -4.6499  -4.5121  -4.4958  -4.3969  -4.2543
    -4.2137  -4.1668  -4.1087  -4.0222  -3.9686  -3.8238  -3.7979  -3.6724
    -3.5795  -3.5500  -3.5241  -3.5035  -3.4619  -3.3761  -3.2907  -3.0774
    -3.0433  -3.0222  -2.8546  -2.8149  -2.7994  -2.7821  -2.7118  -2.6343
    -2.4995  -2.4494  -2.3382  -2.3056  -2.2772  -2.1717  -2.1277  -2.0868
    -2.0482  -2.0141  -1.9867  -1.9368  -1.9341  -1.9321  -1.8309  -1.7920
    -1.7458  -1.7271  -1.6940  -1.6399  -1.6082  -1.6026  -1.5958  -1.4891
    -1.4352  -1.4040  -1.2822  -1.2204  -1.2174  -1.1655  -1.0184  -0.9929
    -0.9509  -0.9155  -0.8384  -0.7719  -0.6581  -0.5548  -0.4472  -0.3811
    -0.3471  -0.3276  -0.2490  -0.2291  -0.1931  -0.1733  -0.0976  -0.0459
     0.0182   0.0579   0.2111   0.2486   0.2605   0.3075   0.3540   0.3994
     0.4320   0.5096   0.5678

     occupation numbers 
     1.0000   1.0000   1.0000   1.0000   1.0000   1.0000   1.0000   1.0000
     1.0000   1.0000   1.0000   1.0000   1.0000   1.0000   1.0000   1.0000
     1.0000   1.0000   1.0000   1.0000   1.0000   1.0000   1.0000   1.0000
     1.0000   1.0000   1.0000   1.0000   1.0000   1.0000   1.0000   1.0000
     1.0000   1.0000   1.0000   1.0000   1.0000   1.0000   1.0000   1.0000
     1.0000   1.0000   1.0000   1.0000   1.0000   1.0000   1.0000   1.0000
     1.0000   1.0000   1.0000   1.0000   1.0000   1.0000   1.0000   1.0000
     1.0000   1.0000   1.0000   1.0000   1.0000   1.0000   1.0000   1.0000
     1.0000   1.0000   1.0000   1.0000   1.0000   1.0000   1.0000   1.0000
     1.0000   1.0000   1.0000   1.0000   1.0000   1.0000   1.0000   1.0000
     1.0000   1.0000   1.0000   1.0000   1.0000   1.0000   1.0000   1.0000
     1.0000   1.0000   1.0000   1.0000   1.0000   1.0000   1.0000   1.0000
     1.0000   1.0000   1.0000   1.0000   1.0000   1.0000   1.0000   1.0000
     1.0000   1.0000   1.0003   1.0014   1.0023   1.0038   1.0218   1.0696
     0.8943   0.6434   0.1416   0.0725   0.0370   0.0015   0.0003   0.0000
     0.0000   0.0000   0.0000   0.0000   0.0000   0.0000   0.0000   0.0000
     0.0000   0.0000   0.0000   0.0000   0.0000   0.0000   0.0000   0.0000
     0.0000   0.0000   0.0000   0.0000   0.0000   0.0000   0.0000   0.0000
     0.0000   0.0000   0.0000   0.0000   0.0000   0.0000   0.0000   0.0000
     0.0000   0.0000   0.0000   0.0000   0.0000   0.0000   0.0000   0.0000
     0.0000   0.0000   0.0000   0.0000   0.0000   0.0000   0.0000   0.0000
     0.0000   0.0000   0.0000

          k = 0.1429 0.1202 0.0000 (457667 PWs)   bands (ev):

   -49.8874 -49.8873 -49.8872 -49.8871 -49.5315 -49.5314 -49.5314 -49.5312
   -49.3673 -49.3673 -49.3672 -49.3672 -49.3318 -49.3317 -49.3316 -49.3315
   -49.2067 -49.2067 -49.2064 -49.2064 -48.9742 -48.9736 -48.9725 -48.9722
   -48.9569 -48.9566 -48.9538 -48.9534 -48.9533 -48.9526 -48.9523 -48.9523
   -48.9479 -48.9478 -48.9472 -48.9471 -48.9469 -48.9468 -48.9467 -48.9467
   -48.9322 -48.9320 -48.9319 -48.9317 -48.9297 -48.9295 -48.9273 -48.9261
   -48.9259 -48.9258 -48.9257 -48.9255 -48.9221 -48.9218 -48.9214 -48.9202
   -48.9190 -48.9189 -48.9172 -48.9172 -48.9126 -48.9122 -48.9096 -48.9093
   -48.9083 -48.9082 -48.9075 -48.9057 -48.9026 -48.9023 -48.9022 -48.9001
   -48.8415 -48.8411 -48.8410 -48.8407  -5.8457  -5.5719  -5.1126  -5.1001
    -4.8678  -4.8243  -4.6293  -4.5886  -4.5848  -4.4879  -4.3526  -4.3325
    -4.3223  -4.2981  -4.1040  -4.0350  -3.8738  -3.8280  -3.7874  -3.6792
    -3.5649  -3.5427  -3.4578  -3.2836  -3.2245  -3.1745  -3.1357  -3.1027
    -3.0505  -2.9444  -2.9189  -2.8924  -2.8441  -2.7863  -2.7049  -2.5196
    -2.4878  -2.4724  -2.4374  -2.4246  -2.3362  -2.2861  -2.2848  -2.2686
    -2.2141  -2.1692  -2.0802  -2.0647  -2.0278  -1.9615  -1.9174  -1.7863
    -1.7794  -1.7499  -1.7122  -1.6766  -1.6685  -1.6052  -1.5728  -1.3676
    -1.3159  -1.3002  -1.1872  -1.1787  -1.1199  -1.0973  -1.0377  -0.9931
    -0.9272  -0.8148  -0.7536  -0.7288  -0.6286  -0.4355  -0.4131  -0.3489
    -0.3042  -0.2814  -0.2587  -0.2447  -0.1608  -0.1535  -0.0718  -0.0024
     0.0232   0.1139   0.1924   0.2335   0.2440   0.2962   0.2982   0.3784
     0.3920   0.4229   0.5262

     occupation numbers 
     1.0000   1.0000   1.0000   1.0000   1.0000   1.0000   1.0000   1.0000
     1.0000   1.0000   1.0000   1.0000   1.0000   1.0000   1.0000   1.0000
     1.0000   1.0000   1.0000   1.0000   1.0000   1.0000   1.0000   1.0000
     1.0000   1.0000   1.0000   1.0000   1.0000   1.0000   1.0000   1.0000
     1.0000   1.0000   1.0000   1.0000   1.0000   1.0000   1.0000   1.0000
     1.0000   1.0000   1.0000   1.0000   1.0000   1.0000   1.0000   1.0000
     1.0000   1.0000   1.0000   1.0000   1.0000   1.0000   1.0000   1.0000
     1.0000   1.0000   1.0000   1.0000   1.0000   1.0000   1.0000   1.0000
     1.0000   1.0000   1.0000   1.0000   1.0000   1.0000   1.0000   1.0000
     1.0000   1.0000   1.0000   1.0000   1.0000   1.0000   1.0000   1.0000
     1.0000   1.0000   1.0000   1.0000   1.0000   1.0000   1.0000   1.0000
     1.0000   1.0000   1.0000   1.0000   1.0000   1.0000   1.0000   1.0000
     1.0000   1.0000   1.0000   1.0000   1.0000   1.0000   1.0000   1.0000
     1.0000   1.0000   1.0000   1.0001   1.0005   1.0034   1.0250   0.9694
     0.8424   0.7668   0.5773   0.5068   0.1363   0.0461   0.0447   0.0297
     0.0062   0.0013   0.0000   0.0000   0.0000   0.0000   0.0000   0.0000
     0.0000   0.0000   0.0000   0.0000   0.0000   0.0000   0.0000   0.0000
     0.0000   0.0000   0.0000   0.0000   0.0000   0.0000   0.0000   0.0000
     0.0000   0.0000   0.0000   0.0000   0.0000   0.0000   0.0000   0.0000
     0.0000   0.0000   0.0000   0.0000   0.0000   0.0000   0.0000   0.0000
     0.0000   0.0000   0.0000   0.0000   0.0000   0.0000   0.0000   0.0000
     0.0000   0.0000   0.0000

          k = 0.1429 0.2731 0.0000 (457550 PWs)   bands (ev):

   -49.8874 -49.8873 -49.8872 -49.8871 -49.5315 -49.5314 -49.5314 -49.5312
   -49.3673 -49.3673 -49.3672 -49.3672 -49.3318 -49.3317 -49.3316 -49.3315
   -49.2067 -49.2067 -49.2064 -49.2064 -48.9742 -48.9736 -48.9725 -48.9722
   -48.9569 -48.9566 -48.9538 -48.9534 -48.9532 -48.9526 -48.9523 -48.9522
   -48.9479 -48.9478 -48.9472 -48.9471 -48.9469 -48.9468 -48.9467 -48.9467
   -48.9322 -48.9319 -48.9319 -48.9317 -48.9297 -48.9295 -48.9274 -48.9261
   -48.9259 -48.9259 -48.9257 -48.9255 -48.9218 -48.9218 -48.9214 -48.9205
   -48.9190 -48.9189 -48.9172 -48.9172 -48.9126 -48.9122 -48.9096 -48.9093
   -48.9083 -48.9082 -48.9075 -48.9057 -48.9026 -48.9023 -48.9022 -48.9001
   -48.8415 -48.8411 -48.8410 -48.8407  -5.7744  -5.5006  -5.3681  -5.1040
    -5.0199  -4.8090  -4.7116  -4.6280  -4.5317  -4.4317  -4.4015  -4.3344
    -4.1568  -4.0538  -4.0432  -3.9891  -3.9501  -3.8970  -3.6781  -3.5564
    -3.4333  -3.4100  -3.4054  -3.2942  -3.2669  -3.2503  -3.1612  -2.9847
    -2.9482  -2.9460  -2.9232  -2.9031  -2.7534  -2.7467  -2.7031  -2.6899
    -2.6447  -2.6421  -2.5522  -2.5432  -2.5311  -2.4389  -2.3242  -2.2373
    -2.2065  -2.1934  -2.1573  -2.1465  -2.1063  -2.0737  -1.9759  -1.8801
    -1.8074  -1.7984  -1.7955  -1.7716  -1.6652  -1.5194  -1.4065  -1.3618
    -1.3195  -1.2176  -1.1500  -1.1450  -1.0796  -1.0590  -1.0064  -0.8476
    -0.7463  -0.6876  -0.6411  -0.5770  -0.5088  -0.4219  -0.4102  -0.3571
    -0.3536  -0.2722  -0.2526  -0.1965  -0.1697   0.0024   0.0187   0.0515
     0.0960   0.1190   0.1915   0.2043   0.2380   0.2739   0.3465   0.3578
     0.3680   0.3850   0.4538

     occupation numbers 
     1.0000   1.0000   1.0000   1.0000   1.0000   1.0000   1.0000   1.0000
     1.0000   1.0000   1.0000   1.0000   1.0000   1.0000   1.0000   1.0000
     1.0000   1.0000   1.0000   1.0000   1.0000   1.0000   1.0000   1.0000
     1.0000   1.0000   1.0000   1.0000   1.0000   1.0000   1.0000   1.0000
     1.0000   1.0000   1.0000   1.0000   1.0000   1.0000   1.0000   1.0000
     1.0000   1.0000   1.0000   1.0000   1.0000   1.0000   1.0000   1.0000
     1.0000   1.0000   1.0000   1.0000   1.0000   1.0000   1.0000   1.0000
     1.0000   1.0000   1.0000   1.0000   1.0000   1.0000   1.0000   1.0000
     1.0000   1.0000   1.0000   1.0000   1.0000   1.0000   1.0000   1.0000
     1.0000   1.0000   1.0000   1.0000   1.0000   1.0000   1.0000   1.0000
     1.0000   1.0000   1.0000   1.0000   1.0000   1.0000   1.0000   1.0000
     1.0000   1.0000   1.0000   1.0000   1.0000   1.0000   1.0000   1.0000
     1.0000   1.0000   1.0000   1.0000   1.0000   1.0000   1.0000   1.0000
     1.0000   1.0000   1.0000   1.0000   1.0083   1.0099   1.0259   1.0330
     1.0629   1.0646   1.0497   1.0328   1.0038   0.5852   0.1076   0.0125
     0.0049   0.0031   0.0009   0.0006   0.0001   0.0000   0.0000   0.0000
     0.0000   0.0000   0.0000   0.0000   0.0000   0.0000   0.0000   0.0000
     0.0000   0.0000   0.0000   0.0000   0.0000   0.0000   0.0000   0.0000
     0.0000   0.0000   0.0000   0.0000   0.0000   0.0000   0.0000   0.0000
     0.0000   0.0000   0.0000   0.0000   0.0000   0.0000   0.0000   0.0000
     0.0000   0.0000   0.0000   0.0000   0.0000   0.0000   0.0000   0.0000
     0.0000   0.0000   0.0000

          k = 0.1429-0.4916 0.0000 (457620 PWs)   bands (ev):

   -49.8874 -49.8873 -49.8872 -49.8871 -49.5315 -49.5314 -49.5314 -49.5312
   -49.3673 -49.3673 -49.3672 -49.3672 -49.3318 -49.3317 -49.3316 -49.3315
   -49.2067 -49.2067 -49.2064 -49.2064 -48.9741 -48.9737 -48.9725 -48.9722
   -48.9569 -48.9566 -48.9539 -48.9534 -48.9532 -48.9526 -48.9523 -48.9522
   -48.9479 -48.9478 -48.9472 -48.9471 -48.9469 -48.9468 -48.9467 -48.9467
   -48.9322 -48.9319 -48.9319 -48.9317 -48.9297 -48.9295 -48.9274 -48.9261
   -48.9259 -48.9259 -48.9257 -48.9255 -48.9218 -48.9215 -48.9214 -48.9208
   -48.9190 -48.9189 -48.9172 -48.9172 -48.9126 -48.9122 -48.9096 -48.9093
   -48.9083 -48.9082 -48.9075 -48.9057 -48.9026 -48.9023 -48.9022 -48.9001
   -48.8415 -48.8411 -48.8410 -48.8407  -5.6480  -5.5745  -5.3759  -5.2990
    -4.9310  -4.9061  -4.8261  -4.6509  -4.5030  -4.2903  -4.2872  -4.2380
    -4.1840  -4.1548  -4.0037  -3.7587  -3.7173  -3.6917  -3.6002  -3.5346
    -3.5045  -3.4799  -3.4669  -3.4270  -3.3925  -3.3702  -3.1866  -3.1273
    -3.1131  -2.9917  -2.9570  -2.9048  -2.8107  -2.8076  -2.7676  -2.7629
    -2.6855  -2.6718  -2.6481  -2.3975  -2.3779  -2.3166  -2.2797  -2.2574
    -2.2272  -2.1965  -2.1576  -2.0778  -2.0514  -2.0350  -1.9747  -1.8674
    -1.8549  -1.7947  -1.7738  -1.7116  -1.6738  -1.5354  -1.3384  -1.3133
    -1.2752  -1.2695  -1.2535  -1.1850  -1.0588  -0.9887  -0.9178  -0.8491
    -0.7931  -0.7839  -0.7369  -0.6241  -0.5502  -0.5057  -0.4287  -0.4003
    -0.2960  -0.2084  -0.1686  -0.0994  -0.0813  -0.0161   0.0370   0.1385
     0.1933   0.1964   0.2563   0.2681   0.3108   0.3665   0.3744   0.3855
     0.4023   0.4680   0.4859

     occupation numbers 
     1.0000   1.0000   1.0000   1.0000   1.0000   1.0000   1.0000   1.0000
     1.0000   1.0000   1.0000   1.0000   1.0000   1.0000   1.0000   1.0000
     1.0000   1.0000   1.0000   1.0000   1.0000   1.0000   1.0000   1.0000
     1.0000   1.0000   1.0000   1.0000   1.0000   1.0000   1.0000   1.0000
     1.0000   1.0000   1.0000   1.0000   1.0000   1.0000   1.0000   1.0000
     1.0000   1.0000   1.0000   1.0000   1.0000   1.0000   1.0000   1.0000
     1.0000   1.0000   1.0000   1.0000   1.0000   1.0000   1.0000   1.0000
     1.0000   1.0000   1.0000   1.0000   1.0000   1.0000   1.0000   1.0000
     1.0000   1.0000   1.0000   1.0000   1.0000   1.0000   1.0000   1.0000
     1.0000   1.0000   1.0000   1.0000   1.0000   1.0000   1.0000   1.0000
     1.0000   1.0000   1.0000   1.0000   1.0000   1.0000   1.0000   1.0000
     1.0000   1.0000   1.0000   1.0000   1.0000   1.0000   1.0000   1.0000
     1.0000   1.0000   1.0000   1.0000   1.0000   1.0000   1.0000   1.0000
     1.0000   1.0000   1.0000   1.0000   1.0016   1.0017   1.0057   1.0065
     1.0356   1.0443   1.0606   0.3666   0.2778   0.0920   0.0394   0.0220
     0.0093   0.0035   0.0009   0.0000   0.0000   0.0000   0.0000   0.0000
     0.0000   0.0000   0.0000   0.0000   0.0000   0.0000   0.0000   0.0000
     0.0000   0.0000   0.0000   0.0000   0.0000   0.0000   0.0000   0.0000
     0.0000   0.0000   0.0000   0.0000   0.0000   0.0000   0.0000   0.0000
     0.0000   0.0000   0.0000   0.0000   0.0000   0.0000   0.0000   0.0000
     0.0000   0.0000   0.0000   0.0000   0.0000   0.0000   0.0000   0.0000
     0.0000   0.0000   0.0000

          k = 0.1429-0.3387 0.0000 (457624 PWs)   bands (ev):

   -49.8874 -49.8873 -49.8872 -49.8871 -49.5315 -49.5314 -49.5314 -49.5312
   -49.3673 -49.3673 -49.3672 -49.3672 -49.3318 -49.3317 -49.3316 -49.3315
   -49.2067 -49.2067 -49.2064 -49.2064 -48.9742 -48.9737 -48.9725 -48.9722
   -48.9569 -48.9566 -48.9539 -48.9534 -48.9532 -48.9526 -48.9523 -48.9522
   -48.9479 -48.9478 -48.9472 -48.9471 -48.9469 -48.9468 -48.9467 -48.9467
   -48.9322 -48.9319 -48.9319 -48.9317 -48.9297 -48.9295 -48.9274 -48.9261
   -48.9259 -48.9258 -48.9257 -48.9255 -48.9219 -48.9216 -48.9213 -48.9206
   -48.9190 -48.9189 -48.9172 -48.9172 -48.9125 -48.9122 -48.9096 -48.9093
   -48.9083 -48.9082 -48.9075 -48.9057 -48.9026 -48.9023 -48.9022 -48.9001
   -48.8415 -48.8411 -48.8410 -48.8407  -5.7268  -5.4638  -5.4532  -5.1913
    -4.9984  -4.9807  -4.7193  -4.7175  -4.3570  -4.2462  -4.2318  -4.1904
    -4.0819  -3.9648  -3.9632  -3.9478  -3.9059  -3.7753  -3.7286  -3.6713
    -3.6094  -3.6071  -3.5026  -3.4637  -3.4080  -3.3631  -3.2193  -3.1877
    -3.1646  -3.0425  -2.9129  -2.8981  -2.8779  -2.7994  -2.7497  -2.6396
    -2.5577  -2.5441  -2.5046  -2.4725  -2.4041  -2.2973  -2.2157  -2.1805
    -2.1761  -2.0875  -2.0683  -2.0301  -1.9900  -1.9095  -1.8796  -1.8365
    -1.8133  -1.7793  -1.7529  -1.7284  -1.6807  -1.5748  -1.3769  -1.3029
    -1.2879  -1.2659  -1.2447  -1.2362  -1.0601  -1.0273  -1.0129  -0.9456
    -0.8860  -0.7041  -0.6665  -0.6475  -0.5481  -0.5057  -0.4843  -0.3709
    -0.3622  -0.2832  -0.2272  -0.2225  -0.1250  -0.0760   0.0320   0.0658
     0.1098   0.1699   0.1951   0.2371   0.3341   0.3385   0.3971   0.4237
     0.4527   0.4642   0.4837

     occupation numbers 
     1.0000   1.0000   1.0000   1.0000   1.0000   1.0000   1.0000   1.0000
     1.0000   1.0000   1.0000   1.0000   1.0000   1.0000   1.0000   1.0000
     1.0000   1.0000   1.0000   1.0000   1.0000   1.0000   1.0000   1.0000
     1.0000   1.0000   1.0000   1.0000   1.0000   1.0000   1.0000   1.0000
     1.0000   1.0000   1.0000   1.0000   1.0000   1.0000   1.0000   1.0000
     1.0000   1.0000   1.0000   1.0000   1.0000   1.0000   1.0000   1.0000
     1.0000   1.0000   1.0000   1.0000   1.0000   1.0000   1.0000   1.0000
     1.0000   1.0000   1.0000   1.0000   1.0000   1.0000   1.0000   1.0000
     1.0000   1.0000   1.0000   1.0000   1.0000   1.0000   1.0000   1.0000
     1.0000   1.0000   1.0000   1.0000   1.0000   1.0000   1.0000   1.0000
     1.0000   1.0000   1.0000   1.0000   1.0000   1.0000   1.0000   1.0000
     1.0000   1.0000   1.0000   1.0000   1.0000   1.0000   1.0000   1.0000
[...]
     atom   66 type  1   force =    -0.00000001   -0.00000005   -0.00000069
     atom   67 type  1   force =     0.00000001    0.00000006   -0.00000096
     atom   68 type  1   force =     0.00000000    0.00000003   -0.00000112
     atom   69 type  1   force =     0.00000000    0.00000002   -0.00000116
     atom   70 type  1   force =    -0.00000001   -0.00000007   -0.00000084
     atom   71 type  1   force =     0.00000001    0.00000012   -0.00000144
     atom   72 type  1   force =     0.00000002    0.00000006   -0.00000456
     atom   73 type  1   force =    -0.00000004   -0.00000020   -0.00000179
     atom   74 type  1   force =     0.00000006    0.00000024   -0.00000206
     atom   75 type  1   force =    -0.00000002    0.00000020    0.00000054
     atom   76 type  1   force =    -0.00000002   -0.00000017    0.00000236

     Total force =     0.008055     Total SCF correction =     0.000015
     Energy error            =      1.2E-04 Ry
     Gradient error          =      1.4E-03 Ry/Bohr

     number of scf cycles    =  20
     number of bfgs steps    =  19

     energy             old  =   -1142.8934253814 Ry
     energy             new  =   -1142.8935411263 Ry

     CASE: energy            _new < energy            _old

     new trust radius        =       0.0043803808 bohr
     new conv_thr            =            3.6E-12 Ry


ATOMIC_POSITIONS (angstrom)
Li               0.0098650415       -0.5177661486       34.4460121432
Li               2.4188919678        7.2801584233       20.4135185274
Li               2.4189560471        3.7862105801       21.2748036983
Li               2.4185949066        0.6849617653       22.2767232556
Li               4.8477132569        7.8406257046       22.6023398971
Li               4.8479535968        4.2893685370       23.4401105272
Li               4.8479027304        1.0827255361       24.2947352292
Li               2.4203266130        8.3644096792       24.9801043252
Li               2.4229394895        5.0799701423       25.9113572781
Li               2.4257735305        1.5884782753       26.8163219110
Li               4.8599250112        8.8694930000       27.4877358488
Li               4.8632084894        5.6458695795       28.1901653070
Li               4.8654805003        2.2650122315       29.2249147958
Li               2.4385967006        9.5043117714       29.7771309466
Li               2.4391853042        6.1441769297       30.4029781085
Li               2.4390222664        2.8407467921       31.4767501847
Li               4.8683359307        9.9428866533       32.3343174673
Li               4.8682072238        6.9127298481       33.2264212577
Li               4.8684892919        3.4004548493       33.7659870211
Li               2.4186616505        9.5232457733       22.2350782219
Li               2.4191605355        6.0948735685       23.0877004578
Li               2.4191741127        2.8086208177       24.1420761237
Li               4.8486342753        9.9432081681       24.7815338134
Li               4.8505844633        6.6618562240       25.3360038365
Li               4.8529300007        3.3235268876       26.3594170905
Li               4.8562924826       -0.0093754447       27.0719626058
Li               2.4326489764        7.3237961619       27.7384666565
Li               2.4351891185        3.8936979899       28.6363844461
Li               2.4378211499        0.5092670683       29.5853959389
Li               4.8682394564        7.8205537571       30.2619863873
Li               4.8682273148        4.6802033461       31.1149861125
Li               4.8683900348        1.0497606553       31.9692754664
Li               2.4392811040        8.2136365061       32.2807335106
Li               2.4391461360        5.1657073962       33.2800307246
Li               2.4392476003        1.6216296959       34.1636051164
Li               4.8481104155        9.3979238423       20.1232742188
Li               4.8478292678        5.5399437547       20.8026186728
Li               4.8477128849        2.0146724969       21.3249818998
Li               4.8682323460       -0.5178843564       34.4460781111
Li               7.2767084916        7.2803058006       20.4134147150
Li               7.2767975771        3.7860760904       21.2745645488
Li               7.2766268607        0.6849677165       22.2766941031
Li               9.7057613994        7.8404559879       22.6023629183
Li               9.7061276867        4.2893351491       23.4401295431
Li               9.7060310186        1.0826794554       24.2946967018
Li               7.2780936632        8.3643422320       24.9801052320
Li               7.2806518894        5.0799595976       25.9114959361
Li               7.2834958525        1.5884703607       26.8163296040
Li               9.7178219461        8.8696119042       27.4878855379
Li               9.7211302898        5.6459152119       28.1902217721
Li               9.7235550238        2.2650691825       29.2251555576
Li               7.2965853872        9.5043186197       29.7769316029
Li               7.2970724819        6.1440650795       30.4028845033
Li               7.2971567129        2.8407363308       31.4767837107
Li               9.7263883941        9.9428313726       32.3343797534
Li               9.7263278774        6.9129265233       33.2267416857
Li               9.7262406787        3.4004140762       33.7660482256
Li               7.2764778540        9.5232300413       22.2350776842
Li               7.2768653837        6.0947997322       23.0876307236
Li               7.2770892027        2.8087749391       24.1418743215
Li               9.7064428379        9.9431163265       24.7815747849
Li               9.7085765759        6.6618920065       25.3360161995
Li               9.7110147411        3.3234595408       26.3595244373
Li               9.7145716344       -0.0092184216       27.0721427363
Li               7.2905371270        7.3238440432       27.7385076134
Li               7.2931694387        3.8937216700       28.6364929620
Li               7.2958846451        0.5092644712       29.5857271065
Li               9.7260761888        7.8205152407       30.2621796602
Li               9.7260568253        4.6802781005       31.1150978501
Li               9.7262163286        1.0498039958       31.9693424281
Li               7.2974040038        8.2135318456       32.2805770891
Li               7.2973077677        5.1658036091       33.2799007914
Li               7.2974232253        1.6214641264       34.1633649719
Li               9.7061955167        9.3980565024       20.1232074798
Li               9.7055584001        5.5397718623       20.8026165132
Li               9.7058472727        2.0147493422       21.3248443672



     Writing config-only to output data dir ./Li/Lithium.save/ :
     XML data file     NEW-OLD atomic charge density approx. for the potential

     negative rho (up, down):  7.068E-04 0.000E+00

     add environment contribution to local potential

     total cpu time spent up to now is    54749.2 secs

     Self-consistent Calculation

     iteration #  1     ecut=    80.00 Ry     beta= 0.20
     Davidson diagonalization with overlap

---- Real-time Memory Report at c_bands before calling an iterative solver
          1616 MiB given to the printing process from OS
             0 MiB allocation reported by mallinfo(arena+hblkhd)
        197042 MiB available memory on the node where the printing process lives
------------------
     ethr =  1.00E-06,  avg # of iterations =  2.2

     Threshold (ethr) on eigenvalues was too large:
     Diagonalizing with lowered threshold

     Davidson diagonalization with overlap

---- Real-time Memory Report at c_bands before calling an iterative solver
          1616 MiB given to the printing process from OS
             0 MiB allocation reported by mallinfo(arena+hblkhd)
        196513 MiB available memory on the node where the printing process lives
------------------
     ethr =  7.45E-10,  avg # of iterations = 21.0

     negative rho (up, down):  6.986E-04 0.000E+00

     add environment contribution to local potential

     total cpu time spent up to now is    54927.2 secs

     total energy              =   -1142.89370139 Ry
     estimated scf accuracy    <       0.00000239 Ry

     total charge of GC-SCF    =      -3.03806967 e
     the Fermi energy          =      -2.40400494 eV
                        (error :       0.00000494 eV)
     electrostatic embedding   =      -1.11883050 Ry
     cavitation energy         =       0.04247940 Ry
     electrolyte free energy   =      -0.00700105 Ry
     correction to one-el term =     121.17358844 Ry

     iteration #  2     ecut=    80.00 Ry     beta= 0.20
     Davidson diagonalization with overlap

---- Real-time Memory Report at c_bands before calling an iterative solver
          1616 MiB given to the printing process from OS
             0 MiB allocation reported by mallinfo(arena+hblkhd)
        196419 MiB available memory on the node where the printing process lives
------------------
     ethr =  1.04E-09,  avg # of iterations =  9.3

     negative rho (up, down):  6.932E-04 0.000E+00

     add environment contribution to local potential

     total cpu time spent up to now is    54992.2 secs

     total energy              =   -1142.89370490 Ry
     estimated scf accuracy    <       0.00000045 Ry

     total charge of GC-SCF    =      -3.03811229 e
     the Fermi energy          =      -2.40402196 eV
                        (error :       0.00002196 eV)
     electrostatic embedding   =      -1.11885218 Ry
     cavitation energy         =       0.04247940 Ry
     electrolyte free energy   =      -0.00700129 Ry
     correction to one-el term =     121.17737875 Ry

     iteration #  3     ecut=    80.00 Ry     beta= 0.20
     Davidson diagonalization with overlap

---- Real-time Memory Report at c_bands before calling an iterative solver
          1616 MiB given to the printing process from OS
             0 MiB allocation reported by mallinfo(arena+hblkhd)
        196560 MiB available memory on the node where the printing process lives
------------------
     ethr =  1.97E-10,  avg # of iterations = 13.3

     negative rho (up, down):  6.897E-04 0.000E+00

     add environment contribution to local potential

     total cpu time spent up to now is    55095.1 secs

     total energy              =   -1142.89370666 Ry
     estimated scf accuracy    <       0.00000008 Ry

     total charge of GC-SCF    =      -3.03811379 e
     the Fermi energy          =      -2.40418428 eV
                        (error :       0.00018428 eV)
     electrostatic embedding   =      -1.11890973 Ry
     cavitation energy         =       0.04247940 Ry
     electrolyte free energy   =      -0.00700181 Ry
     correction to one-el term =     121.17942515 Ry

     iteration #  4     ecut=    80.00 Ry     beta= 0.20
     Davidson diagonalization with overlap

---- Real-time Memory Report at c_bands before calling an iterative solver
          1616 MiB given to the printing process from OS
             0 MiB allocation reported by mallinfo(arena+hblkhd)
        196805 MiB available memory on the node where the printing process lives
------------------
     ethr =  3.26E-11,  avg # of iterations = 13.5

     negative rho (up, down):  6.874E-04 0.000E+00

     add environment contribution to local potential

     total cpu time spent up to now is    55187.4 secs

     total energy              =   -1142.89370703 Ry
     estimated scf accuracy    <       0.00000005 Ry

     total charge of GC-SCF    =      -3.03812834 e
     the Fermi energy          =      -2.40404293 eV
                        (error :       0.00004293 eV)
     electrostatic embedding   =      -1.11890486 Ry
     cavitation energy         =       0.04247940 Ry
     electrolyte free energy   =      -0.00700198 Ry
     correction to one-el term =     121.18418490 Ry

     iteration #  5     ecut=    80.00 Ry     beta= 0.20
     Davidson diagonalization with overlap

---- Real-time Memory Report at c_bands before calling an iterative solver
          1616 MiB given to the printing process from OS
             0 MiB allocation reported by mallinfo(arena+hblkhd)
        197015 MiB available memory on the node where the printing process lives
------------------
     ethr =  1.96E-11,  avg # of iterations = 14.3

     negative rho (up, down):  6.859E-04 0.000E+00

     add environment contribution to local potential

     total cpu time spent up to now is    55274.8 secs

     total energy              =   -1142.89370722 Ry
     estimated scf accuracy    <       0.00000002 Ry

     total charge of GC-SCF    =      -3.03815977 e
     the Fermi energy          =      -2.40410160 eV
                        (error :       0.00010160 eV)
     electrostatic embedding   =      -1.11894012 Ry
     cavitation energy         =       0.04247940 Ry
     electrolyte free energy   =      -0.00700250 Ry
     correction to one-el term =     121.18608438 Ry

     iteration #  6     ecut=    80.00 Ry     beta= 0.20
     Davidson diagonalization with overlap

---- Real-time Memory Report at c_bands before calling an iterative solver
          1616 MiB given to the printing process from OS
             0 MiB allocation reported by mallinfo(arena+hblkhd)
        197125 MiB available memory on the node where the printing process lives
------------------
     ethr =  8.29E-12,  avg # of iterations = 22.4

     negative rho (up, down):  6.849E-04 0.000E+00

     add environment contribution to local potential

     total cpu time spent up to now is    55409.2 secs

     total energy              =   -1142.89370719 Ry
     estimated scf accuracy    <       0.00000003 Ry

     total charge of GC-SCF    =      -3.03817079 e
     the Fermi energy          =      -2.40417755 eV
                        (error :       0.00017755 eV)
     electrostatic embedding   =      -1.11898989 Ry
     cavitation energy         =       0.04247940 Ry
     electrolyte free energy   =      -0.00700297 Ry
     correction to one-el term =     121.18841128 Ry

     iteration #  7     ecut=    80.00 Ry     beta= 0.20
     Davidson diagonalization with overlap

---- Real-time Memory Report at c_bands before calling an iterative solver
          1616 MiB given to the printing process from OS
             0 MiB allocation reported by mallinfo(arena+hblkhd)
        197113 MiB available memory on the node where the printing process lives
------------------
     ethr =  8.29E-12,  avg # of iterations = 19.7

     negative rho (up, down):  6.842E-04 0.000E+00

     add environment contribution to local potential

     total cpu time spent up to now is    55527.4 secs

     total energy              =   -1142.89370737 Ry
     estimated scf accuracy    <          8.6E-09 Ry

     total charge of GC-SCF    =      -3.03823231 e
     the Fermi energy          =      -2.40403946 eV
                        (error :       0.00003946 eV)
     electrostatic embedding   =      -1.11898440 Ry
     cavitation energy         =       0.04247940 Ry
     electrolyte free energy   =      -0.00700305 Ry
     correction to one-el term =     121.19197030 Ry

     iteration #  8     ecut=    80.00 Ry     beta= 0.20
     Davidson diagonalization with overlap

---- Real-time Memory Report at c_bands before calling an iterative solver
          1616 MiB given to the printing process from OS
             0 MiB allocation reported by mallinfo(arena+hblkhd)
        197063 MiB available memory on the node where the printing process lives
------------------
     ethr =  3.71E-12,  avg # of iterations = 21.0

     negative rho (up, down):  6.838E-04 0.000E+00

     add environment contribution to local potential

     total cpu time spent up to now is    55649.1 secs

     total energy              =   -1142.89370735 Ry
     estimated scf accuracy    <          2.0E-09 Ry

     total charge of GC-SCF    =      -3.03831700 e
     the Fermi energy          =      -2.40404914 eV
                        (error :       0.00004914 eV)
     electrostatic embedding   =      -1.11903978 Ry
     cavitation energy         =       0.04247940 Ry
     electrolyte free energy   =      -0.00700364 Ry
     correction to one-el term =     121.19597874 Ry

     iteration #  9     ecut=    80.00 Ry     beta= 0.20
     Davidson diagonalization with overlap

---- Real-time Memory Report at c_bands before calling an iterative solver
          1616 MiB given to the printing process from OS
             0 MiB allocation reported by mallinfo(arena+hblkhd)
        197029 MiB available memory on the node where the printing process lives
------------------
     ethr =  8.68E-13,  avg # of iterations = 21.5

     negative rho (up, down):  6.834E-04 0.000E+00

     add environment contribution to local potential

     total cpu time spent up to now is    55771.9 secs

     total energy              =   -1142.89370734 Ry
     estimated scf accuracy    <          6.9E-10 Ry

     total charge of GC-SCF    =      -3.03840901 e
     the Fermi energy          =      -2.40404554 eV
                        (error :       0.00004554 eV)
     electrostatic embedding   =      -1.11909430 Ry
     cavitation energy         =       0.04247940 Ry
     electrolyte free energy   =      -0.00700418 Ry
     correction to one-el term =     121.19924791 Ry

     iteration # 10     ecut=    80.00 Ry     beta= 0.20
     Davidson diagonalization with overlap

---- Real-time Memory Report at c_bands before calling an iterative solver
          1616 MiB given to the printing process from OS
             0 MiB allocation reported by mallinfo(arena+hblkhd)
        196979 MiB available memory on the node where the printing process lives
------------------
     ethr =  2.97E-13,  avg # of iterations = 21.4

     negative rho (up, down):  6.832E-04 0.000E+00

     add environment contribution to local potential

     total cpu time spent up to now is    55897.8 secs

     total energy              =   -1142.89370735 Ry
     estimated scf accuracy    <          1.8E-10 Ry

     total charge of GC-SCF    =      -3.03847915 e
     the Fermi energy          =      -2.40404443 eV
                        (error :       0.00004443 eV)
     electrostatic embedding   =      -1.11914566 Ry
     cavitation energy         =       0.04247940 Ry
     electrolyte free energy   =      -0.00700463 Ry
     correction to one-el term =     121.20185028 Ry

     iteration # 11     ecut=    80.00 Ry     beta= 0.20
     Davidson diagonalization with overlap

---- Real-time Memory Report at c_bands before calling an iterative solver
          1616 MiB given to the printing process from OS
             0 MiB allocation reported by mallinfo(arena+hblkhd)
        196921 MiB available memory on the node where the printing process lives
------------------
     ethr =  1.00E-13,  avg # of iterations = 20.5

     negative rho (up, down):  6.830E-04 0.000E+00

     add environment contribution to local potential

     total cpu time spent up to now is    56031.5 secs

     total energy              =   -1142.89370735 Ry
     estimated scf accuracy    <          9.4E-11 Ry

     total charge of GC-SCF    =      -3.03852163 e
     the Fermi energy          =      -2.40403422 eV
                        (error :       0.00003422 eV)
     electrostatic embedding   =      -1.11918278 Ry
     cavitation energy         =       0.04247940 Ry
     electrolyte free energy   =      -0.00700495 Ry
     correction to one-el term =     121.20376617 Ry

     iteration # 12     ecut=    80.00 Ry     beta= 0.20
     Davidson diagonalization with overlap

---- Real-time Memory Report at c_bands before calling an iterative solver
          1616 MiB given to the printing process from OS
             0 MiB allocation reported by mallinfo(arena+hblkhd)
        196815 MiB available memory on the node where the printing process lives
------------------
