
     Program PWSCF v.7.4 starts on  3Jan2025 at 12: 9:53 

     This program is part of the open-source Quantum ESPRESSO suite
     for quantum simulation of materials; please cite
         "P. Giannozzi et al., J. Phys.:Condens. Matter 21 395502 (2009);
         "P. Giannozzi et al., J. Phys.:Condens. Matter 29 465901 (2017);
         "P. Giannozzi et al., J. Chem. Phys. 152 154105 (2020);
          URL http://www.quantum-espresso.org", 
     in publications or presentations arising from this work. More details at
     http://www.quantum-espresso.org/quote

     Parallel version (MPI & OpenMP), running on     384 processor cores
     Number of MPI processes:               384
     Threads/MPI process:                     1

     MPI processes distributed on     3 nodes
     231989 MiB available memory on the printing compute node when the environment starts

     Reading input from espresso.pwi
Warning: card &CELL ignored
Warning: card    PRESS_CONV_THR   = 0.1 ignored
Warning: card    CELL_DOFREE      = 'ALL' ignored
Warning: card / ignored
Warning: card &FCP ignored
Warning: card / ignored
Warning: card &RISM ignored
Warning: card / ignored

     Current dimensions of program PWSCF are:
     Max number of different atomic species (ntypx) = 10
     Max number of k-points (npk) =  40000
     Max angular momentum in pseudopotentials (lmaxx) =  4

     IMPORTANT: XC functional enforced from input :
     Exchange-correlation= PBE
                           (   1   4   3   4   0   0   0)
     Any further DFT definition will be discarded
     Please, verify this is what you really want


     Reading input from environ.in:
     * using ionic solvent mode
     * setting boundary derivatives method to SSCS default
     * setting electrolyte-boundary derivatives method to SSCS default

Environ Warning (1001): card EOF ignored

     

     K-points division:     npool     =       2
     R & G space division:  proc/nbgrp/npool/nimage =     192
     Subspace diagonalization in iterative solution of the eigenvalue problem:
     a serial algorithm will be used


     Parallelization info
     --------------------
     sticks:   dense  smooth     PW     G-vecs:    dense   smooth      PW
     Min          96      38     10                56184    14194    1882
     Max          97      39     11                56261    14243    1918
     Sum       18577    7447   1945             10795351  2731157  365513

     Using Slab Decomposition



     bravais-lattice index     =            4
     lattice parameter (alat)  =      18.3607  a.u.
     unit-cell volume          =   28251.3786 (a.u.)^3
     number of atoms/cell      =           48
     number of atomic types    =            1
     number of electrons       =       144.00
     number of Kohn-Sham states=          108
     kinetic-energy cutoff     =      80.0000  Ry
     charge density cutoff     =     800.0000  Ry
     scf convergence threshold =      1.0E-06
     mixing beta               =       0.2000
     number of iterations used =            8  local-TF  mixing
     energy convergence thresh.=      1.0E-05
     force convergence thresh. =      3.9E-04
     Exchange-correlation= PBE
                           (   1   4   3   4   0   0   0)
     nstep                     =          999


     ================================================================================

                                  Environ Setup Summary

     ================================================================================

     Please cite

          O. Andreussi, I. Dabo and N. Marzari, J. Chem. Phys. 136, 064102 (2012)
          F. Nattino, M. Truscott, N. Marzari, and O. Andreussi, J. Chem. Phys. 150, 041722 (2019)

     in publications or presentations arising from this work.

     ================================================================================

     Parameters
     ==========

     compensation onset threshold      =               0.1000E+00
     static permittivity               =                    89.90
     surface tension in input (dyn/cm) =                    37.30
     surface tension in internal units =               0.4792E-04

     Solvent Boundary
     ================

     solvent mode                      =                    ionic
     derivatives method                =                   lowmem
     electrolyte derivatives method    =                   lowmem
     numerical core for derivatives    =                      fft
     switching function adopted        =                     SCCS
     density limit for vacuum region   =               0.5000E-02
     density limit for bulk solvent    =               0.1000E-03
     soft-sphere radius mode           =                    bondi
     soft-sphere softness              =                     0.50
     alpha                             =                     1.32

     Electrostatic Setup
     ===================

     electrostatic problem to solve    =                    modpb
     numerical solver adopted          =                   newton
     type of auxiliary density adopted =                     none
     numerical core for poisson        =                      fft
     adopting a nested solver scheme
     inner solver                      =                       cg
     inner core                        =                      fft
     type of pbc corrections           =                parabolic
     numerical core for corrections    =                      1da

     ================================================================================


     >>>>> Grand-Canonical SCF is activated <<<<<
     Initial Total Charge  =     0.000000 e
     Target Fermi Energy   =    -1.904000 eV
     Thr. of Fermi Energy  =     0.001000 eV
     Wave-shift of Kerker  =     0.400000 bohr^-1
     Wave-shift of Hartree =     1.500000 bohr^-1
     Mixing Rate of Fermi  =     0.050000

     celldm(1)=  18.360747  celldm(2)=   0.000000  celldm(3)=   5.270332
     celldm(4)=   0.000000  celldm(5)=   0.000000  celldm(6)=   0.000000

     crystal axes: (cart. coord. in units of alat)
               a(1) = (   1.000000   0.000000   0.000000 )  
               a(2) = (  -0.500000   0.866025   0.000000 )  
               a(3) = (   0.000000   0.000000   5.270332 )  

     reciprocal axes: (cart. coord. in units 2 pi/alat)
               b(1) = (  1.000000  0.577350 -0.000000 )  
               b(2) = (  0.000000  1.154701  0.000000 )  
               b(3) = (  0.000000 -0.000000  0.189741 )  


     PseudoPot. # 1 for Li read from file:
     /work/e89/e89/ba3g18/Repos/Pseudopotentials/Pslibrary/Li.pbe-sl-kjpaw_psl.1.0.0.UPF
     MD5 check sum: 3f4d2cafebb47c6c3aa8ed472e6f074d
     Pseudo is Projector augmented-wave, Zval =  3.0
     Generated using 'atomic' code by A. Dal Corso  v.7.4
     Shape of augmentation charge: PSQ
     Using radial grid of 1017 points,  4 beta functions with: 
                l(1) =   0
                l(2) =   0
                l(3) =   1
                l(4) =   1
     Q(r) pseudized with 0 coefficients 


     atomic species   valence    mass     pseudopotential
     Li                3.00     6.94000     Li( 1.00)

      4 Sym. Ops., with inversion, found ( 2 have fractional translation)


                                    s                        frac. trans.

      isym =  1     identity                                     

 cryst.   s( 1) = (     1          0          0      )
                  (     0          1          0      )
                  (     0          0          1      )

 cart.    s( 1) = (  1.0000000  0.0000000  0.0000000 )
                  (  0.0000000  1.0000000  0.0000000 )
                  (  0.0000000  0.0000000  1.0000000 )


      isym =  2     180 deg rotation - cart. axis [1,0,0]        

 cryst.   s( 2) = (     1          0          0      )    f =(  0.3333335 )
                  (    -1         -1          0      )       ( -0.3333329 )
                  (     0          0         -1      )       ( -0.0000013 )

 cart.    s( 2) = (  1.0000000  0.0000000  0.0000000 )    f =(  0.5000000 )
                  (  0.0000000 -1.0000000  0.0000000 )       ( -0.2886748 )
                  (  0.0000000  0.0000000 -1.0000000 )       ( -0.0000068 )


      isym =  3     inversion                                    

 cryst.   s( 3) = (    -1          0          0      )    f =(  0.3333335 )
                  (     0         -1          0      )       ( -0.3333329 )
                  (     0          0         -1      )       ( -0.0000013 )

 cart.    s( 3) = ( -1.0000000  0.0000000  0.0000000 )    f =(  0.5000000 )
                  (  0.0000000 -1.0000000  0.0000000 )       ( -0.2886748 )
                  (  0.0000000  0.0000000 -1.0000000 )       ( -0.0000068 )


      isym =  4     inv. 180 deg rotation - cart. axis [1,0,0]   

 cryst.   s( 4) = (    -1          0          0      )
                  (     1          1          0      )
                  (     0          0          1      )

 cart.    s( 4) = ( -1.0000000  0.0000000  0.0000000 )
                  (  0.0000000  1.0000000  0.0000000 )
                  (  0.0000000  0.0000000  1.0000000 )


     point group C_2h (2/m) 
     there are  4 classes
     the character table:

       E     C2    i     s_h  
A_g    1.00  1.00  1.00  1.00
B_g    1.00 -1.00  1.00 -1.00
A_u    1.00  1.00 -1.00 -1.00
B_u    1.00 -1.00 -1.00  1.00

     the symmetry operations in each class and the name of the first element:

     E        1
          identity                                               
     C2       2
          180 deg rotation - cart. axis [1,0,0]                  
     i        3
          inversion                                              
     s_h      4
          inv. 180 deg rotation - cart. axis [1,0,0]             

   Cartesian axes

     site n.     atom                  positions (alat units)
         1        Li     tau(   1) = (  -0.0000000   0.0000022   2.5771317  )
         2        Li     tau(   2) = (   0.2500048   0.1443421   2.1842095  )
         3        Li     tau(   3) = (   0.5000000   0.2886824   2.3805071  )
         4        Li     tau(   4) = (   0.0000000   0.0000050   2.2633103  )
         5        Li     tau(   5) = (   0.2500026   0.1443409   2.4827593  )
         6        Li     tau(   6) = (   0.5000000   0.2886793   2.0742596  )
         7        Li     tau(   7) = (   0.0000000  -0.0000065   3.1960698  )
         8        Li     tau(   8) = (   0.2499986   0.1443330   2.7875747  )
         9        Li     tau(   9) = (   0.5000000   0.2886698   3.0070334  )
        10        Li     tau(  10) = (  -0.0000000  -0.0000047   2.8898286  )
        11        Li     tau(  11) = (   0.2499975   0.1443330   3.0861194  )
        12        Li     tau(  12) = (   0.5000000   0.2886726   2.6932071  )
        13        Li     tau(  13) = (   0.2499994   0.4330142   2.5771293  )
        14        Li     tau(  14) = (   0.5000000   0.5773528   2.1842107  )
        15        Li     tau(  15) = (   0.7499964   0.7216887   2.3805081  )
        16        Li     tau(  16) = (   0.2499999   0.4330170   2.2633089  )
        17        Li     tau(  17) = (   0.5000000   0.5773506   2.4827588  )
        18        Li     tau(  18) = (   0.7499993   0.7216932   2.0742596  )
        19        Li     tau(  19) = (   0.2499982   0.4330119   3.1960685  )
        20        Li     tau(  20) = (   0.5000000   0.5773493   2.7875723  )
        21        Li     tau(  21) = (   0.7500011   0.7216851   3.0070173  )
        22        Li     tau(  22) = (   0.2500029   0.4330083   2.8898273  )
        23        Li     tau(  23) = (   0.5000000   0.5773495   3.0861141  )
        24        Li     tau(  24) = (   0.7499996   0.7216866   2.6932026  )
        25        Li     tau(  25) = (   0.5000000  -0.0000014   2.5771383  )
        26        Li     tau(  26) = (   0.7499952   0.1443421   2.1842096  )
        27        Li     tau(  27) = (   1.0000000   0.2886813   2.3805058  )
        28        Li     tau(  28) = (   0.5000000   0.0000024   2.2633269  )
        29        Li     tau(  29) = (   0.7499974   0.1443409   2.4827593  )
        30        Li     tau(  30) = (   1.0000000   0.2886762   2.0742565  )
        31        Li     tau(  31) = (   0.5000000  -0.0000094   3.1960692  )
        32        Li     tau(  32) = (   0.7500013   0.1443330   2.7875747  )
        33        Li     tau(  33) = (   1.0000000   0.2886687   3.0070170  )
        34        Li     tau(  34) = (   0.5000000  -0.0000004   2.8898295  )
        35        Li     tau(  35) = (   0.7500025   0.1443330   3.0861194  )
        36        Li     tau(  36) = (   1.0000000   0.2886747   2.6932025  )
        37        Li     tau(  37) = (   0.7500006   0.4330142   2.5771293  )
        38        Li     tau(  38) = (   1.0000000   0.5773570   2.1842054  )
        39        Li     tau(  39) = (   1.2500035   0.7216887   2.3805081  )
        40        Li     tau(  40) = (   0.7500001   0.4330170   2.2633089  )
        41        Li     tau(  41) = (   1.0000000   0.5773545   2.4827559  )
        42        Li     tau(  42) = (   1.2500007   0.7216932   2.0742596  )
        43        Li     tau(  43) = (   0.7500018   0.4330119   3.1960685  )
        44        Li     tau(  44) = (   1.0000000   0.5773503   2.7875697  )
        45        Li     tau(  45) = (   1.2499989   0.7216851   3.0070173  )
        46        Li     tau(  46) = (   0.7499971   0.4330083   2.8898273  )
        47        Li     tau(  47) = (   1.0000000   0.5773437   3.0861102  )
        48        Li     tau(  48) = (   1.2500004   0.7216866   2.6932026  )

   Crystallographic axes

     site n.     atom                  positions (cryst. coord.)
         1        Li     tau(   1) = (  0.0000013  0.0000025  0.4889885  )
         2        Li     tau(   2) = (  0.3333407  0.1666719  0.4144349  )
         3        Li     tau(   3) = (  0.6666708  0.3333417  0.4516807  )
         4        Li     tau(   4) = (  0.0000029  0.0000058  0.4294436  )
         5        Li     tau(   5) = (  0.3333378  0.1666705  0.4710821  )
         6        Li     tau(   6) = (  0.6666691  0.3333381  0.3935728  )
         7        Li     tau(   7) = ( -0.0000037 -0.0000075  0.6064267  )
         8        Li     tau(   8) = (  0.3333293  0.1666614  0.5289182  )
         9        Li     tau(   9) = (  0.6666636  0.3333271  0.5705586  )
        10        Li     tau(  10) = ( -0.0000027 -0.0000055  0.5483200  )
        11        Li     tau(  11) = (  0.3333282  0.1666614  0.5855645  )
        12        Li     tau(  12) = (  0.6666652  0.3333304  0.5110128  )
        13        Li     tau(  13) = (  0.5000002  0.5000017  0.4889880  )
        14        Li     tau(  14) = (  0.8333348  0.6666696  0.4144351  )
        15        Li     tau(  15) = (  1.1666636  0.8333343  0.4516809  )
        16        Li     tau(  16) = (  0.5000024  0.5000050  0.4294433  )
        17        Li     tau(  17) = (  0.8333335  0.6666671  0.4710820  )
        18        Li     tau(  18) = (  1.1666690  0.8333395  0.3935729  )
        19        Li     tau(  19) = (  0.4999977  0.4999991  0.6064264  )
        20        Li     tau(  20) = (  0.8333328  0.6666656  0.5289178  )
        21        Li     tau(  21) = (  1.1666662  0.8333302  0.5705556  )
        22        Li     tau(  22) = (  0.5000003  0.4999949  0.5483198  )
        23        Li     tau(  23) = (  0.8333329  0.6666658  0.5855635  )
        24        Li     tau(  24) = (  1.1666656  0.8333319  0.5110119  )
        25        Li     tau(  25) = (  0.4999992 -0.0000016  0.4889897  )
        26        Li     tau(  26) = (  0.8333312  0.1666719  0.4144349  )
        27        Li     tau(  27) = (  1.1666702  0.3333405  0.4516804  )
        28        Li     tau(  28) = (  0.5000014  0.0000027  0.4294467  )
        29        Li     tau(  29) = (  0.8333327  0.1666705  0.4710821  )
        30        Li     tau(  30) = (  1.1666673  0.3333346  0.3935723  )
        31        Li     tau(  31) = (  0.4999946 -0.0000108  0.6064265  )
        32        Li     tau(  32) = (  0.8333320  0.1666614  0.5289182  )
        33        Li     tau(  33) = (  1.1666630  0.3333259  0.5705555  )
        34        Li     tau(  34) = (  0.4999998 -0.0000005  0.5483202  )
        35        Li     tau(  35) = (  0.8333332  0.1666614  0.5855645  )
        36        Li     tau(  36) = (  1.1666664  0.3333328  0.5110119  )
        37        Li     tau(  37) = (  1.0000015  0.5000017  0.4889880  )
        38        Li     tau(  38) = (  1.3333372  0.6666744  0.4144341  )
        39        Li     tau(  39) = (  1.6666707  0.8333343  0.4516809  )
        40        Li     tau(  40) = (  1.0000026  0.5000050  0.4294433  )
        41        Li     tau(  41) = (  1.3333358  0.6666716  0.4710815  )
        42        Li     tau(  42) = (  1.6666705  0.8333395  0.3935729  )
        43        Li     tau(  43) = (  1.0000013  0.4999991  0.6064264  )
        44        Li     tau(  44) = (  1.3333334  0.6666667  0.5289173  )
        45        Li     tau(  45) = (  1.6666640  0.8333302  0.5705556  )
        46        Li     tau(  46) = (  0.9999945  0.4999949  0.5483198  )
        47        Li     tau(  47) = (  1.3333295  0.6666591  0.5855628  )
        48        Li     tau(  48) = (  1.6666663  0.8333319  0.5110119  )

     number of k points=    16  Marzari-Vanderbilt smearing, width (Ry)=  0.0100
                       cart. coord. in units 2pi/alat
        k(    1) = (   0.0000000   0.0000000   0.0000000), wk =   0.0408163
        k(    2) = (   0.0000000   0.1649572   0.0000000), wk =   0.0816327
        k(    3) = (   0.0000000   0.3299144   0.0000000), wk =   0.0816327
        k(    4) = (   0.0000000   0.4948717   0.0000000), wk =   0.0816327
        k(    5) = (   0.1428571   0.2474358   0.0000000), wk =   0.1632653
        k(    6) = (   0.1428571   0.4123930   0.0000000), wk =   0.1632653
        k(    7) = (   0.1428571   0.5773503   0.0000000), wk =   0.0816327
        k(    8) = (   0.2857143   0.4948717   0.0000000), wk =   0.1632653
        k(    9) = (  -0.1428571   0.0824786   0.0000000), wk =   0.1632653
        k(   10) = (  -0.2857143   0.1649572   0.0000000), wk =   0.1632653
        k(   11) = (  -0.4285714   0.2474358   0.0000000), wk =   0.1632653
        k(   12) = (   0.2857143  -0.0000000   0.0000000), wk =   0.0816327
        k(   13) = (  -0.2857143   0.3299144   0.0000000), wk =   0.1632653
        k(   14) = (   0.4285714   0.0824786   0.0000000), wk =   0.1632653
        k(   15) = (  -0.4285714   0.4123930   0.0000000), wk =   0.1632653
        k(   16) = (   0.5714286  -0.0000000   0.0000000), wk =   0.0816327

                       cryst. coord.
        k(    1) = (   0.0000000   0.0000000   0.0000000), wk =   0.0408163
        k(    2) = (   0.0000000   0.1428571   0.0000000), wk =   0.0816327
        k(    3) = (   0.0000000   0.2857143   0.0000000), wk =   0.0816327
        k(    4) = (   0.0000000   0.4285714   0.0000000), wk =   0.0816327
        k(    5) = (   0.1428571   0.1428571   0.0000000), wk =   0.1632653
        k(    6) = (   0.1428571   0.2857143   0.0000000), wk =   0.1632653
        k(    7) = (   0.1428571   0.4285714   0.0000000), wk =   0.0816327
        k(    8) = (   0.2857143   0.2857143   0.0000000), wk =   0.1632653
        k(    9) = (  -0.1428571   0.1428571   0.0000000), wk =   0.1632653
        k(   10) = (  -0.2857143   0.2857143   0.0000000), wk =   0.1632653
        k(   11) = (  -0.4285714   0.4285714   0.0000000), wk =   0.1632653
        k(   12) = (   0.2857143  -0.1428571   0.0000000), wk =   0.0816327
        k(   13) = (  -0.2857143   0.4285714   0.0000000), wk =   0.1632653
        k(   14) = (   0.4285714  -0.1428571   0.0000000), wk =   0.1632653
        k(   15) = (  -0.4285714   0.5714286   0.0000000), wk =   0.1632653
        k(   16) = (   0.5714286  -0.2857143   0.0000000), wk =   0.0816327

     Dense  grid: 10795351 G-vectors     FFT dimensions: ( 180, 180, 900)

     Smooth grid:  2731157 G-vectors     FFT dimensions: ( 108, 108, 576)

     Dynamical RAM for                 wfc:       2.93 MB

     Dynamical RAM for     wfc (w. buffer):      26.36 MB

     Dynamical RAM for           str. fact:       0.86 MB

     Dynamical RAM for           local pot:       0.00 MB

     Dynamical RAM for          nlocal pot:      10.41 MB

     Dynamical RAM for                qrad:       0.65 MB

     Dynamical RAM for          rho,v,vnew:       6.28 MB

     Dynamical RAM for               rhoin:       2.09 MB

     Dynamical RAM for            rho*nmix:      13.73 MB

     Dynamical RAM for           G-vectors:       3.33 MB

     Dynamical RAM for          h,s,v(r/c):       8.54 MB

     Dynamical RAM for          <psi|beta>:       0.63 MB

     Dynamical RAM for                 psi:      11.71 MB

     Dynamical RAM for                hpsi:      11.71 MB

     Dynamical RAM for                spsi:      11.71 MB

     Dynamical RAM for      wfcinit/wfcrot:       6.12 MB

     Dynamical RAM for           addusdens:      39.47 MB

     Dynamical RAM for          addusforce:      79.84 MB

     Estimated static dynamical RAM per process >      57.87 MB

     Estimated max dynamical RAM per process >     164.72 MB

     Estimated total dynamical RAM >      54.21 GB

     Initial potential from superposition of free atoms

     starting charge     143.7788, renormalised to     144.0000

     negative rho (up, down):  4.895E-03 0.000E+00
     Starting wfcs are random
     Checking if some PAW data can be deallocated... 

     total cpu time spent up to now is       36.6 secs

     Self-consistent Calculation

     iteration #  1     ecut=    80.00 Ry     beta= 0.20
     Davidson diagonalization with overlap

---- Real-time Memory Report at c_bands before calling an iterative solver
          1124 MiB given to the printing process from OS
             0 MiB allocation reported by mallinfo(arena+hblkhd)
        213586 MiB available memory on the node where the printing process lives
------------------
     c_bands:  1 eigenvalues not converged
     c_bands:  1 eigenvalues not converged
     c_bands:  2 eigenvalues not converged
     ethr =  1.00E-12,  avg # of iterations =154.6

     negative rho (up, down):  3.660E-03 0.000E+00

     total cpu time spent up to now is      280.4 secs

     total energy              =    -721.82326586 Ry
     estimated scf accuracy    <       0.17025713 Ry

     total charge of GC-SCF    =       0.02268954 e
     the Fermi energy          =      -4.45662439 eV
                        (error :       2.55262439 eV)
     electrostatic embedding   =       0.00000000 Ry
     cavitation energy         =       0.03652216 Ry
     electrolyte free energy   =       0.01215974 Ry
     correction to one-el term =      -0.00000000 Ry

     iteration #  2     ecut=    80.00 Ry     beta= 0.20
     Davidson diagonalization with overlap

---- Real-time Memory Report at c_bands before calling an iterative solver
          1124 MiB given to the printing process from OS
             0 MiB allocation reported by mallinfo(arena+hblkhd)
        206059 MiB available memory on the node where the printing process lives
------------------
     ethr =  1.00E-05,  avg # of iterations = 11.2

     negative rho (up, down):  2.810E-03 0.000E+00

     add environment contribution to local potential

     total cpu time spent up to now is      316.7 secs

     total energy              =    -721.84402969 Ry
     estimated scf accuracy    <       0.06253524 Ry

     total charge of GC-SCF    =       0.00834580 e
     the Fermi energy          =      -3.42072260 eV
                        (error :       1.51672260 eV)
     electrostatic embedding   =       0.00018166 Ry
     cavitation energy         =       0.03652216 Ry
     electrolyte free energy   =       0.01215974 Ry
     correction to one-el term =      -0.00000000 Ry

     iteration #  3     ecut=    80.00 Ry     beta= 0.20
     Davidson diagonalization with overlap

---- Real-time Memory Report at c_bands before calling an iterative solver
          1124 MiB given to the printing process from OS
             0 MiB allocation reported by mallinfo(arena+hblkhd)
        205476 MiB available memory on the node where the printing process lives
------------------
     ethr =  1.00E-05,  avg # of iterations = 31.3

     negative rho (up, down):  2.356E-03 0.000E+00

     add environment contribution to local potential

     total cpu time spent up to now is      369.5 secs

     total energy              =    -721.70261338 Ry
     estimated scf accuracy    <       0.04965751 Ry

     total charge of GC-SCF    =      -0.12470265 e
     the Fermi energy          =      -2.93871667 eV
                        (error :       1.03471667 eV)
     electrostatic embedding   =      -0.03725470 Ry
     cavitation energy         =       0.03652216 Ry
     electrolyte free energy   =      -0.00379875 Ry
     correction to one-el term =       0.06871624 Ry

     iteration #  4     ecut=    80.00 Ry     beta= 0.20
     Davidson diagonalization with overlap

---- Real-time Memory Report at c_bands before calling an iterative solver
          1124 MiB given to the printing process from OS
             0 MiB allocation reported by mallinfo(arena+hblkhd)
        205333 MiB available memory on the node where the printing process lives
------------------
     ethr =  1.00E-05,  avg # of iterations = 18.4

     negative rho (up, down):  1.911E-03 0.000E+00

     add environment contribution to local potential

     total cpu time spent up to now is      416.2 secs

     total energy              =    -721.75150671 Ry
     estimated scf accuracy    <       0.03388328 Ry

     total charge of GC-SCF    =      -0.24413586 e
     the Fermi energy          =      -3.42390092 eV
                        (error :       1.51990092 eV)
     electrostatic embedding   =      -0.04528024 Ry
     cavitation energy         =       0.03652216 Ry
     electrolyte free energy   =      -0.00566669 Ry
     correction to one-el term =       6.89897688 Ry

     iteration #  5     ecut=    80.00 Ry     beta= 0.20
     Davidson diagonalization with overlap

---- Real-time Memory Report at c_bands before calling an iterative solver
          1124 MiB given to the printing process from OS
             0 MiB allocation reported by mallinfo(arena+hblkhd)
        205271 MiB available memory on the node where the printing process lives
------------------
     ethr =  1.00E-05,  avg # of iterations = 20.1

     negative rho (up, down):  1.642E-03 0.000E+00

     add environment contribution to local potential

     total cpu time spent up to now is      461.8 secs

     total energy              =    -721.56834353 Ry
     estimated scf accuracy    <       0.00817777 Ry

     total charge of GC-SCF    =      -0.64835273 e
     the Fermi energy          =      -2.92311266 eV
                        (error :       1.01911266 eV)
     electrostatic embedding   =      -0.05400175 Ry
     cavitation energy         =       0.03652216 Ry
     electrolyte free energy   =      -0.00323028 Ry
     correction to one-el term =      11.99824385 Ry

     iteration #  6     ecut=    80.00 Ry     beta= 0.20
     Davidson diagonalization with overlap

---- Real-time Memory Report at c_bands before calling an iterative solver
          1124 MiB given to the printing process from OS
             0 MiB allocation reported by mallinfo(arena+hblkhd)
        205203 MiB available memory on the node where the printing process lives
------------------
     ethr =  5.65E-06,  avg # of iterations = 27.2

     negative rho (up, down):  1.463E-03 0.000E+00

     add environment contribution to local potential

     total cpu time spent up to now is      511.5 secs

     total energy              =    -721.77409590 Ry
     estimated scf accuracy    <       0.01445908 Ry

     total charge of GC-SCF    =      -0.90818513 e
     the Fermi energy          =      -2.33980635 eV
                        (error :       0.43580635 eV)
     electrostatic embedding   =      -0.12969410 Ry
     cavitation energy         =       0.03652216 Ry
     electrolyte free energy   =      -0.00103279 Ry
     correction to one-el term =      31.24324138 Ry

     iteration #  7     ecut=    80.00 Ry     beta= 0.20
     Davidson diagonalization with overlap

---- Real-time Memory Report at c_bands before calling an iterative solver
          1124 MiB given to the printing process from OS
             0 MiB allocation reported by mallinfo(arena+hblkhd)
        205045 MiB available memory on the node where the printing process lives
------------------
     ethr =  5.65E-06,  avg # of iterations =  8.2

     negative rho (up, down):  1.453E-03 0.000E+00

     add environment contribution to local potential

     total cpu time spent up to now is      541.8 secs

     total energy              =    -721.68621416 Ry
     estimated scf accuracy    <       0.01524131 Ry

     total charge of GC-SCF    =      -1.66701437 e
     the Fermi energy          =      -2.22483385 eV
                        (error :       0.32083385 eV)
     electrostatic embedding   =      -0.20746800 Ry
     cavitation energy         =       0.03652216 Ry
     electrolyte free energy   =      -0.00183770 Ry
     correction to one-el term =      41.98685537 Ry

     iteration #  8     ecut=    80.00 Ry     beta= 0.20
     Davidson diagonalization with overlap

---- Real-time Memory Report at c_bands before calling an iterative solver
          1124 MiB given to the printing process from OS
             0 MiB allocation reported by mallinfo(arena+hblkhd)
        204942 MiB available memory on the node where the printing process lives
------------------
     ethr =  5.65E-06,  avg # of iterations = 10.6

     negative rho (up, down):  1.272E-03 0.000E+00

     add environment contribution to local potential

     total cpu time spent up to now is      575.3 secs

     total energy              =    -721.81685321 Ry
     estimated scf accuracy    <       0.00115026 Ry

     total charge of GC-SCF    =      -1.83006703 e
     the Fermi energy          =      -2.46240814 eV
                        (error :       0.55840814 eV)
     electrostatic embedding   =      -0.52683740 Ry
     cavitation energy         =       0.03652216 Ry
     electrolyte free energy   =      -0.00307610 Ry
     correction to one-el term =      68.14283696 Ry

     iteration #  9     ecut=    80.00 Ry     beta= 0.20
     Davidson diagonalization with overlap

---- Real-time Memory Report at c_bands before calling an iterative solver
          1124 MiB given to the printing process from OS
             0 MiB allocation reported by mallinfo(arena+hblkhd)
        204884 MiB available memory on the node where the printing process lives
------------------
     ethr =  7.89E-07,  avg # of iterations =  8.9

     negative rho (up, down):  1.035E-03 0.000E+00

     add environment contribution to local potential

     total cpu time spent up to now is      610.6 secs

     total energy              =    -721.79922099 Ry
     estimated scf accuracy    <       0.00083762 Ry

     total charge of GC-SCF    =      -2.20517891 e
     the Fermi energy          =      -2.44462101 eV
                        (error :       0.54062101 eV)
     electrostatic embedding   =      -0.60037065 Ry
     cavitation energy         =       0.03652216 Ry
     electrolyte free energy   =      -0.00348015 Ry
     correction to one-el term =      73.20120759 Ry

     iteration # 10     ecut=    80.00 Ry     beta= 0.20
     Davidson diagonalization with overlap

---- Real-time Memory Report at c_bands before calling an iterative solver
          1124 MiB given to the printing process from OS
             0 MiB allocation reported by mallinfo(arena+hblkhd)
        204848 MiB available memory on the node where the printing process lives
------------------
     ethr =  5.73E-07,  avg # of iterations = 21.1

     negative rho (up, down):  9.061E-04 0.000E+00

     add environment contribution to local potential

     total cpu time spent up to now is      657.1 secs

     total energy              =    -721.85587523 Ry
     estimated scf accuracy    <       0.00789437 Ry

     total charge of GC-SCF    =      -2.34334858 e
     the Fermi energy          =      -2.20682433 eV
                        (error :       0.30282433 eV)
     electrostatic embedding   =      -0.80030880 Ry
     cavitation energy         =       0.03652216 Ry
     electrolyte free energy   =      -0.00554872 Ry
     correction to one-el term =      86.36471085 Ry

     iteration # 11     ecut=    80.00 Ry     beta= 0.20
     Davidson diagonalization with overlap

---- Real-time Memory Report at c_bands before calling an iterative solver
          1124 MiB given to the printing process from OS
             0 MiB allocation reported by mallinfo(arena+hblkhd)
        204636 MiB available memory on the node where the printing process lives
------------------
     ethr =  5.73E-07,  avg # of iterations = 10.2

     negative rho (up, down):  8.207E-04 0.000E+00

     add environment contribution to local potential

     total cpu time spent up to now is      692.8 secs

     total energy              =    -721.79312626 Ry
     estimated scf accuracy    <       0.01055143 Ry

     total charge of GC-SCF    =      -3.27041000 e
     the Fermi energy          =      -2.13598115 eV
                        (error :       0.23198115 eV)
     electrostatic embedding   =      -0.88028714 Ry
     cavitation energy         =       0.03652216 Ry
     electrolyte free energy   =      -0.00648865 Ry
     correction to one-el term =      90.70925591 Ry

     iteration # 12     ecut=    80.00 Ry     beta= 0.20
     Davidson diagonalization with overlap

---- Real-time Memory Report at c_bands before calling an iterative solver
          1124 MiB given to the printing process from OS
             0 MiB allocation reported by mallinfo(arena+hblkhd)
        204644 MiB available memory on the node where the printing process lives
------------------
     ethr =  5.73E-07,  avg # of iterations = 22.7

     negative rho (up, down):  7.312E-04 0.000E+00

     add environment contribution to local potential

     total cpu time spent up to now is      743.9 secs

     total energy              =    -721.86160790 Ry
     estimated scf accuracy    <       0.00048639 Ry

     total charge of GC-SCF    =      -3.49581104 e
     the Fermi energy          =      -2.35220724 eV
                        (error :       0.44820724 eV)
     electrostatic embedding   =      -1.57471926 Ry
     cavitation energy         =       0.03652216 Ry
     electrolyte free energy   =      -0.01203267 Ry
     correction to one-el term =     119.35768011 Ry

     iteration # 13     ecut=    80.00 Ry     beta= 0.20
     Davidson diagonalization with overlap

---- Real-time Memory Report at c_bands before calling an iterative solver
          1124 MiB given to the printing process from OS
             0 MiB allocation reported by mallinfo(arena+hblkhd)
        204663 MiB available memory on the node where the printing process lives
------------------
     ethr =  3.30E-07,  avg # of iterations = 15.9

     negative rho (up, down):  6.883E-04 0.000E+00

     add environment contribution to local potential

     total cpu time spent up to now is      787.3 secs

     total energy              =    -721.88283861 Ry
     estimated scf accuracy    <       0.00122041 Ry

     total charge of GC-SCF    =      -3.63363462 e
     the Fermi energy          =      -2.19458999 eV
                        (error :       0.29058999 eV)
     electrostatic embedding   =      -1.76803599 Ry
     cavitation energy         =       0.03652216 Ry
     electrolyte free energy   =      -0.01467304 Ry
     correction to one-el term =     127.78453195 Ry

     iteration # 14     ecut=    80.00 Ry     beta= 0.20
     Davidson diagonalization with overlap

---- Real-time Memory Report at c_bands before calling an iterative solver
          1124 MiB given to the printing process from OS
             0 MiB allocation reported by mallinfo(arena+hblkhd)
        204546 MiB available memory on the node where the printing process lives
------------------
     ethr =  3.30E-07,  avg # of iterations = 11.9

     negative rho (up, down):  6.452E-04 0.000E+00

     add environment contribution to local potential

     total cpu time spent up to now is      827.3 secs

     total energy              =    -721.87566441 Ry
     estimated scf accuracy    <       0.00137130 Ry

     total charge of GC-SCF    =      -4.07817909 e
     the Fermi energy          =      -2.12674822 eV
                        (error :       0.22274822 eV)
     electrostatic embedding   =      -1.89995632 Ry
     cavitation energy         =       0.03652216 Ry
     electrolyte free energy   =      -0.01664616 Ry
     correction to one-el term =     133.12108360 Ry

     iteration # 15     ecut=    80.00 Ry     beta= 0.20
     Davidson diagonalization with overlap

---- Real-time Memory Report at c_bands before calling an iterative solver
          1124 MiB given to the printing process from OS
             0 MiB allocation reported by mallinfo(arena+hblkhd)
        204573 MiB available memory on the node where the printing process lives
------------------
     ethr =  3.30E-07,  avg # of iterations = 10.8

     negative rho (up, down):  6.586E-04 0.000E+00

     add environment contribution to local potential

     total cpu time spent up to now is      870.5 secs

     total energy              =    -721.90085811 Ry
     estimated scf accuracy    <       0.00014150 Ry

     total charge of GC-SCF    =      -4.70775298 e
     the Fermi energy          =      -2.13801233 eV
                        (error :       0.23401233 eV)
     electrostatic embedding   =      -2.33717426 Ry
     cavitation energy         =       0.03652216 Ry
     electrolyte free energy   =      -0.02232442 Ry
     correction to one-el term =     147.33618410 Ry

     iteration # 16     ecut=    80.00 Ry     beta= 0.20
     Davidson diagonalization with overlap

---- Real-time Memory Report at c_bands before calling an iterative solver
          1124 MiB given to the printing process from OS
             0 MiB allocation reported by mallinfo(arena+hblkhd)
        204556 MiB available memory on the node where the printing process lives
------------------
     ethr =  9.52E-08,  avg # of iterations = 25.8

     negative rho (up, down):  6.432E-04 0.000E+00

     add environment contribution to local potential

     total cpu time spent up to now is      935.3 secs

     total energy              =    -721.93086686 Ry
     estimated scf accuracy    <       0.00252513 Ry

     total charge of GC-SCF    =      -5.30655016 e
     the Fermi energy          =      -1.91902416 eV
                        (error :       0.01502416 eV)
     electrostatic embedding   =      -3.01935211 Ry
     cavitation energy         =       0.03652216 Ry
     electrolyte free energy   =      -0.03417434 Ry
     correction to one-el term =     167.74935837 Ry

     iteration # 17     ecut=    80.00 Ry     beta= 0.20
     Davidson diagonalization with overlap

---- Real-time Memory Report at c_bands before calling an iterative solver
          1124 MiB given to the printing process from OS
             0 MiB allocation reported by mallinfo(arena+hblkhd)
        204596 MiB available memory on the node where the printing process lives
------------------
     ethr =  9.52E-08,  avg # of iterations = 12.0

     negative rho (up, down):  5.679E-04 0.000E+00

     add environment contribution to local potential

     total cpu time spent up to now is      977.5 secs

     total energy              =    -721.93821998 Ry
     estimated scf accuracy    <       0.00050456 Ry

     total charge of GC-SCF    =      -4.88638452 e
     the Fermi energy          =      -1.90132079 eV
                        (error :       0.00267921 eV)
     electrostatic embedding   =      -3.75970617 Ry
     cavitation energy         =       0.03652216 Ry
     electrolyte free energy   =      -0.04750456 Ry
     correction to one-el term =     186.84916803 Ry

     iteration # 18     ecut=    80.00 Ry     beta= 0.20
     Davidson diagonalization with overlap

---- Real-time Memory Report at c_bands before calling an iterative solver
          1124 MiB given to the printing process from OS
             0 MiB allocation reported by mallinfo(arena+hblkhd)
        204569 MiB available memory on the node where the printing process lives
------------------
     ethr =  9.52E-08,  avg # of iterations = 25.4

     negative rho (up, down):  5.376E-04 0.000E+00

     add environment contribution to local potential

     total cpu time spent up to now is     1036.2 secs

     total energy              =    -721.93099980 Ry
     estimated scf accuracy    <       0.00016064 Ry

     total charge of GC-SCF    =      -5.50653134 e
     the Fermi energy          =      -2.00954409 eV
                        (error :       0.10554409 eV)
     electrostatic embedding   =      -3.22480168 Ry
     cavitation energy         =       0.03652216 Ry
     electrolyte free energy   =      -0.03709530 Ry
     correction to one-el term =     172.64766262 Ry

     iteration # 19     ecut=    80.00 Ry     beta= 0.20
     Davidson diagonalization with overlap

---- Real-time Memory Report at c_bands before calling an iterative solver
          1124 MiB given to the printing process from OS
             0 MiB allocation reported by mallinfo(arena+hblkhd)
        204519 MiB available memory on the node where the printing process lives
------------------
     ethr =  9.52E-08,  avg # of iterations = 24.4

     negative rho (up, down):  5.365E-04 0.000E+00

     add environment contribution to local potential

     total cpu time spent up to now is     1092.8 secs

     total energy              =    -721.91542275 Ry
     estimated scf accuracy    <       0.00030701 Ry

     total charge of GC-SCF    =      -5.55356720 e
     the Fermi energy          =      -1.89460759 eV
                        (error :       0.00939241 eV)
     electrostatic embedding   =      -4.00718367 Ry
     cavitation energy         =       0.03652216 Ry
     electrolyte free energy   =      -0.05261687 Ry
     correction to one-el term =     192.46923673 Ry

     iteration # 20     ecut=    80.00 Ry     beta= 0.20
     Davidson diagonalization with overlap

---- Real-time Memory Report at c_bands before calling an iterative solver
          1124 MiB given to the printing process from OS
             0 MiB allocation reported by mallinfo(arena+hblkhd)
        204491 MiB available memory on the node where the printing process lives
------------------
     ethr =  9.52E-08,  avg # of iterations = 13.2

     negative rho (up, down):  5.182E-04 0.000E+00

     add environment contribution to local potential

     total cpu time spent up to now is     1137.2 secs

     total energy              =    -721.91695934 Ry
     estimated scf accuracy    <       0.00004134 Ry

     total charge of GC-SCF    =      -5.66358701 e
     the Fermi energy          =      -1.92530446 eV
                        (error :       0.02130446 eV)
     electrostatic embedding   =      -4.05761343 Ry
     cavitation energy         =       0.03652216 Ry
     electrolyte free energy   =      -0.05358166 Ry
     correction to one-el term =     193.22665124 Ry

     iteration # 21     ecut=    80.00 Ry     beta= 0.20
     Davidson diagonalization with overlap

---- Real-time Memory Report at c_bands before calling an iterative solver
          1124 MiB given to the printing process from OS
             0 MiB allocation reported by mallinfo(arena+hblkhd)
        204520 MiB available memory on the node where the printing process lives
------------------
     ethr =  2.76E-08,  avg # of iterations = 10.5

     negative rho (up, down):  5.803E-04 0.000E+00

     add environment contribution to local potential

     total cpu time spent up to now is     1180.8 secs

     total energy              =    -721.91729793 Ry
     estimated scf accuracy    <       0.00000757 Ry

     total charge of GC-SCF    =      -5.66677444 e
     the Fermi energy          =      -1.93139497 eV
                        (error :       0.02739497 eV)
     electrostatic embedding   =      -4.20160817 Ry
     cavitation energy         =       0.03652216 Ry
     electrolyte free energy   =      -0.05656375 Ry
     correction to one-el term =     196.39090549 Ry

     iteration # 22     ecut=    80.00 Ry     beta= 0.20
     Davidson diagonalization with overlap

---- Real-time Memory Report at c_bands before calling an iterative solver
          1124 MiB given to the printing process from OS
             0 MiB allocation reported by mallinfo(arena+hblkhd)
        204509 MiB available memory on the node where the printing process lives
------------------
     ethr =  5.06E-09,  avg # of iterations = 12.9

     negative rho (up, down):  5.485E-04 0.000E+00

     add environment contribution to local potential

     total cpu time spent up to now is     1227.2 secs

     total energy              =    -721.91753337 Ry
     estimated scf accuracy    <       0.00000349 Ry

     total charge of GC-SCF    =      -5.75632977 e
     the Fermi energy          =      -1.92267747 eV
                        (error :       0.01867747 eV)
     electrostatic embedding   =      -4.20019501 Ry
     cavitation energy         =       0.03652216 Ry
     electrolyte free energy   =      -0.05669742 Ry
     correction to one-el term =     196.32771188 Ry

     iteration # 23     ecut=    80.00 Ry     beta= 0.20
     Davidson diagonalization with overlap

---- Real-time Memory Report at c_bands before calling an iterative solver
          1124 MiB given to the printing process from OS
             0 MiB allocation reported by mallinfo(arena+hblkhd)
        204476 MiB available memory on the node where the printing process lives
------------------
     ethr =  2.33E-09,  avg # of iterations = 15.8

     negative rho (up, down):  5.010E-04 0.000E+00

     add environment contribution to local potential

     total cpu time spent up to now is     1274.1 secs

     total energy              =    -721.91741881 Ry
     estimated scf accuracy    <       0.00000143 Ry

     total charge of GC-SCF    =      -5.79427415 e
     the Fermi energy          =      -1.91409582 eV
                        (error :       0.01009582 eV)
     electrostatic embedding   =      -4.31818005 Ry
     cavitation energy         =       0.03652216 Ry
     electrolyte free energy   =      -0.05930844 Ry
     correction to one-el term =     198.92894303 Ry

     iteration # 24     ecut=    80.00 Ry     beta= 0.20
     Davidson diagonalization with overlap

---- Real-time Memory Report at c_bands before calling an iterative solver
          1124 MiB given to the printing process from OS
             0 MiB allocation reported by mallinfo(arena+hblkhd)
        204462 MiB available memory on the node where the printing process lives
------------------
     ethr =  9.55E-10,  avg # of iterations = 18.3

     negative rho (up, down):  4.857E-04 0.000E+00

     add environment contribution to local potential

     total cpu time spent up to now is     1327.0 secs

     total energy              =    -721.91740727 Ry
     estimated scf accuracy    <       0.00000123 Ry

     total charge of GC-SCF    =      -5.80966305 e
     the Fermi energy          =      -1.90865065 eV
                        (error :       0.00465065 eV)
     electrostatic embedding   =      -4.36863877 Ry
     cavitation energy         =       0.03652216 Ry
     electrolyte free energy   =      -0.06045408 Ry
     correction to one-el term =     200.04299868 Ry

     iteration # 25     ecut=    80.00 Ry     beta= 0.20
     Davidson diagonalization with overlap

---- Real-time Memory Report at c_bands before calling an iterative solver
          1124 MiB given to the printing process from OS
             0 MiB allocation reported by mallinfo(arena+hblkhd)
        204493 MiB available memory on the node where the printing process lives
------------------
     ethr =  8.18E-10,  avg # of iterations = 21.2

     negative rho (up, down):  4.815E-04 0.000E+00

     add environment contribution to local potential

     total cpu time spent up to now is     1382.1 secs

     total energy              =    -721.91749949 Ry
     estimated scf accuracy    <       0.00000077 Ry

     total charge of GC-SCF    =      -5.84509343 e
     the Fermi energy          =      -1.90795436 eV
                        (error :       0.00395436 eV)
     electrostatic embedding   =      -4.38466669 Ry
     cavitation energy         =       0.03652216 Ry
     electrolyte free energy   =      -0.06088700 Ry
     correction to one-el term =     200.30602157 Ry

     iteration # 26     ecut=    80.00 Ry     beta= 0.20
     Davidson diagonalization with overlap

---- Real-time Memory Report at c_bands before calling an iterative solver
          1124 MiB given to the printing process from OS
             0 MiB allocation reported by mallinfo(arena+hblkhd)
        204463 MiB available memory on the node where the printing process lives
------------------
     ethr =  5.13E-10,  avg # of iterations = 13.5

     negative rho (up, down):  4.678E-04 0.000E+00

     add environment contribution to local potential

     total cpu time spent up to now is     1426.4 secs

     total energy              =    -721.91745832 Ry
     estimated scf accuracy    <       0.00000070 Ry

     total charge of GC-SCF    =      -5.82392297 e
     the Fermi energy          =      -1.90215809 eV
                        (error :       0.00184191 eV)
     electrostatic embedding   =      -4.43326679 Ry
     cavitation energy         =       0.03652216 Ry
     electrolyte free energy   =      -0.06199210 Ry
     correction to one-el term =     201.40168454 Ry

     iteration # 27     ecut=    80.00 Ry     beta= 0.20
     Davidson diagonalization with overlap

---- Real-time Memory Report at c_bands before calling an iterative solver
          1124 MiB given to the printing process from OS
             0 MiB allocation reported by mallinfo(arena+hblkhd)
        204460 MiB available memory on the node where the printing process lives
------------------
     ethr =  4.68E-10,  avg # of iterations = 16.3

     negative rho (up, down):  4.686E-04 0.000E+00

     add environment contribution to local potential

     total cpu time spent up to now is     1477.3 secs

     total energy              =    -721.91743698 Ry
     estimated scf accuracy    <       0.00000057 Ry

     total charge of GC-SCF    =      -5.84347326 e
     the Fermi energy          =      -1.90691212 eV
                        (error :       0.00291212 eV)
     electrostatic embedding   =      -4.40183255 Ry
     cavitation energy         =       0.03652216 Ry
     electrolyte free energy   =      -0.06130671 Ry
     correction to one-el term =     200.64004236 Ry

     iteration # 28     ecut=    80.00 Ry     beta= 0.20
     Davidson diagonalization with overlap

---- Real-time Memory Report at c_bands before calling an iterative solver
          1124 MiB given to the printing process from OS
             0 MiB allocation reported by mallinfo(arena+hblkhd)
        204434 MiB available memory on the node where the printing process lives
------------------
     ethr =  3.78E-10,  avg # of iterations = 11.8

     negative rho (up, down):  4.577E-04 0.000E+00

     total cpu time spent up to now is     1502.8 secs

     End of self-consistent calculation

          k = 0.0000 0.0000 0.0000 (341261 PWs)   bands (ev):

   -49.0719 -49.0719 -49.0719 -49.0718 -49.0718 -49.0717 -49.0717 -49.0717
   -48.6297 -48.6295 -48.6295 -48.6292 -48.6292 -48.6290 -48.6289 -48.6288
   -48.4517 -48.4515 -48.4515 -48.4514 -48.4507 -48.4506 -48.4506 -48.4506
   -48.4438 -48.4365 -48.4365 -48.4365 -48.4345 -48.4345 -48.4344 -48.4337
   -48.4289 -48.4289 -48.4289 -48.4264 -48.4260 -48.4259 -48.4259 -48.4223
   -48.3526 -48.3521 -48.3519 -48.3514 -48.3514 -48.3512 -48.3509 -48.3504
    -5.3498  -4.9908  -4.4083  -3.7592  -3.7592  -3.7591  -3.7475  -3.7474
    -3.7474  -3.7077  -3.3864  -3.3864  -3.3864  -3.3579  -3.3578  -3.3578
    -2.9399  -2.7752  -2.7752  -2.7751  -2.7190  -2.7190  -2.7190  -2.0805
    -2.0805  -2.0804  -1.9535  -1.9535  -1.9535  -1.9393  -1.4716  -1.4716
    -1.4716  -1.2671  -1.2670  -1.2670  -1.0826  -0.9774  -0.9774  -0.9773
    -0.9336  -0.9336  -0.9335  -0.3917  -0.2879  -0.2879  -0.2879  -0.1391
    -0.0946  -0.0946  -0.0946   0.0199   0.0338   0.3601   0.3601   0.3601
     0.4048   0.4524   0.5653   0.5653

     occupation numbers 
     1.0000   1.0000   1.0000   1.0000   1.0000   1.0000   1.0000   1.0000
     1.0000   1.0000   1.0000   1.0000   1.0000   1.0000   1.0000   1.0000
     1.0000   1.0000   1.0000   1.0000   1.0000   1.0000   1.0000   1.0000
     1.0000   1.0000   1.0000   1.0000   1.0000   1.0000   1.0000   1.0000
     1.0000   1.0000   1.0000   1.0000   1.0000   1.0000   1.0000   1.0000
     1.0000   1.0000   1.0000   1.0000   1.0000   1.0000   1.0000   1.0000
     1.0000   1.0000   1.0000   1.0000   1.0000   1.0000   1.0000   1.0000
     1.0000   1.0000   1.0000   1.0000   1.0000   1.0000   1.0000   1.0000
     1.0000   1.0000   1.0000   1.0000   1.0000   1.0000   1.0000   1.0798
     1.0798   1.0798   0.6704   0.6703   0.6703   0.5921   0.0000   0.0000
     0.0000   0.0000   0.0000   0.0000   0.0000   0.0000   0.0000   0.0000
     0.0000   0.0000   0.0000   0.0000   0.0000   0.0000   0.0000   0.0000
     0.0000   0.0000   0.0000   0.0000   0.0000   0.0000   0.0000   0.0000
     0.0000   0.0000   0.0000   0.0000

          k = 0.0000 0.1650 0.0000 (341287 PWs)   bands (ev):

   -49.0719 -49.0719 -49.0719 -49.0718 -49.0718 -49.0717 -49.0717 -49.0717
   -48.6297 -48.6295 -48.6295 -48.6292 -48.6292 -48.6290 -48.6289 -48.6288
   -48.4517 -48.4516 -48.4515 -48.4514 -48.4507 -48.4506 -48.4506 -48.4506
   -48.4436 -48.4374 -48.4367 -48.4367 -48.4342 -48.4341 -48.4339 -48.4336
   -48.4291 -48.4290 -48.4288 -48.4265 -48.4259 -48.4259 -48.4257 -48.4225
   -48.3526 -48.3521 -48.3519 -48.3515 -48.3514 -48.3512 -48.3509 -48.3504
    -5.3173  -4.9577  -4.3738  -4.1768  -3.9494  -3.9494  -3.8005  -3.6716
    -3.5709  -3.5709  -3.4938  -3.4938  -3.2669  -3.1793  -3.1107  -3.1107
    -2.9459  -2.9459  -2.9043  -2.8817  -2.4909  -2.4909  -2.4584  -2.2280
    -2.1933  -2.1933  -1.9065  -1.8175  -1.8175  -1.8137  -1.6226  -1.6226
    -1.4290  -1.2815  -1.2815  -1.2711  -1.1528  -1.1528  -1.0504  -0.9350
    -0.8539  -0.8539  -0.8172  -0.4397  -0.4397  -0.3596  -0.2844  -0.1515
    -0.1515  -0.0975  -0.0527  -0.0427   0.0533   0.0573   0.0744   0.3491
     0.3491   0.3829   0.3943   0.4668

     occupation numbers 
     1.0000   1.0000   1.0000   1.0000   1.0000   1.0000   1.0000   1.0000
     1.0000   1.0000   1.0000   1.0000   1.0000   1.0000   1.0000   1.0000
     1.0000   1.0000   1.0000   1.0000   1.0000   1.0000   1.0000   1.0000
     1.0000   1.0000   1.0000   1.0000   1.0000   1.0000   1.0000   1.0000
     1.0000   1.0000   1.0000   1.0000   1.0000   1.0000   1.0000   1.0000
     1.0000   1.0000   1.0000   1.0000   1.0000   1.0000   1.0000   1.0000
     1.0000   1.0000   1.0000   1.0000   1.0000   1.0000   1.0000   1.0000
     1.0000   1.0000   1.0000   1.0000   1.0000   1.0000   1.0000   1.0000
     1.0000   1.0000   1.0000   1.0000   1.0000   1.0000   1.0000   1.0151
     1.0306   1.0306   0.4154   0.0953   0.0953   0.0879   0.0002   0.0002
     0.0000   0.0000   0.0000   0.0000   0.0000   0.0000   0.0000   0.0000
     0.0000   0.0000   0.0000   0.0000   0.0000   0.0000   0.0000   0.0000
     0.0000   0.0000   0.0000   0.0000   0.0000   0.0000   0.0000   0.0000
     0.0000   0.0000   0.0000   0.0000

          k = 0.0000 0.3299 0.0000 (341325 PWs)   bands (ev):

   -49.0719 -49.0719 -49.0719 -49.0718 -49.0717 -49.0717 -49.0717 -49.0717
   -48.6297 -48.6295 -48.6295 -48.6293 -48.6292 -48.6290 -48.6289 -48.6288
   -48.4516 -48.4516 -48.4515 -48.4514 -48.4507 -48.4506 -48.4506 -48.4506
   -48.4429 -48.4390 -48.4370 -48.4369 -48.4337 -48.4336 -48.4335 -48.4332
   -48.4293 -48.4293 -48.4285 -48.4268 -48.4259 -48.4258 -48.4251 -48.4229
   -48.3526 -48.3520 -48.3519 -48.3515 -48.3514 -48.3512 -48.3509 -48.3505
    -5.2197  -4.8584  -4.5355  -4.2705  -4.1636  -4.0808  -4.0808  -3.7027
    -3.7027  -3.5634  -3.5523  -3.1771  -3.1771  -3.0778  -3.0778  -2.8239
    -2.7978  -2.7888  -2.7888  -2.7111  -2.3510  -2.3510  -2.3422  -2.1300
    -2.1300  -2.0632  -1.9759  -1.9759  -1.8102  -1.7179  -1.7179  -1.7170
    -1.5292  -1.5292  -1.3013  -1.1864  -1.1864  -1.1134  -0.9607  -0.9008
    -0.9008  -0.8078  -0.7449  -0.7182  -0.6676  -0.6676  -0.4085  -0.3417
    -0.2521  -0.1518  -0.1512  -0.1512   0.0314   0.0731   0.0789   0.0909
     0.0909   0.1682   0.1946   0.3861

     occupation numbers 
     1.0000   1.0000   1.0000   1.0000   1.0000   1.0000   1.0000   1.0000
     1.0000   1.0000   1.0000   1.0000   1.0000   1.0000   1.0000   1.0000
     1.0000   1.0000   1.0000   1.0000   1.0000   1.0000   1.0000   1.0000
     1.0000   1.0000   1.0000   1.0000   1.0000   1.0000   1.0000   1.0000
     1.0000   1.0000   1.0000   1.0000   1.0000   1.0000   1.0000   1.0000
     1.0000   1.0000   1.0000   1.0000   1.0000   1.0000   1.0000   1.0000
     1.0000   1.0000   1.0000   1.0000   1.0000   1.0000   1.0000   1.0000
     1.0000   1.0000   1.0000   1.0000   1.0000   1.0000   1.0000   1.0000
     1.0000   1.0000   1.0000   1.0000   1.0004   1.0004   1.0005   1.0717
     1.0717   1.0662   0.7888   0.7888   0.0816   0.0071   0.0071   0.0069
     0.0000   0.0000   0.0000   0.0000   0.0000   0.0000   0.0000   0.0000
     0.0000   0.0000   0.0000   0.0000   0.0000   0.0000   0.0000   0.0000
     0.0000   0.0000   0.0000   0.0000   0.0000   0.0000   0.0000   0.0000
     0.0000   0.0000   0.0000   0.0000

          k = 0.0000 0.4949 0.0000 (341402 PWs)   bands (ev):

   -49.0719 -49.0719 -49.0719 -49.0718 -49.0717 -49.0717 -49.0717 -49.0717
   -48.6296 -48.6295 -48.6295 -48.6293 -48.6291 -48.6290 -48.6289 -48.6288
   -48.4516 -48.4516 -48.4515 -48.4514 -48.4507 -48.4506 -48.4506 -48.4506
   -48.4419 -48.4405 -48.4371 -48.4371 -48.4334 -48.4333 -48.4333 -48.4331
   -48.4296 -48.4295 -48.4279 -48.4273 -48.4258 -48.4258 -48.4243 -48.4236
   -48.3526 -48.3520 -48.3519 -48.3516 -48.3514 -48.3511 -48.3509 -48.3505
    -5.0569  -4.8289  -4.6929  -4.4612  -4.1468  -4.1468  -4.0988  -3.8590
    -3.7691  -3.7691  -3.3839  -3.1457  -3.1457  -3.1347  -2.8053  -2.8053
    -2.6224  -2.4282  -2.4282  -2.4094  -2.4094  -2.3860  -2.3691  -2.3691
    -2.1079  -1.9915  -1.9915  -1.7746  -1.7746  -1.6971  -1.6684  -1.6684
    -1.6656  -1.4936  -1.4346  -1.3261  -1.3261  -1.0885  -1.0551  -0.9700
    -0.9586  -0.9586  -0.7951  -0.7908  -0.6443  -0.6443  -0.5961  -0.5659
    -0.3534  -0.3003  -0.2453  -0.2453  -0.0726  -0.0726  -0.0048   0.0387
     0.2485   0.2821   0.3727   0.3871

     occupation numbers 
     1.0000   1.0000   1.0000   1.0000   1.0000   1.0000   1.0000   1.0000
     1.0000   1.0000   1.0000   1.0000   1.0000   1.0000   1.0000   1.0000
     1.0000   1.0000   1.0000   1.0000   1.0000   1.0000   1.0000   1.0000
     1.0000   1.0000   1.0000   1.0000   1.0000   1.0000   1.0000   1.0000
     1.0000   1.0000   1.0000   1.0000   1.0000   1.0000   1.0000   1.0000
     1.0000   1.0000   1.0000   1.0000   1.0000   1.0000   1.0000   1.0000
     1.0000   1.0000   1.0000   1.0000   1.0000   1.0000   1.0000   1.0000
     1.0000   1.0000   1.0000   1.0000   1.0000   1.0000   1.0000   1.0000
     1.0000   1.0000   1.0000   1.0000   1.0000   1.0001   1.0002   1.0002
     1.0816   0.8630   0.8630   0.0353   0.0353   0.0036   0.0013   0.0013
     0.0012   0.0000   0.0000   0.0000   0.0000   0.0000   0.0000   0.0000
     0.0000   0.0000   0.0000   0.0000   0.0000   0.0000   0.0000   0.0000
     0.0000   0.0000   0.0000   0.0000   0.0000   0.0000   0.0000   0.0000
     0.0000   0.0000   0.0000   0.0000

          k = 0.1429 0.2474 0.0000 (341214 PWs)   bands (ev):

   -49.0719 -49.0719 -49.0719 -49.0718 -49.0718 -49.0717 -49.0717 -49.0717
   -48.6297 -48.6295 -48.6295 -48.6293 -48.6292 -48.6290 -48.6289 -48.6288
   -48.4517 -48.4515 -48.4515 -48.4514 -48.4507 -48.4506 -48.4506 -48.4506
   -48.4432 -48.4381 -48.4380 -48.4361 -48.4342 -48.4337 -48.4335 -48.4334
   -48.4294 -48.4289 -48.4288 -48.4267 -48.4260 -48.4255 -48.4255 -48.4228
   -48.3526 -48.3520 -48.3519 -48.3515 -48.3514 -48.3512 -48.3509 -48.3505
    -5.2523  -4.8915  -4.3402  -4.3401  -4.3050  -3.9657  -3.9656  -3.6653
    -3.6537  -3.5995  -3.3491  -3.3490  -3.2902  -3.2617  -2.9772  -2.9771
    -2.8332  -2.6734  -2.6290  -2.6290  -2.6185  -2.5734  -2.5734  -2.0164
    -1.9819  -1.9818  -1.9653  -1.8682  -1.8681  -1.8551  -1.8419  -1.5780
    -1.5412  -1.5412  -1.1783  -1.1346  -1.1346  -1.0664  -1.0664  -0.9886
    -0.8835  -0.8706  -0.7945  -0.7945  -0.4384  -0.4351  -0.3045  -0.3045
    -0.3021  -0.1237  -0.1024  -0.1023  -0.0452   0.0170   0.0198   0.0759
     0.1576   0.1676   0.3187   0.3187

     occupation numbers 
     1.0000   1.0000   1.0000   1.0000   1.0000   1.0000   1.0000   1.0000
     1.0000   1.0000   1.0000   1.0000   1.0000   1.0000   1.0000   1.0000
     1.0000   1.0000   1.0000   1.0000   1.0000   1.0000   1.0000   1.0000
     1.0000   1.0000   1.0000   1.0000   1.0000   1.0000   1.0000   1.0000
     1.0000   1.0000   1.0000   1.0000   1.0000   1.0000   1.0000   1.0000
     1.0000   1.0000   1.0000   1.0000   1.0000   1.0000   1.0000   1.0000
     1.0000   1.0000   1.0000   1.0000   1.0000   1.0000   1.0000   1.0000
     1.0000   1.0000   1.0000   1.0000   1.0000   1.0000   1.0000   1.0000
     1.0000   1.0000   1.0000   1.0000   1.0000   1.0000   1.0000   0.9615
     0.8179   0.8177   0.7340   0.2419   0.2418   0.1951   0.1539   0.0000
     0.0000   0.0000   0.0000   0.0000   0.0000   0.0000   0.0000   0.0000
     0.0000   0.0000   0.0000   0.0000   0.0000   0.0000   0.0000   0.0000
     0.0000   0.0000   0.0000   0.0000   0.0000   0.0000   0.0000   0.0000
     0.0000   0.0000   0.0000   0.0000

          k = 0.1429 0.4124 0.0000 (341352 PWs)   bands (ev):

   -49.0719 -49.0719 -49.0719 -49.0718 -49.0717 -49.0717 -49.0717 -49.0717
   -48.6297 -48.6295 -48.6295 -48.6293 -48.6291 -48.6290 -48.6289 -48.6288
   -48.4516 -48.4515 -48.4515 -48.4514 -48.4507 -48.4506 -48.4506 -48.4506
   -48.4423 -48.4396 -48.4385 -48.4358 -48.4339 -48.4334 -48.4332 -48.4331
   -48.4299 -48.4289 -48.4283 -48.4271 -48.4261 -48.4253 -48.4248 -48.4233
   -48.3526 -48.3520 -48.3519 -48.3516 -48.3514 -48.3511 -48.3509 -48.3505
    -5.1221  -4.7591  -4.6660  -4.4384  -4.2959  -4.1674  -4.0650  -3.7591
    -3.6883  -3.4556  -3.4502  -3.3772  -3.3095  -2.9586  -2.9212  -2.7445
    -2.7179  -2.6920  -2.6292  -2.4668  -2.3994  -2.2872  -2.2541  -2.2348
    -2.0612  -1.9793  -1.9728  -1.9646  -1.8636  -1.7179  -1.6261  -1.5990
    -1.5037  -1.4187  -1.3787  -1.3767  -1.1294  -1.0987  -1.0915  -1.0634
    -0.9103  -0.8922  -0.8198  -0.8154  -0.7421  -0.6544  -0.5768  -0.5304
    -0.3608  -0.2459  -0.2295  -0.1657  -0.1420  -0.0636  -0.0052   0.1139
     0.1850   0.1873   0.2951   0.3776

     occupation numbers 
     1.0000   1.0000   1.0000   1.0000   1.0000   1.0000   1.0000   1.0000
     1.0000   1.0000   1.0000   1.0000   1.0000   1.0000   1.0000   1.0000
     1.0000   1.0000   1.0000   1.0000   1.0000   1.0000   1.0000   1.0000
     1.0000   1.0000   1.0000   1.0000   1.0000   1.0000   1.0000   1.0000
     1.0000   1.0000   1.0000   1.0000   1.0000   1.0000   1.0000   1.0000
     1.0000   1.0000   1.0000   1.0000   1.0000   1.0000   1.0000   1.0000
     1.0000   1.0000   1.0000   1.0000   1.0000   1.0000   1.0000   1.0000
     1.0000   1.0000   1.0000   1.0000   1.0000   1.0000   1.0000   1.0000
     1.0000   1.0000   1.0000   1.0000   1.0001   1.0032   1.0080   1.0129
     1.0637   0.8054   0.7728   0.7302   0.2248   0.0071   0.0003   0.0001
     0.0000   0.0000   0.0000   0.0000   0.0000   0.0000   0.0000   0.0000
     0.0000   0.0000   0.0000   0.0000   0.0000   0.0000   0.0000   0.0000
     0.0000   0.0000   0.0000   0.0000   0.0000   0.0000   0.0000   0.0000
     0.0000   0.0000   0.0000   0.0000

          k = 0.1429 0.5774 0.0000 (341402 PWs)   bands (ev):

   -49.0719 -49.0719 -49.0719 -49.0718 -49.0717 -49.0717 -49.0717 -49.0717
   -48.6296 -48.6295 -48.6295 -48.6293 -48.6291 -48.6290 -48.6289 -48.6288
   -48.4516 -48.4515 -48.4515 -48.4514 -48.4507 -48.4506 -48.4506 -48.4506
   -48.4413 -48.4409 -48.4386 -48.4358 -48.4337 -48.4333 -48.4331 -48.4330
   -48.4302 -48.4289 -48.4277 -48.4277 -48.4261 -48.4253 -48.4241 -48.4240
   -48.3526 -48.3520 -48.3519 -48.3516 -48.3514 -48.3511 -48.3509 -48.3506
    -4.9268  -4.9266  -4.5606  -4.5605  -4.4712  -4.0981  -3.9617  -3.9615
    -3.7924  -3.4839  -3.4097  -3.2411  -3.2409  -2.9134  -2.9046  -2.7750
    -2.7470  -2.5272  -2.4944  -2.4846  -2.4845  -2.2564  -2.2487  -2.0527
    -2.0478  -1.8586  -1.8245  -1.8174  -1.8052  -1.7772  -1.7772  -1.5375
    -1.5373  -1.4322  -1.3756  -1.3615  -1.3615  -1.1410  -1.1341  -1.1338
    -1.0815  -0.8995  -0.8651  -0.7934  -0.7934  -0.6626  -0.6625  -0.5146
    -0.5145  -0.4157  -0.2795  -0.2164  -0.1343   0.0023   0.0024   0.0973
     0.2311   0.2311   0.4063   0.4063

     occupation numbers 
     1.0000   1.0000   1.0000   1.0000   1.0000   1.0000   1.0000   1.0000
     1.0000   1.0000   1.0000   1.0000   1.0000   1.0000   1.0000   1.0000
     1.0000   1.0000   1.0000   1.0000   1.0000   1.0000   1.0000   1.0000
     1.0000   1.0000   1.0000   1.0000   1.0000   1.0000   1.0000   1.0000
     1.0000   1.0000   1.0000   1.0000   1.0000   1.0000   1.0000   1.0000
     1.0000   1.0000   1.0000   1.0000   1.0000   1.0000   1.0000   1.0000
     1.0000   1.0000   1.0000   1.0000   1.0000   1.0000   1.0000   1.0000
     1.0000   1.0000   1.0000   1.0000   1.0000   1.0000   1.0000   1.0000
     1.0000   1.0000   1.0000   1.0000   1.0000   1.0076   1.0092   1.0516
     1.0433   0.2068   0.1100   0.0951   0.0731   0.0378   0.0378   0.0000
     0.0000   0.0000   0.0000   0.0000   0.0000   0.0000   0.0000   0.0000
     0.0000   0.0000   0.0000   0.0000   0.0000   0.0000   0.0000   0.0000
     0.0000   0.0000   0.0000   0.0000   0.0000   0.0000   0.0000   0.0000
     0.0000   0.0000   0.0000   0.0000

          k = 0.2857 0.4949 0.0000 (341466 PWs)   bands (ev):

   -49.0719 -49.0719 -49.0719 -49.0718 -49.0717 -49.0717 -49.0717 -49.0717
   -48.6296 -48.6296 -48.6295 -48.6293 -48.6291 -48.6290 -48.6289 -48.6288
   -48.4516 -48.4515 -48.4515 -48.4514 -48.4507 -48.4506 -48.4506 -48.4506
   -48.4413 -48.4400 -48.4399 -48.4349 -48.4341 -48.4333 -48.4330 -48.4330
   -48.4304 -48.4283 -48.4282 -48.4276 -48.4262 -48.4247 -48.4246 -48.4239
   -48.3525 -48.3520 -48.3518 -48.3517 -48.3514 -48.3512 -48.3508 -48.3506
    -4.9593  -4.7314  -4.7313  -4.5936  -4.3622  -4.3621  -3.9959  -3.7564
    -3.7564  -3.3835  -3.3725  -3.2765  -3.0278  -3.0278  -3.0050  -2.9742
    -2.9402  -2.5435  -2.5180  -2.3737  -2.3197  -2.2832  -2.2832  -2.0435
    -2.0434  -1.8881  -1.6828  -1.6828  -1.6336  -1.6218  -1.6217  -1.5870
    -1.5577  -1.4181  -1.4070  -1.4069  -1.3981  -1.2421  -1.2421  -1.1657
    -1.0257  -0.9802  -0.9688  -0.8954  -0.8953  -0.7132  -0.5841  -0.5841
    -0.3604  -0.3604  -0.3440  -0.3419  -0.2224  -0.1698   0.0862   0.0862
     0.1939   0.3780   0.4124   0.4125

     occupation numbers 
     1.0000   1.0000   1.0000   1.0000   1.0000   1.0000   1.0000   1.0000
     1.0000   1.0000   1.0000   1.0000   1.0000   1.0000   1.0000   1.0000
     1.0000   1.0000   1.0000   1.0000   1.0000   1.0000   1.0000   1.0000
     1.0000   1.0000   1.0000   1.0000   1.0000   1.0000   1.0000   1.0000
     1.0000   1.0000   1.0000   1.0000   1.0000   1.0000   1.0000   1.0000
     1.0000   1.0000   1.0000   1.0000   1.0000   1.0000   1.0000   1.0000
     1.0000   1.0000   1.0000   1.0000   1.0000   1.0000   1.0000   1.0000
     1.0000   1.0000   1.0000   1.0000   1.0000   1.0000   1.0000   1.0000
     1.0000   1.0000   1.0000   1.0002   1.0011   1.0036   1.0036   1.0350
     1.0348   0.3259   0.0022   0.0022   0.0004   0.0002   0.0002   0.0000
     0.0000   0.0000   0.0000   0.0000   0.0000   0.0000   0.0000   0.0000
     0.0000   0.0000   0.0000   0.0000   0.0000   0.0000   0.0000   0.0000
     0.0000   0.0000   0.0000   0.0000   0.0000   0.0000   0.0000   0.0000
     0.0000   0.0000   0.0000   0.0000

          k =-0.1429 0.0825 0.0000 (341287 PWs)   bands (ev):

   -49.0719 -49.0719 -49.0719 -49.0718 -49.0718 -49.0717 -49.0717 -49.0717
   -48.6297 -48.6295 -48.6295 -48.6292 -48.6292 -48.6290 -48.6289 -48.6288
   -48.4517 -48.4515 -48.4515 -48.4514 -48.4507 -48.4506 -48.4506 -48.4506
   -48.4436 -48.4374 -48.4366 -48.4366 -48.4343 -48.4342 -48.4338 -48.4336
   -48.4291 -48.4290 -48.4288 -48.4265 -48.4259 -48.4259 -48.4257 -48.4225
   -48.3526 -48.3521 -48.3519 -48.3515 -48.3514 -48.3513 -48.3509 -48.3504
    -5.3173  -4.9577  -4.3738  -4.1768  -3.9494  -3.9494  -3.8005  -3.6716
    -3.5709  -3.5709  -3.4938  -3.4938  -3.2669  -3.1793  -3.1107  -3.1107
    -2.9460  -2.9459  -2.9043  -2.8817  -2.4909  -2.4909  -2.4584  -2.2280
    -2.1933  -2.1933  -1.9065  -1.8175  -1.8175  -1.8137  -1.6226  -1.6226
    -1.4290  -1.2815  -1.2815  -1.2711  -1.1528  -1.1528  -1.0504  -0.9350
    -0.8539  -0.8539  -0.8172  -0.4397  -0.4397  -0.3596  -0.2844  -0.1515
    -0.1515  -0.0975  -0.0527  -0.0427   0.0533   0.0573   0.0744   0.3491
     0.3491   0.3829   0.3943   0.4668

     occupation numbers 
     1.0000   1.0000   1.0000   1.0000   1.0000   1.0000   1.0000   1.0000
     1.0000   1.0000   1.0000   1.0000   1.0000   1.0000   1.0000   1.0000
     1.0000   1.0000   1.0000   1.0000   1.0000   1.0000   1.0000   1.0000
     1.0000   1.0000   1.0000   1.0000   1.0000   1.0000   1.0000   1.0000
     1.0000   1.0000   1.0000   1.0000   1.0000   1.0000   1.0000   1.0000
     1.0000   1.0000   1.0000   1.0000   1.0000   1.0000   1.0000   1.0000
     1.0000   1.0000   1.0000   1.0000   1.0000   1.0000   1.0000   1.0000
     1.0000   1.0000   1.0000   1.0000   1.0000   1.0000   1.0000   1.0000
     1.0000   1.0000   1.0000   1.0000   1.0000   1.0000   1.0000   1.0151
     1.0306   1.0306   0.4154   0.0953   0.0953   0.0879   0.0002   0.0002
     0.0000   0.0000   0.0000   0.0000   0.0000   0.0000   0.0000   0.0000
     0.0000   0.0000   0.0000   0.0000   0.0000   0.0000   0.0000   0.0000
     0.0000   0.0000   0.0000   0.0000   0.0000   0.0000   0.0000   0.0000
     0.0000   0.0000   0.0000   0.0000

          k =-0.2857 0.1650 0.0000 (341325 PWs)   bands (ev):

   -49.0719 -49.0719 -49.0719 -49.0718 -49.0718 -49.0717 -49.0717 -49.0717
   -48.6297 -48.6295 -48.6295 -48.6293 -48.6292 -48.6290 -48.6289 -48.6288
   -48.4517 -48.4515 -48.4515 -48.4514 -48.4507 -48.4506 -48.4506 -48.4506
   -48.4429 -48.4390 -48.4369 -48.4369 -48.4338 -48.4337 -48.4334 -48.4332
   -48.4293 -48.4293 -48.4285 -48.4268 -48.4259 -48.4258 -48.4251 -48.4229
   -48.3526 -48.3521 -48.3519 -48.3515 -48.3514 -48.3513 -48.3508 -48.3505
    -5.2197  -4.8584  -4.5355  -4.2705  -4.1636  -4.0808  -4.0808  -3.7027
    -3.7027  -3.5634  -3.5523  -3.1771  -3.1771  -3.0778  -3.0778  -2.8239
    -2.7978  -2.7888  -2.7888  -2.7111  -2.3510  -2.3510  -2.3422  -2.1300
    -2.1300  -2.0633  -1.9760  -1.9759  -1.8102  -1.7179  -1.7179  -1.7170
    -1.5292  -1.5292  -1.3013  -1.1864  -1.1864  -1.1134  -0.9607  -0.9008
    -0.9008  -0.8078  -0.7449  -0.7182  -0.6676  -0.6676  -0.4085  -0.3417
    -0.2521  -0.1518  -0.1512  -0.1512   0.0314   0.0731   0.0789   0.0909
     0.0909   0.1682   0.1946   0.3861

     occupation numbers 
     1.0000   1.0000   1.0000   1.0000   1.0000   1.0000   1.0000   1.0000
     1.0000   1.0000   1.0000   1.0000   1.0000   1.0000   1.0000   1.0000
     1.0000   1.0000   1.0000   1.0000   1.0000   1.0000   1.0000   1.0000
     1.0000   1.0000   1.0000   1.0000   1.0000   1.0000   1.0000   1.0000
     1.0000   1.0000   1.0000   1.0000   1.0000   1.0000   1.0000   1.0000
     1.0000   1.0000   1.0000   1.0000   1.0000   1.0000   1.0000   1.0000
     1.0000   1.0000   1.0000   1.0000   1.0000   1.0000   1.0000   1.0000
     1.0000   1.0000   1.0000   1.0000   1.0000   1.0000   1.0000   1.0000
     1.0000   1.0000   1.0000   1.0000   1.0004   1.0004   1.0005   1.0717
     1.0717   1.0662   0.7889   0.7888   0.0816   0.0071   0.0071   0.0069
     0.0000   0.0000   0.0000   0.0000   0.0000   0.0000   0.0000   0.0000
     0.0000   0.0000   0.0000   0.0000   0.0000   0.0000   0.0000   0.0000
     0.0000   0.0000   0.0000   0.0000   0.0000   0.0000   0.0000   0.0000
     0.0000   0.0000   0.0000   0.0000

          k =-0.4286 0.2474 0.0000 (341402 PWs)   bands (ev):

   -49.0719 -49.0719 -49.0719 -49.0718 -49.0718 -49.0717 -49.0717 -49.0717
   -48.6296 -48.6296 -48.6295 -48.6293 -48.6291 -48.6290 -48.6289 -48.6288
   -48.4516 -48.4515 -48.4515 -48.4514 -48.4507 -48.4506 -48.4506 -48.4506
   -48.4419 -48.4405 -48.4371 -48.4371 -48.4335 -48.4334 -48.4331 -48.4330
   -48.4296 -48.4295 -48.4279 -48.4273 -48.4258 -48.4258 -48.4243 -48.4236
   -48.3525 -48.3521 -48.3518 -48.3517 -48.3513 -48.3513 -48.3507 -48.3506
    -5.0569  -4.8289  -4.6929  -4.4612  -4.1468  -4.1468  -4.0988  -3.8590
    -3.7691  -3.7691  -3.3839  -3.1458  -3.1457  -3.1347  -2.8053  -2.8053
    -2.6224  -2.4282  -2.4282  -2.4094  -2.4094  -2.3860  -2.3691  -2.3691
    -2.1079  -1.9915  -1.9915  -1.7746  -1.7745  -1.6971  -1.6684  -1.6684
    -1.6656  -1.4936  -1.4346  -1.3261  -1.3261  -1.0885  -1.0551  -0.9700
    -0.9587  -0.9586  -0.7951  -0.7908  -0.6443  -0.6443  -0.5961  -0.5659
    -0.3534  -0.3003  -0.2453  -0.2453  -0.0726  -0.0726  -0.0047   0.0387
     0.2485   0.2821   0.3727   0.3871

     occupation numbers 
     1.0000   1.0000   1.0000   1.0000   1.0000   1.0000   1.0000   1.0000
     1.0000   1.0000   1.0000   1.0000   1.0000   1.0000   1.0000   1.0000
     1.0000   1.0000   1.0000   1.0000   1.0000   1.0000   1.0000   1.0000
     1.0000   1.0000   1.0000   1.0000   1.0000   1.0000   1.0000   1.0000
     1.0000   1.0000   1.0000   1.0000   1.0000   1.0000   1.0000   1.0000
     1.0000   1.0000   1.0000   1.0000   1.0000   1.0000   1.0000   1.0000
     1.0000   1.0000   1.0000   1.0000   1.0000   1.0000   1.0000   1.0000
     1.0000   1.0000   1.0000   1.0000   1.0000   1.0000   1.0000   1.0000
     1.0000   1.0000   1.0000   1.0000   1.0000   1.0001   1.0002   1.0002
     1.0816   0.8631   0.8630   0.0353   0.0353   0.0036   0.0013   0.0013
     0.0012   0.0000   0.0000   0.0000   0.0000   0.0000   0.0000   0.0000
     0.0000   0.0000   0.0000   0.0000   0.0000   0.0000   0.0000   0.0000
     0.0000   0.0000   0.0000   0.0000   0.0000   0.0000   0.0000   0.0000
     0.0000   0.0000   0.0000   0.0000

          k = 0.2857-0.0000 0.0000 (341214 PWs)   bands (ev):

   -49.0719 -49.0719 -49.0719 -49.0718 -49.0718 -49.0717 -49.0717 -49.0717
   -48.6297 -48.6295 -48.6295 -48.6293 -48.6292 -48.6290 -48.6289 -48.6288
   -48.4517 -48.4515 -48.4515 -48.4514 -48.4507 -48.4506 -48.4506 -48.4506
   -48.4432 -48.4382 -48.4379 -48.4360 -48.4343 -48.4337 -48.4335 -48.4333
   -48.4294 -48.4289 -48.4287 -48.4267 -48.4260 -48.4255 -48.4254 -48.4228
   -48.3526 -48.3521 -48.3519 -48.3515 -48.3514 -48.3513 -48.3508 -48.3505
    -5.2523  -4.8915  -4.3403  -4.3400  -4.3050  -3.9657  -3.9656  -3.6653
    -3.6537  -3.5995  -3.3491  -3.3490  -3.2902  -3.2617  -2.9773  -2.9770
    -2.8332  -2.6734  -2.6290  -2.6290  -2.6185  -2.5734  -2.5733  -2.0164
    -1.9819  -1.9818  -1.9653  -1.8682  -1.8681  -1.8552  -1.8419  -1.5780
    -1.5412  -1.5412  -1.1783  -1.1346  -1.1346  -1.0664  -1.0664  -0.9886
    -0.8835  -0.8706  -0.7945  -0.7945  -0.4384  -0.4351  -0.3046  -0.3045
    -0.3021  -0.1237  -0.1024  -0.1023  -0.0452   0.0170   0.0198   0.0759
     0.1576   0.1676   0.3187   0.3187

     occupation numbers 
     1.0000   1.0000   1.0000   1.0000   1.0000   1.0000   1.0000   1.0000
     1.0000   1.0000   1.0000   1.0000   1.0000   1.0000   1.0000   1.0000
     1.0000   1.0000   1.0000   1.0000   1.0000   1.0000   1.0000   1.0000
     1.0000   1.0000   1.0000   1.0000   1.0000   1.0000   1.0000   1.0000
     1.0000   1.0000   1.0000   1.0000   1.0000   1.0000   1.0000   1.0000
     1.0000   1.0000   1.0000   1.0000   1.0000   1.0000   1.0000   1.0000
     1.0000   1.0000   1.0000   1.0000   1.0000   1.0000   1.0000   1.0000
     1.0000   1.0000   1.0000   1.0000   1.0000   1.0000   1.0000   1.0000
     1.0000   1.0000   1.0000   1.0000   1.0000   1.0000   1.0000   0.9615
     0.8182   0.8176   0.7338   0.2420   0.2417   0.1951   0.1539   0.0000
     0.0000   0.0000   0.0000   0.0000   0.0000   0.0000   0.0000   0.0000
     0.0000   0.0000   0.0000   0.0000   0.0000   0.0000   0.0000   0.0000
     0.0000   0.0000   0.0000   0.0000   0.0000   0.0000   0.0000   0.0000
     0.0000   0.0000   0.0000   0.0000

          k =-0.2857 0.3299 0.0000 (341352 PWs)   bands (ev):

   -49.0719 -49.0719 -49.0719 -49.0718 -49.0717 -49.0717 -49.0717 -49.0717
   -48.6297 -48.6296 -48.6295 -48.6293 -48.6291 -48.6290 -48.6289 -48.6288
   -48.4516 -48.4515 -48.4515 -48.4514 -48.4507 -48.4506 -48.4506 -48.4506
   -48.4423 -48.4396 -48.4384 -48.4358 -48.4339 -48.4334 -48.4331 -48.4331
   -48.4299 -48.4289 -48.4283 -48.4271 -48.4261 -48.4253 -48.4248 -48.4233
   -48.3526 -48.3520 -48.3518 -48.3516 -48.3514 -48.3512 -48.3508 -48.3506
    -5.1221  -4.7591  -4.6660  -4.4384  -4.2959  -4.1674  -4.0650  -3.7591
    -3.6883  -3.4556  -3.4502  -3.3772  -3.3095  -2.9586  -2.9212  -2.7445
    -2.7179  -2.6920  -2.6292  -2.4668  -2.3994  -2.2872  -2.2541  -2.2348
    -2.0612  -1.9793  -1.9728  -1.9646  -1.8636  -1.7179  -1.6261  -1.5990
    -1.5037  -1.4187  -1.3787  -1.3767  -1.1293  -1.0987  -1.0915  -1.0634
    -0.9103  -0.8923  -0.8198  -0.8154  -0.7421  -0.6544  -0.5768  -0.5304
    -0.3608  -0.2459  -0.2295  -0.1657  -0.1420  -0.0636  -0.0052   0.1139
     0.1850   0.1873   0.2951   0.3776

     occupation numbers 
     1.0000   1.0000   1.0000   1.0000   1.0000   1.0000   1.0000   1.0000
     1.0000   1.0000   1.0000   1.0000   1.0000   1.0000   1.0000   1.0000
     1.0000   1.0000   1.0000   1.0000   1.0000   1.0000   1.0000   1.0000
     1.0000   1.0000   1.0000   1.0000   1.0000   1.0000   1.0000   1.0000
     1.0000   1.0000   1.0000   1.0000   1.0000   1.0000   1.0000   1.0000
     1.0000   1.0000   1.0000   1.0000   1.0000   1.0000   1.0000   1.0000
     1.0000   1.0000   1.0000   1.0000   1.0000   1.0000   1.0000   1.0000
     1.0000   1.0000   1.0000   1.0000   1.0000   1.0000   1.0000   1.0000
     1.0000   1.0000   1.0000   1.0000   1.0001   1.0032   1.0080   1.0129
     1.0637   0.8054   0.7728   0.7301   0.2248   0.0071   0.0003   0.0001
     0.0000   0.0000   0.0000   0.0000   0.0000   0.0000   0.0000   0.0000
     0.0000   0.0000   0.0000   0.0000   0.0000   0.0000   0.0000   0.0000
     0.0000   0.0000   0.0000   0.0000   0.0000   0.0000   0.0000   0.0000
     0.0000   0.0000   0.0000   0.0000

          k = 0.4286 0.0825 0.0000 (341352 PWs)   bands (ev):

   -49.0719 -49.0719 -49.0719 -49.0718 -49.0718 -49.0717 -49.0717 -49.0717
   -48.6296 -48.6296 -48.6295 -48.6293 -48.6291 -48.6290 -48.6289 -48.6288
   -48.4516 -48.4515 -48.4515 -48.4514 -48.4507 -48.4506 -48.4506 -48.4506
   -48.4423 -48.4397 -48.4384 -48.4358 -48.4339 -48.4334 -48.4333 -48.4330
   -48.4299 -48.4289 -48.4283 -48.4271 -48.4261 -48.4253 -48.4248 -48.4233
   -48.3525 -48.3521 -48.3518 -48.3516 -48.3513 -48.3513 -48.3508 -48.3506
    -5.1221  -4.7591  -4.6660  -4.4384  -4.2959  -4.1674  -4.0650  -3.7591
[...]
     atom   32 type  1   force =     0.00054924    0.00024077   -3.47620700
     atom   33 type  1   force =     0.00000306   -0.00001340   -8.66029759
     atom   34 type  1   force =     0.00000227   -0.00054922   -5.68291199
     atom   35 type  1   force =     0.00060374   -0.00001740  -10.42319226
     atom   36 type  1   force =     0.00000365   -0.00113018   -1.38876691
     atom   37 type  1   force =    -0.00256149   -0.00043238    1.39148051
     atom   38 type  1   force =     0.00000249   -0.00007738   10.43701584
     atom   39 type  1   force =     0.00153603    0.00115614    5.68361670
     atom   40 type  1   force =    -0.00128791   -0.00073045    8.66291213
     atom   41 type  1   force =     0.00000307   -0.00120139    3.48295574
     atom   42 type  1   force =     0.00009389   -0.00123227   12.33423009
     atom   43 type  1   force =    -0.00149836   -0.00154103  -12.32806451
     atom   44 type  1   force =     0.00000307   -0.00142948   -3.47524077
     atom   45 type  1   force =     0.00186773   -0.00035744   -8.65553782
     atom   46 type  1   force =    -0.00190090    0.00065369   -5.68165720
     atom   47 type  1   force =     0.00000307   -0.00017563  -10.42343316
     atom   48 type  1   force =     0.00200932    0.00010680   -1.38739621
     The core correction contribution to forces
     atom    1 type  1   force =     0.00000000    0.00000000    0.00000000
     atom    2 type  1   force =     0.00000000    0.00000000    0.00000000
     atom    3 type  1   force =     0.00000000    0.00000000    0.00000000
     atom    4 type  1   force =     0.00000000    0.00000000    0.00000000
     atom    5 type  1   force =     0.00000000    0.00000000    0.00000000
     atom    6 type  1   force =     0.00000000    0.00000000    0.00000000
     atom    7 type  1   force =     0.00000000    0.00000000    0.00000000
     atom    8 type  1   force =     0.00000000    0.00000000    0.00000000
     atom    9 type  1   force =     0.00000000    0.00000000    0.00000000
     atom   10 type  1   force =     0.00000000    0.00000000    0.00000000
     atom   11 type  1   force =     0.00000000    0.00000000    0.00000000
     atom   12 type  1   force =     0.00000000    0.00000000    0.00000000
     atom   13 type  1   force =     0.00000000    0.00000000    0.00000000
     atom   14 type  1   force =     0.00000000    0.00000000    0.00000000
     atom   15 type  1   force =     0.00000000    0.00000000    0.00000000
     atom   16 type  1   force =     0.00000000    0.00000000    0.00000000
     atom   17 type  1   force =     0.00000000    0.00000000    0.00000000
     atom   18 type  1   force =     0.00000000    0.00000000    0.00000000
     atom   19 type  1   force =     0.00000000    0.00000000    0.00000000
     atom   20 type  1   force =     0.00000000    0.00000000    0.00000000
     atom   21 type  1   force =     0.00000000    0.00000000    0.00000000
     atom   22 type  1   force =     0.00000000    0.00000000    0.00000000
     atom   23 type  1   force =     0.00000000    0.00000000    0.00000000
     atom   24 type  1   force =     0.00000000    0.00000000    0.00000000
     atom   25 type  1   force =     0.00000000    0.00000000    0.00000000
     atom   26 type  1   force =     0.00000000    0.00000000    0.00000000
     atom   27 type  1   force =     0.00000000    0.00000000    0.00000000
     atom   28 type  1   force =     0.00000000    0.00000000    0.00000000
     atom   29 type  1   force =     0.00000000    0.00000000    0.00000000
     atom   30 type  1   force =     0.00000000    0.00000000    0.00000000
     atom   31 type  1   force =     0.00000000    0.00000000    0.00000000
     atom   32 type  1   force =     0.00000000    0.00000000    0.00000000
     atom   33 type  1   force =     0.00000000    0.00000000    0.00000000
     atom   34 type  1   force =     0.00000000    0.00000000    0.00000000
     atom   35 type  1   force =     0.00000000    0.00000000    0.00000000
     atom   36 type  1   force =     0.00000000    0.00000000    0.00000000
     atom   37 type  1   force =     0.00000000    0.00000000    0.00000000
     atom   38 type  1   force =     0.00000000    0.00000000    0.00000000
     atom   39 type  1   force =     0.00000000    0.00000000    0.00000000
     atom   40 type  1   force =     0.00000000    0.00000000    0.00000000
     atom   41 type  1   force =     0.00000000    0.00000000    0.00000000
     atom   42 type  1   force =     0.00000000    0.00000000    0.00000000
     atom   43 type  1   force =     0.00000000    0.00000000    0.00000000
     atom   44 type  1   force =     0.00000000    0.00000000    0.00000000
     atom   45 type  1   force =     0.00000000    0.00000000    0.00000000
     atom   46 type  1   force =     0.00000000    0.00000000    0.00000000
     atom   47 type  1   force =     0.00000000    0.00000000    0.00000000
     atom   48 type  1   force =     0.00000000    0.00000000    0.00000000
     The Hubbard contrib.    to forces
     atom    1 type  1   force =     0.00000000    0.00000000    0.00000000
     atom    2 type  1   force =     0.00000000    0.00000000    0.00000000
     atom    3 type  1   force =     0.00000000    0.00000000    0.00000000
     atom    4 type  1   force =     0.00000000    0.00000000    0.00000000
     atom    5 type  1   force =     0.00000000    0.00000000    0.00000000
     atom    6 type  1   force =     0.00000000    0.00000000    0.00000000
     atom    7 type  1   force =     0.00000000    0.00000000    0.00000000
     atom    8 type  1   force =     0.00000000    0.00000000    0.00000000
     atom    9 type  1   force =     0.00000000    0.00000000    0.00000000
     atom   10 type  1   force =     0.00000000    0.00000000    0.00000000
     atom   11 type  1   force =     0.00000000    0.00000000    0.00000000
     atom   12 type  1   force =     0.00000000    0.00000000    0.00000000
     atom   13 type  1   force =     0.00000000    0.00000000    0.00000000
     atom   14 type  1   force =     0.00000000    0.00000000    0.00000000
     atom   15 type  1   force =     0.00000000    0.00000000    0.00000000
     atom   16 type  1   force =     0.00000000    0.00000000    0.00000000
     atom   17 type  1   force =     0.00000000    0.00000000    0.00000000
     atom   18 type  1   force =     0.00000000    0.00000000    0.00000000
     atom   19 type  1   force =     0.00000000    0.00000000    0.00000000
     atom   20 type  1   force =     0.00000000    0.00000000    0.00000000
     atom   21 type  1   force =     0.00000000    0.00000000    0.00000000
     atom   22 type  1   force =     0.00000000    0.00000000    0.00000000
     atom   23 type  1   force =     0.00000000    0.00000000    0.00000000
     atom   24 type  1   force =     0.00000000    0.00000000    0.00000000
     atom   25 type  1   force =     0.00000000    0.00000000    0.00000000
     atom   26 type  1   force =     0.00000000    0.00000000    0.00000000
     atom   27 type  1   force =     0.00000000    0.00000000    0.00000000
     atom   28 type  1   force =     0.00000000    0.00000000    0.00000000
     atom   29 type  1   force =     0.00000000    0.00000000    0.00000000
     atom   30 type  1   force =     0.00000000    0.00000000    0.00000000
     atom   31 type  1   force =     0.00000000    0.00000000    0.00000000
     atom   32 type  1   force =     0.00000000    0.00000000    0.00000000
     atom   33 type  1   force =     0.00000000    0.00000000    0.00000000
     atom   34 type  1   force =     0.00000000    0.00000000    0.00000000
     atom   35 type  1   force =     0.00000000    0.00000000    0.00000000
     atom   36 type  1   force =     0.00000000    0.00000000    0.00000000
     atom   37 type  1   force =     0.00000000    0.00000000    0.00000000
     atom   38 type  1   force =     0.00000000    0.00000000    0.00000000
     atom   39 type  1   force =     0.00000000    0.00000000    0.00000000
     atom   40 type  1   force =     0.00000000    0.00000000    0.00000000
     atom   41 type  1   force =     0.00000000    0.00000000    0.00000000
     atom   42 type  1   force =     0.00000000    0.00000000    0.00000000
     atom   43 type  1   force =     0.00000000    0.00000000    0.00000000
     atom   44 type  1   force =     0.00000000    0.00000000    0.00000000
     atom   45 type  1   force =     0.00000000    0.00000000    0.00000000
     atom   46 type  1   force =     0.00000000    0.00000000    0.00000000
     atom   47 type  1   force =     0.00000000    0.00000000    0.00000000
     atom   48 type  1   force =     0.00000000    0.00000000    0.00000000
     The SCF correction term to forces
     atom    1 type  1   force =     0.00000000    0.00000002    0.00000009
     atom    2 type  1   force =    -0.00000007    0.00000000    0.00000025
     atom    3 type  1   force =     0.00000000    0.00000002    0.00000009
     atom    4 type  1   force =    -0.00000000    0.00000004    0.00000006
     atom    5 type  1   force =    -0.00000005   -0.00000000    0.00000025
     atom    6 type  1   force =     0.00000000    0.00000001   -0.00000057
     atom    7 type  1   force =    -0.00000000   -0.00000001    0.00000052
     atom    8 type  1   force =     0.00000006   -0.00000000   -0.00000024
     atom    9 type  1   force =     0.00000000   -0.00000004   -0.00000005
     atom   10 type  1   force =     0.00000000   -0.00000003   -0.00000008
     atom   11 type  1   force =     0.00000007   -0.00000001   -0.00000028
     atom   12 type  1   force =     0.00000000   -0.00000002   -0.00000010
     atom   13 type  1   force =    -0.00000003    0.00000000    0.00000015
     atom   14 type  1   force =     0.00000000    0.00000003    0.00000027
     atom   15 type  1   force =    -0.00000002   -0.00000000    0.00000005
     atom   16 type  1   force =    -0.00000004   -0.00000000    0.00000004
     atom   17 type  1   force =    -0.00000000    0.00000002    0.00000023
     atom   18 type  1   force =    -0.00000004    0.00000001   -0.00000045
     atom   19 type  1   force =     0.00000003   -0.00000000    0.00000043
     atom   20 type  1   force =    -0.00000000   -0.00000002   -0.00000022
     atom   21 type  1   force =     0.00000005   -0.00000000   -0.00000004
     atom   22 type  1   force =     0.00000001    0.00000000   -0.00000005
     atom   23 type  1   force =    -0.00000000   -0.00000003   -0.00000027
     atom   24 type  1   force =     0.00000003    0.00000001   -0.00000014
     atom   25 type  1   force =     0.00000000   -0.00000001    0.00000022
     atom   26 type  1   force =     0.00000007    0.00000000    0.00000025
     atom   27 type  1   force =    -0.00000000   -0.00000001    0.00000002
     atom   28 type  1   force =    -0.00000000   -0.00000003    0.00000003
     atom   29 type  1   force =     0.00000005   -0.00000000    0.00000025
     atom   30 type  1   force =     0.00000000   -0.00000003   -0.00000040
     atom   31 type  1   force =    -0.00000000    0.00000002    0.00000043
     atom   32 type  1   force =    -0.00000006   -0.00000000   -0.00000023
     atom   33 type  1   force =    -0.00000000    0.00000003   -0.00000003
     atom   34 type  1   force =    -0.00000000   -0.00000001   -0.00000003
     atom   35 type  1   force =    -0.00000007   -0.00000001   -0.00000028
     atom   36 type  1   force =    -0.00000000    0.00000001   -0.00000022
     atom   37 type  1   force =     0.00000003   -0.00000000    0.00000015
     atom   38 type  1   force =     0.00000000   -0.00000005    0.00000029
     atom   39 type  1   force =     0.00000002   -0.00000000    0.00000005
     atom   40 type  1   force =     0.00000004   -0.00000000    0.00000004
     atom   41 type  1   force =    -0.00000000   -0.00000003    0.00000024
     atom   42 type  1   force =     0.00000004    0.00000001   -0.00000045
     atom   43 type  1   force =    -0.00000004   -0.00000000    0.00000043
     atom   44 type  1   force =    -0.00000000    0.00000003   -0.00000024
     atom   45 type  1   force =    -0.00000005   -0.00000000   -0.00000004
     atom   46 type  1   force =    -0.00000001    0.00000001   -0.00000005
     atom   47 type  1   force =    -0.00000000    0.00000004   -0.00000027
     atom   48 type  1   force =    -0.00000003    0.00000001   -0.00000014

     Total force =     0.001116     Total SCF correction =     0.000002
     Energy error            =      5.0E-06 Ry
     Gradient error          =      2.7E-04 Ry/Bohr

     bfgs converged in  34 scf cycles and  33 bfgs steps
     (criteria: energy <  1.0E-05 Ry, force <  3.9E-04 Ry/Bohr)

     End of BFGS Geometry Optimization

     Final energy             =    -721.9195006496 Ry

     File ./Li/Lithium.bfgs deleted, as requested
Begin final coordinates

ATOMIC_POSITIONS (angstrom)
Li              -0.0000000100       -0.0004588644       25.0172453274
Li               2.4296211195        1.4026335441       21.2567111477
Li               4.8580444100        2.8049790144       23.2075752429
Li               0.0000000100        0.0001438350       22.0044401858
Li               2.4291395620        1.4024929318       24.1359743445
Li               4.8580445000        2.8056021663       20.2757348018
Li              -0.0000000000       -0.0008313976       30.9312542721
Li               2.4289167834        1.4022884075       27.0710592189
Li               4.8580444100        2.8046460662       29.2026877718
Li              -0.0000000100       -0.0001612999       27.9994750760
Li               2.4284455174        1.4021594157       29.9502733873
Li               4.8580444200        2.8052487693       26.1898347259
Li               2.4295988498        4.2071421790       25.0183277617
Li               4.8580443900        5.6094004537       21.2581507554
Li               7.2865966829        7.0121693470       23.2063283155
Li               2.4290197570        4.2073641275       22.0050901422
Li               4.8580444100        5.6092831842       24.1364903590
Li               7.2856409871        7.0123809373       20.2740609914
Li               2.4304236326        4.2068361871       30.9329160362
Li               4.8580444000        5.6098838567       27.0705151720
Li               7.2870789405        7.0118243256       29.2018682744
Li               2.4294857423        4.2069692017       28.0007193207
Li               4.8580444000        5.6097896180       29.9487937014
Li               7.2864803488        7.0120331099       26.1886847747
Li               4.8580444000        0.0005889201       25.0188134830
Li               7.2864677005        1.4026335241       21.2567112977
Li               9.7160888200        2.8047148748       23.2057128490
Li               4.8580443900       -0.0000047050       22.0053133247
Li               7.2869492580        1.4024929318       24.1359744245
Li               9.7160887400        2.8038956456       20.2731328484
Li               4.8580444000        0.0008170607       30.9338200893
Li               7.2871720366        1.4022884075       27.0710592689
Li               9.7160888300        2.8047586794       29.2018160368
Li               4.8580444000        0.0001345764       28.0013328707
Li               7.2876433026        1.4021594057       29.9502734273
Li               9.7160888200        2.8041864362       26.1882860347
Li               7.2864899603        4.2071421890       25.0183277617
Li               9.7160888400        5.6099543792       21.2542835555
Li              12.1455809671        7.0121693570       23.2063283255
Li               7.2870690530        4.2073641475       22.0050901522
Li               9.7160888300        5.6098892864       24.1351050456
Li              12.1465366629        7.0123810473       20.2740610014
Li               7.2856651774        4.2068361971       30.9329160262
Li               9.7160888300        5.6093256952       27.0718473294
Li              12.1450987096        7.0118243256       29.2018682744
Li               7.2866030777        4.2069692017       28.0007193107
Li               9.7160888300        5.6092196788       29.9525719592
Li              12.1456973112        7.0120331199       26.1886847747
End final coordinates



     Writing all to output data dir ./Li/Lithium.save/ :
     XML data file
     init_run     :     28.25s CPU     36.28s WALL (       1 calls)
     electrons    :  24988.00s CPU  29214.63s WALL (      34 calls)
     update_pot   :      7.66s CPU      8.93s WALL (      33 calls)
     forces       :   2963.36s CPU   3105.08s WALL (      34 calls)

     Called by init_run:
     wfcinit      :      2.81s CPU      3.25s WALL (       1 calls)
     wfcinit:wfcr :      2.54s CPU      2.97s WALL (       8 calls)
     potinit      :      1.07s CPU      1.13s WALL (       1 calls)
     hinit0       :      7.97s CPU      8.91s WALL (       1 calls)

     Called by electrons:
     c_bands      :  13005.77s CPU  15508.90s WALL (     697 calls)
     sum_band     :    957.90s CPU   1183.24s WALL (     697 calls)
     v_of_rho     :    122.52s CPU    143.54s WALL (     698 calls)
     v_h          :      9.41s CPU     11.52s WALL (     698 calls)
     v_xc         :    113.09s CPU    131.99s WALL (     698 calls)
     newd         :     51.10s CPU     63.21s WALL (     698 calls)
     PAW_pot      :      7.16s CPU      9.33s WALL (     731 calls)
     mix_rho      :    271.79s CPU    335.60s WALL (     697 calls)

     Called by c_bands:
     init_us_2    :    218.61s CPU    220.26s WALL (   11696 calls)
     cegterg      :  12146.35s CPU  13496.95s WALL (    6136 calls)

     Called by sum_band:
     sum_band:wei :      1.19s CPU      1.38s WALL (     697 calls)
     sum_band:loo :    857.71s CPU   1007.75s WALL (     697 calls)
     sum_band:buf :     21.54s CPU     21.77s WALL (    5576 calls)
     sum_band:ini :    106.31s CPU    106.70s WALL (    5576 calls)
     sum_band:cal :    176.01s CPU    187.31s WALL (    5840 calls)
     sum_band:bec :      1.47s CPU      1.58s WALL (    5840 calls)
     addusdens    :     44.74s CPU     49.57s WALL (     697 calls)
                                        0.00s GPU  (     697 calls)
     addusd:skk   :     10.34s CPU     12.88s WALL (     697 calls)
                                        0.00s GPU  (     697 calls)

     Called by *egterg:
     cdiaghg      :   3657.00s CPU   3774.90s WALL (   76312 calls)
     cegterg:over :    857.50s CPU    919.78s WALL (   70822 calls)
     cegterg:upda :    742.94s CPU    750.62s WALL (   70822 calls)
     cegterg:last :    224.58s CPU    225.11s WALL (    6981 calls)
     h_psi        :   5657.87s CPU   6782.02s WALL (   76966 calls)
     s_psi        :    747.23s CPU    750.65s WALL (   76966 calls)
     g_psi        :      9.18s CPU      9.65s WALL (   70822 calls)

     Called by h_psi:
     h_psi:calbec :    909.39s CPU    979.43s WALL (   76966 calls)
     vloc_psi     :   3959.17s CPU   5001.46s WALL (   76966 calls)
                                        0.00s GPU  (   76966 calls)
     add_vuspsi   :    742.16s CPU    746.38s WALL (   76966 calls)

     General routines
     calbec       :   1112.64s CPU   1195.92s WALL (   83894 calls)
     fft          :     74.95s CPU    104.10s WALL (    9140 calls)
     ffts         :    128.31s CPU    169.94s WALL (   78885 calls)
     fftw         :   4186.60s CPU   5291.08s WALL ( 4997960 calls)
     interpolate  :      9.17s CPU     11.19s WALL (     698 calls)

     Parallel routines

     PAW routines
     PAW_pot      :      7.16s CPU      9.33s WALL (     731 calls)
     PAW_symme    :      0.32s CPU      0.43s WALL (    1428 calls)

     Environ routines

     PWSCF        :      7h59m CPU      9h14m WALL


   This run was terminated on:  21:24:29   3Jan2025            

=------------------------------------------------------------------------------=
   JOB DONE.
=------------------------------------------------------------------------------=
