
     Program PWSCF v.7.4 starts on  2Jan2025 at 14:42:17 

     This program is part of the open-source Quantum ESPRESSO suite
     for quantum simulation of materials; please cite
         "P. Giannozzi et al., J. Phys.:Condens. Matter 21 395502 (2009);
         "P. Giannozzi et al., J. Phys.:Condens. Matter 29 465901 (2017);
         "P. Giannozzi et al., J. Chem. Phys. 152 154105 (2020);
          URL http://www.quantum-espresso.org", 
     in publications or presentations arising from this work. More details at
     http://www.quantum-espresso.org/quote

     Parallel version (MPI & OpenMP), running on     512 processor cores
     Number of MPI processes:               512
     Threads/MPI process:                     1

     MPI processes distributed on     4 nodes
     232320 MiB available memory on the printing compute node when the environment starts

     Reading input from espresso.pwi
Warning: card &CELL ignored
Warning: card    PRESS_CONV_THR   = 0.1 ignored
Warning: card    CELL_DOFREE      = 'ALL' ignored
Warning: card / ignored
Warning: card &FCP ignored
Warning: card / ignored
Warning: card &RISM ignored
Warning: card / ignored

     Current dimensions of program PWSCF are:
     Max number of different atomic species (ntypx) = 10
     Max number of k-points (npk) =  40000
     Max angular momentum in pseudopotentials (lmaxx) =  4

     IMPORTANT: XC functional enforced from input :
     Exchange-correlation= PBE
                           (   1   4   3   4   0   0   0)
     Any further DFT definition will be discarded
     Please, verify this is what you really want


     Reading input from environ.in:
     * using ionic solvent mode
     * setting boundary derivatives method to SSCS default
     * setting electrolyte-boundary derivatives method to SSCS default

Environ Warning (1001): card EOF ignored

     
     Found identity + ( -0.5000 -0.0000 -0.0000) symmetry
     This is a supercell, fractional translations are disabled

     K-points division:     npool     =       2
     R & G space division:  proc/nbgrp/npool/nimage =     256
     Subspace diagonalization in iterative solution of the eigenvalue problem:
     a serial algorithm will be used


     Parallelization info
     --------------------
     sticks:   dense  smooth     PW     G-vecs:    dense   smooth      PW
     Min          69      27      7                40121    10115    1359
     Max          70      28      8                40178    10188    1404
     Sum       17801    7131   1879             10277287  2600241  352547

     Using Slab Decomposition



     bravais-lattice index     =           12
     lattice parameter (alat)  =      18.3607  a.u.
     unit-cell volume          =   26895.2624 (a.u.)^3
     number of atoms/cell      =           44
     number of atomic types    =            1
     number of electrons       =       132.00
     number of Kohn-Sham states=           99
     kinetic-energy cutoff     =      80.0000  Ry
     charge density cutoff     =     800.0000  Ry
     scf convergence threshold =      1.0E-14
     mixing beta               =       0.2000
     number of iterations used =            8  local-TF  mixing
     Exchange-correlation= PBE
                           (   1   4   3   4   0   0   0)

     ================================================================================

                                  Environ Setup Summary

     ================================================================================

     Please cite

          O. Andreussi, I. Dabo and N. Marzari, J. Chem. Phys. 136, 064102 (2012)
          F. Nattino, M. Truscott, N. Marzari, and O. Andreussi, J. Chem. Phys. 150, 041722 (2019)

     in publications or presentations arising from this work.

     ================================================================================

     Parameters
     ==========

     compensation onset threshold      =               0.1000E+00
     static permittivity               =                    89.90
     surface tension in input (dyn/cm) =                    37.30
     surface tension in internal units =               0.4792E-04

     Solvent Boundary
     ================

     solvent mode                      =                    ionic
     derivatives method                =                   lowmem
     electrolyte derivatives method    =                   lowmem
     numerical core for derivatives    =                      fft
     switching function adopted        =                     SCCS
     density limit for vacuum region   =               0.5000E-02
     density limit for bulk solvent    =               0.1000E-03
     soft-sphere radius mode           =                    bondi
     soft-sphere softness              =                     0.50
     alpha                             =                     1.32

     Electrostatic Setup
     ===================

     electrostatic problem to solve    =                    modpb
     numerical solver adopted          =                   newton
     type of auxiliary density adopted =                     none
     numerical core for poisson        =                      fft
     adopting a nested solver scheme
     inner solver                      =                       cg
     inner core                        =                      fft
     type of pbc corrections           =                parabolic
     numerical core for corrections    =                      1da

     ================================================================================


     >>>>> Grand-Canonical SCF is activated <<<<<
     Initial Total Charge  =     0.000000 e
     Target Fermi Energy   =    -3.404000 eV
     Thr. of Fermi Energy  =     0.001000 eV
     Wave-shift of Kerker  =     0.400000 bohr^-1
     Wave-shift of Hartree =     1.500000 bohr^-1
     Mixing Rate of Fermi  =     0.050000

     celldm(1)=  18.360747  celldm(2)=   0.866025  celldm(3)=   5.240449
     celldm(4)=  -0.288675  celldm(5)=   0.000000  celldm(6)=   0.000000

     crystal axes: (cart. coord. in units of alat)
               a(1) = (   1.000000   0.000000   0.000000 )  
               a(2) = (  -0.250000   0.829156   0.000000 )  
               a(3) = (   0.000000   0.000000   5.240449 )  

     reciprocal axes: (cart. coord. in units 2 pi/alat)
               b(1) = (  1.000000  0.301511 -0.000000 )  
               b(2) = (  0.000000  1.206046  0.000000 )  
               b(3) = (  0.000000 -0.000000  0.190823 )  


     PseudoPot. # 1 for Li read from file:
     /work/e89/e89/ba3g18/Repos/Pseudopotentials/Pslibrary/Li.pbe-sl-kjpaw_psl.1.0.0.UPF
     MD5 check sum: 3f4d2cafebb47c6c3aa8ed472e6f074d
     Pseudo is Projector augmented-wave, Zval =  3.0
     Generated using 'atomic' code by A. Dal Corso  v.7.4
     Shape of augmentation charge: PSQ
     Using radial grid of 1017 points,  4 beta functions with: 
                l(1) =   0
                l(2) =   0
                l(3) =   1
                l(4) =   1
     Q(r) pseudized with 0 coefficients 


     atomic species   valence    mass     pseudopotential
     Li                3.00     6.94000     Li( 1.00)

     No symmetry found


                                    s                        frac. trans.

      isym =  1     identity                                     

 cryst.   s( 1) = (     1          0          0      )
                  (     0          1          0      )
                  (     0          0          1      )

 cart.    s( 1) = (  1.0000000  0.0000000  0.0000000 )
                  (  0.0000000  1.0000000  0.0000000 )
                  (  0.0000000  0.0000000  1.0000000 )


     point group C_1 (1)    
     there are  1 classes
     the character table:

       E    
A      1.00

     the symmetry operations in each class and the name of the first element:

     E        1
          identity                                               

   Cartesian axes

     site n.     atom                  positions (alat units)
         1        Li     tau(   1) = (  -0.2502982   0.7600417   2.0397434  )
         2        Li     tau(   2) = (   0.2502265   0.2497515   3.1573343  )
         3        Li     tau(   3) = (   0.0002788   0.4555333   3.0223456  )
         4        Li     tau(   4) = (   0.2502262   0.6632904   2.9057309  )
         5        Li     tau(   5) = (   0.2500986   0.0777134   2.8049815  )
         6        Li     tau(   6) = (   0.0000689   0.3029839   2.7041238  )
         7        Li     tau(   7) = (   0.2499996   0.5234715   2.5985535  )
         8        Li     tau(   8) = (  -0.0001010   0.7527474   2.4890723  )
         9        Li     tau(   9) = (  -0.0001924   0.1627045   2.3625143  )
        10        Li     tau(  10) = (   0.2497618   0.3904062   2.2697182  )
        11        Li     tau(  11) = (  -0.0002941   0.5907516   2.1810571  )
        12        Li     tau(  12) = (   0.0002383   0.1372386   2.9707320  )
        13        Li     tau(  13) = (   0.2501921   0.3649416   2.8779361  )
        14        Li     tau(  14) = (   0.0001010   0.6040538   2.7513772  )
        15        Li     tau(  15) = (   0.2500006   0.8333282   2.6418970  )
        16        Li     tau(  16) = (   0.2499309   0.2246604   2.5363261  )
        17        Li     tau(  17) = (  -0.0000984   0.4499321   2.4354687  )
        18        Li     tau(  18) = (   0.2497739   0.6935113   2.3347195  )
        19        Li     tau(  19) = (   0.2497210   0.0721119   2.2181041  )
        20        Li     tau(  20) = (  -0.0002267   0.2778934   2.0831158  )
        21        Li     tau(  21) = (   0.2502982   0.5967591   3.2007074  )
        22        Li     tau(  22) = (   0.0002942   0.7660489   3.0593929  )
        23        Li     tau(  23) = (   0.2497018   0.7600417   2.0397434  )
        24        Li     tau(  24) = (   0.7502266   0.2497515   3.1573344  )
        25        Li     tau(  25) = (   0.5002788   0.4555332   3.0223456  )
        26        Li     tau(  26) = (   0.7502261   0.6632904   2.9057309  )
        27        Li     tau(  27) = (   0.7500986   0.0777133   2.8049815  )
        28        Li     tau(  28) = (   0.5000689   0.3029839   2.7041238  )
        29        Li     tau(  29) = (   0.7499996   0.5234715   2.5985535  )
        30        Li     tau(  30) = (   0.4998990   0.7527474   2.4890723  )
        31        Li     tau(  31) = (   0.4998076   0.1627045   2.3625144  )
        32        Li     tau(  32) = (   0.7497618   0.3904062   2.2697182  )
        33        Li     tau(  33) = (   0.4997059   0.5907515   2.1810571  )
        34        Li     tau(  34) = (   0.5002383   0.1372386   2.9707321  )
        35        Li     tau(  35) = (   0.7501921   0.3649416   2.8779362  )
        36        Li     tau(  36) = (   0.5001010   0.6040537   2.7513772  )
        37        Li     tau(  37) = (   0.7500006   0.8333282   2.6418970  )
        38        Li     tau(  38) = (   0.7499309   0.2246603   2.5363261  )
        39        Li     tau(  39) = (   0.4999016   0.4499321   2.4354687  )
        40        Li     tau(  40) = (   0.7497739   0.6935113   2.3347195  )
        41        Li     tau(  41) = (   0.7497210   0.0721119   2.2181041  )
        42        Li     tau(  42) = (   0.4997733   0.2778933   2.0831158  )
        43        Li     tau(  43) = (   0.7502982   0.5967591   3.2007074  )
        44        Li     tau(  44) = (   0.5002942   0.7660489   3.0593929  )

   Crystallographic axes

     site n.     atom                  positions (cryst. coord.)
         1        Li     tau(   1) = ( -0.0211369  0.9166451  0.3892307  )
         2        Li     tau(   2) = (  0.3255294  0.3012117  0.6024931  )
         3        Li     tau(   3) = (  0.1376272  0.5493939  0.5767341  )
         4        Li     tau(   4) = (  0.4502158  0.7999585  0.5544813  )
         5        Li     tau(   5) = (  0.2735301  0.0937259  0.5352559  )
         6        Li     tau(   6) = (  0.0914220  0.3654124  0.5160099  )
         7        Li     tau(   7) = (  0.4078322  0.6313306  0.4958647  )
         8        Li     tau(   8) = (  0.2268609  0.9078477  0.4749731  )
         9        Li     tau(   9) = (  0.0488649  0.1962291  0.4508229  )
        10        Li     tau(  10) = (  0.3674737  0.4708477  0.4331152  )
        11        Li     tau(  11) = (  0.1778242  0.7124734  0.4161966  )
        12        Li     tau(  12) = (  0.0416174  0.1655161  0.5668850  )
        13        Li     tau(  13) = (  0.3602262  0.4401362  0.5491774  )
        14        Li     tau(  14) = (  0.1822301  0.7285164  0.5250270  )
        15        Li     tau(  15) = (  0.5012586  1.0050318  0.5041356  )
        16        Li     tau(  16) = (  0.3176686  0.2709506  0.4839902  )
        17        Li     tau(  17) = (  0.1355613  0.5426387  0.4647443  )
        18        Li     tau(  18) = (  0.4588755  0.8364063  0.4455190  )
        19        Li     tau(  19) = (  0.2714635  0.0869703  0.4232660  )
        20        Li     tau(  20) = (  0.0835613  0.3351521  0.3975071  )
        21        Li     tau(  21) = (  0.4302279  0.7197187  0.6107697  )
        22        Li     tau(  22) = (  0.2312667  0.9238900  0.5838036  )
        23        Li     tau(  23) = (  0.4788631  0.9166450  0.3892307  )
        24        Li     tau(  24) = (  0.8255295  0.3012117  0.6024931  )
        25        Li     tau(  25) = (  0.6376273  0.5493939  0.5767341  )
        26        Li     tau(  26) = (  0.9502158  0.7999585  0.5544813  )
        27        Li     tau(  27) = (  0.7735300  0.0937258  0.5352559  )
        28        Li     tau(  28) = (  0.5914220  0.3654124  0.5160099  )
        29        Li     tau(  29) = (  0.9078322  0.6313305  0.4958647  )
        30        Li     tau(  30) = (  0.7268609  0.9078477  0.4749731  )
        31        Li     tau(  31) = (  0.5488649  0.1962291  0.4508229  )
        32        Li     tau(  32) = (  0.8674737  0.4708477  0.4331152  )
        33        Li     tau(  33) = (  0.6778242  0.7124733  0.4161966  )
        34        Li     tau(  34) = (  0.5416174  0.1655161  0.5668850  )
        35        Li     tau(  35) = (  0.8602262  0.4401362  0.5491774  )
        36        Li     tau(  36) = (  0.6822301  0.7285164  0.5250270  )
        37        Li     tau(  37) = (  1.0012586  1.0050319  0.5041356  )
        38        Li     tau(  38) = (  0.8176686  0.2709506  0.4839902  )
        39        Li     tau(  39) = (  0.6355613  0.5426387  0.4647443  )
        40        Li     tau(  40) = (  0.9588755  0.8364063  0.4455190  )
        41        Li     tau(  41) = (  0.7714635  0.0869703  0.4232660  )
        42        Li     tau(  42) = (  0.5835613  0.3351521  0.3975071  )
        43        Li     tau(  43) = (  0.9302279  0.7197187  0.6107697  )
        44        Li     tau(  44) = (  0.7312667  0.9238899  0.5838036  )

     number of k points=    29  Marzari-Vanderbilt smearing, width (Ry)=  0.0100
                       cart. coord. in units 2pi/alat
        k(    1) = (   0.0000000   0.0000000   0.0000000), wk =   0.0357143
        k(    2) = (   0.0000000   0.1507557   0.0000000), wk =   0.0714286
        k(    3) = (   0.0000000   0.3015114   0.0000000), wk =   0.0714286
        k(    4) = (   0.0000000   0.4522671   0.0000000), wk =   0.0714286
        k(    5) = (   0.0000000  -0.6030228   0.0000000), wk =   0.0357143
        k(    6) = (   0.1428571   0.0430731   0.0000000), wk =   0.0714286
        k(    7) = (   0.1428571   0.1938288   0.0000000), wk =   0.0714286
        k(    8) = (   0.1428571   0.3445845   0.0000000), wk =   0.0714286
        k(    9) = (   0.1428571   0.4953402   0.0000000), wk =   0.0714286
        k(   10) = (   0.1428571  -0.5599498   0.0000000), wk =   0.0714286
        k(   11) = (   0.1428571  -0.4091941   0.0000000), wk =   0.0714286
        k(   12) = (   0.1428571  -0.2584384   0.0000000), wk =   0.0714286
        k(   13) = (   0.1428571  -0.1076826   0.0000000), wk =   0.0714286
        k(   14) = (   0.2857143   0.0861461   0.0000000), wk =   0.0714286
        k(   15) = (   0.2857143   0.2369018   0.0000000), wk =   0.0714286
        k(   16) = (   0.2857143   0.3876575   0.0000000), wk =   0.0714286
        k(   17) = (   0.2857143   0.5384132   0.0000000), wk =   0.0714286
        k(   18) = (   0.2857143  -0.5168767   0.0000000), wk =   0.0714286
        k(   19) = (   0.2857143  -0.3661210   0.0000000), wk =   0.0714286
        k(   20) = (   0.2857143  -0.2153653   0.0000000), wk =   0.0714286
        k(   21) = (   0.2857143  -0.0646096   0.0000000), wk =   0.0714286
        k(   22) = (   0.4285714   0.1292192   0.0000000), wk =   0.0714286
        k(   23) = (   0.4285714   0.2799749   0.0000000), wk =   0.0714286
        k(   24) = (   0.4285714   0.4307306   0.0000000), wk =   0.0714286
        k(   25) = (   0.4285714   0.5814863   0.0000000), wk =   0.0714286
        k(   26) = (   0.4285714  -0.4738037   0.0000000), wk =   0.0714286
        k(   27) = (   0.4285714  -0.3230479   0.0000000), wk =   0.0714286
        k(   28) = (   0.4285714  -0.1722922   0.0000000), wk =   0.0714286
        k(   29) = (   0.4285714  -0.0215365   0.0000000), wk =   0.0714286

                       cryst. coord.
        k(    1) = (   0.0000000   0.0000000   0.0000000), wk =   0.0357143
        k(    2) = (   0.0000000   0.1250000   0.0000000), wk =   0.0714286
        k(    3) = (   0.0000000   0.2500000   0.0000000), wk =   0.0714286
        k(    4) = (   0.0000000   0.3750000   0.0000000), wk =   0.0714286
        k(    5) = (   0.0000000  -0.5000000   0.0000000), wk =   0.0357143
        k(    6) = (   0.1428571   0.0000000   0.0000000), wk =   0.0714286
        k(    7) = (   0.1428571   0.1250000   0.0000000), wk =   0.0714286
        k(    8) = (   0.1428571   0.2500000   0.0000000), wk =   0.0714286
        k(    9) = (   0.1428571   0.3750000   0.0000000), wk =   0.0714286
        k(   10) = (   0.1428571  -0.5000000   0.0000000), wk =   0.0714286
        k(   11) = (   0.1428571  -0.3750000   0.0000000), wk =   0.0714286
        k(   12) = (   0.1428571  -0.2500000   0.0000000), wk =   0.0714286
        k(   13) = (   0.1428571  -0.1250000   0.0000000), wk =   0.0714286
        k(   14) = (   0.2857143   0.0000000   0.0000000), wk =   0.0714286
        k(   15) = (   0.2857143   0.1250000   0.0000000), wk =   0.0714286
        k(   16) = (   0.2857143   0.2500000   0.0000000), wk =   0.0714286
        k(   17) = (   0.2857143   0.3750000   0.0000000), wk =   0.0714286
        k(   18) = (   0.2857143  -0.5000000   0.0000000), wk =   0.0714286
        k(   19) = (   0.2857143  -0.3750000   0.0000000), wk =   0.0714286
        k(   20) = (   0.2857143  -0.2500000   0.0000000), wk =   0.0714286
        k(   21) = (   0.2857143  -0.1250000   0.0000000), wk =   0.0714286
        k(   22) = (   0.4285714   0.0000000   0.0000000), wk =   0.0714286
        k(   23) = (   0.4285714   0.1250000   0.0000000), wk =   0.0714286
        k(   24) = (   0.4285714   0.2500000   0.0000000), wk =   0.0714286
        k(   25) = (   0.4285714   0.3750000   0.0000000), wk =   0.0714286
        k(   26) = (   0.4285714  -0.5000000   0.0000000), wk =   0.0714286
        k(   27) = (   0.4285714  -0.3750000   0.0000000), wk =   0.0714286
        k(   28) = (   0.4285714  -0.2500000   0.0000000), wk =   0.0714286
        k(   29) = (   0.4285714  -0.1250000   0.0000000), wk =   0.0714286

     Dense  grid: 10277287 G-vectors     FFT dimensions: ( 180, 144, 900)

     Smooth grid:  2600241 G-vectors     FFT dimensions: ( 108,  96, 576)

     Dynamical RAM for                 wfc:       1.92 MB

     Dynamical RAM for     wfc (w. buffer):      30.67 MB

     Dynamical RAM for           str. fact:       0.61 MB

     Dynamical RAM for           local pot:       0.00 MB

     Dynamical RAM for          nlocal pot:       6.82 MB

     Dynamical RAM for                qrad:       0.65 MB

     Dynamical RAM for          rho,v,vnew:       4.21 MB

     Dynamical RAM for               rhoin:       1.40 MB

     Dynamical RAM for            rho*nmix:       9.80 MB

     Dynamical RAM for           G-vectors:       2.37 MB

     Dynamical RAM for          h,s,v(r/c):       7.18 MB

     Dynamical RAM for          <psi|beta>:       0.53 MB

     Dynamical RAM for                 psi:       7.67 MB

     Dynamical RAM for                hpsi:       7.67 MB

     Dynamical RAM for                spsi:       7.67 MB

     Dynamical RAM for      wfcinit/wfcrot:       4.06 MB

     Dynamical RAM for           addusdens:      26.94 MB

     Dynamical RAM for          addusforce:      53.31 MB

     Estimated static dynamical RAM per process >      51.91 MB

     Estimated max dynamical RAM per process >     156.82 MB

     Estimated total dynamical RAM >      55.06 GB

     Initial potential from superposition of free atoms

     starting charge     131.7972, renormalised to     132.0000

     negative rho (up, down):  4.360E-03 0.000E+00
     Starting wfcs are random
     Checking if some PAW data can be deallocated... 

     total cpu time spent up to now is       34.5 secs

     Self-consistent Calculation

     iteration #  1     ecut=    80.00 Ry     beta= 0.20
     Davidson diagonalization with overlap

---- Real-time Memory Report at c_bands before calling an iterative solver
           714 MiB given to the printing process from OS
             0 MiB allocation reported by mallinfo(arena+hblkhd)
        215824 MiB available memory on the node where the printing process lives
------------------
     c_bands:  1 eigenvalues not converged
     c_bands:  1 eigenvalues not converged
     c_bands:  1 eigenvalues not converged
     ethr =  1.00E-12,  avg # of iterations =115.1

     negative rho (up, down):  3.248E-03 0.000E+00

     total cpu time spent up to now is      372.1 secs

     total energy              =    -661.50083237 Ry
     estimated scf accuracy    <       0.16592731 Ry

     total charge of GC-SCF    =       0.06117052 e
     the Fermi energy          =      -4.47896344 eV
                        (error :       1.07496344 eV)
     electrostatic embedding   =       0.00000000 Ry
     cavitation energy         =       0.03589548 Ry
     electrolyte free energy   =       0.01157605 Ry
     correction to one-el term =      -0.00000000 Ry

     iteration #  2     ecut=    80.00 Ry     beta= 0.20
     Davidson diagonalization with overlap

---- Real-time Memory Report at c_bands before calling an iterative solver
           714 MiB given to the printing process from OS
             0 MiB allocation reported by mallinfo(arena+hblkhd)
        211997 MiB available memory on the node where the printing process lives
------------------
     ethr =  1.00E-05,  avg # of iterations = 12.0

     negative rho (up, down):  2.453E-03 0.000E+00

     add environment contribution to local potential

     total cpu time spent up to now is      417.1 secs

     total energy              =    -661.56314929 Ry
     estimated scf accuracy    <       0.05209202 Ry

     total charge of GC-SCF    =       0.12503011 e
     the Fermi energy          =      -3.64085707 eV
                        (error :       0.23685707 eV)
     electrostatic embedding   =       0.00047159 Ry
     cavitation energy         =       0.03589548 Ry
     electrolyte free energy   =       0.01157605 Ry
     correction to one-el term =      -0.00000000 Ry

     iteration #  3     ecut=    80.00 Ry     beta= 0.20
     Davidson diagonalization with overlap

---- Real-time Memory Report at c_bands before calling an iterative solver
           714 MiB given to the printing process from OS
             0 MiB allocation reported by mallinfo(arena+hblkhd)
        211402 MiB available memory on the node where the printing process lives
------------------
     ethr =  1.00E-05,  avg # of iterations = 33.7

     negative rho (up, down):  1.985E-03 0.000E+00

     add environment contribution to local potential

     total cpu time spent up to now is      497.8 secs

     total energy              =    -661.54023489 Ry
     estimated scf accuracy    <       0.02903178 Ry

     total charge of GC-SCF    =       0.16465310 e
     the Fermi energy          =      -2.99798695 eV
                        (error :       0.40601305 eV)
     electrostatic embedding   =      -0.03533627 Ry
     cavitation energy         =       0.03589548 Ry
     electrolyte free energy   =      -0.00498953 Ry
     correction to one-el term =      -4.06613771 Ry

     iteration #  4     ecut=    80.00 Ry     beta= 0.20
     Davidson diagonalization with overlap

---- Real-time Memory Report at c_bands before calling an iterative solver
           714 MiB given to the printing process from OS
             0 MiB allocation reported by mallinfo(arena+hblkhd)
        211337 MiB available memory on the node where the printing process lives
------------------
     ethr =  1.00E-05,  avg # of iterations = 12.8

     negative rho (up, down):  1.578E-03 0.000E+00

     add environment contribution to local potential

     total cpu time spent up to now is      547.2 secs

     total energy              =    -661.54092918 Ry
     estimated scf accuracy    <       0.02333074 Ry

     total charge of GC-SCF    =       0.28219086 e
     the Fermi energy          =      -3.40458434 eV
                        (error :       0.00058434 eV)
     electrostatic embedding   =      -0.03372044 Ry
     cavitation energy         =       0.03589548 Ry
     electrolyte free energy   =      -0.00676163 Ry
     correction to one-el term =      -3.77374043 Ry

     iteration #  5     ecut=    80.00 Ry     beta= 0.20
     Davidson diagonalization with overlap

---- Real-time Memory Report at c_bands before calling an iterative solver
           714 MiB given to the printing process from OS
             0 MiB allocation reported by mallinfo(arena+hblkhd)
        211343 MiB available memory on the node where the printing process lives
------------------
     ethr =  1.00E-05,  avg # of iterations = 21.1

     negative rho (up, down):  1.297E-03 0.000E+00

     add environment contribution to local potential

     total cpu time spent up to now is      608.7 secs

     total energy              =    -661.52891043 Ry
     estimated scf accuracy    <       0.00715544 Ry

     total charge of GC-SCF    =       0.62697312 e
     the Fermi energy          =      -3.06427917 eV
                        (error :       0.33972083 eV)
     electrostatic embedding   =      -0.03465997 Ry
     cavitation energy         =       0.03589548 Ry
     electrolyte free energy   =      -0.00468430 Ry
     correction to one-el term =      -6.44846428 Ry

     iteration #  6     ecut=    80.00 Ry     beta= 0.20
     Davidson diagonalization with overlap

---- Real-time Memory Report at c_bands before calling an iterative solver
           714 MiB given to the printing process from OS
             0 MiB allocation reported by mallinfo(arena+hblkhd)
        211310 MiB available memory on the node where the printing process lives
------------------
     ethr =  5.45E-06,  avg # of iterations = 25.0

     negative rho (up, down):  1.149E-03 0.000E+00

     add environment contribution to local potential

     total cpu time spent up to now is      677.6 secs

     total energy              =    -661.59084136 Ry
     estimated scf accuracy    <       0.00481467 Ry

     total charge of GC-SCF    =       0.90930899 e
     the Fermi energy          =      -2.66203901 eV
                        (error :       0.74196099 eV)
     electrostatic embedding   =      -0.06613067 Ry
     cavitation energy         =       0.03589548 Ry
     electrolyte free energy   =      -0.00258774 Ry
     correction to one-el term =     -14.15042871 Ry

     iteration #  7     ecut=    80.00 Ry     beta= 0.20
     Davidson diagonalization with overlap

---- Real-time Memory Report at c_bands before calling an iterative solver
           714 MiB given to the printing process from OS
             0 MiB allocation reported by mallinfo(arena+hblkhd)
        211140 MiB available memory on the node where the printing process lives
------------------
     ethr =  3.67E-06,  avg # of iterations = 13.0

     negative rho (up, down):  1.032E-03 0.000E+00

     add environment contribution to local potential

     total cpu time spent up to now is      726.2 secs

     total energy              =    -661.60868798 Ry
     estimated scf accuracy    <       0.00139572 Ry

     total charge of GC-SCF    =       1.03364763 e
     the Fermi energy          =      -2.77783391 eV
                        (error :       0.62616609 eV)
     electrostatic embedding   =      -0.10797433 Ry
     cavitation energy         =       0.03589548 Ry
     electrolyte free energy   =      -0.00341819 Ry
     correction to one-el term =     -21.79670696 Ry

     iteration #  8     ecut=    80.00 Ry     beta= 0.20
     Davidson diagonalization with overlap

---- Real-time Memory Report at c_bands before calling an iterative solver
           714 MiB given to the printing process from OS
             0 MiB allocation reported by mallinfo(arena+hblkhd)
        211106 MiB available memory on the node where the printing process lives
------------------
     ethr =  1.07E-06,  avg # of iterations = 14.3

     negative rho (up, down):  9.401E-04 0.000E+00

     add environment contribution to local potential

     total cpu time spent up to now is      778.6 secs

     total energy              =    -661.60058375 Ry
     estimated scf accuracy    <       0.00220130 Ry

     total charge of GC-SCF    =       1.20882873 e
     the Fermi energy          =      -2.96313610 eV
                        (error :       0.44086390 eV)
     electrostatic embedding   =      -0.12792918 Ry
     cavitation energy         =       0.03589548 Ry
     electrolyte free energy   =      -0.00464554 Ry
     correction to one-el term =     -25.51701964 Ry

     iteration #  9     ecut=    80.00 Ry     beta= 0.20
     Davidson diagonalization with overlap

---- Real-time Memory Report at c_bands before calling an iterative solver
           714 MiB given to the printing process from OS
             0 MiB allocation reported by mallinfo(arena+hblkhd)
        211039 MiB available memory on the node where the printing process lives
------------------
     ethr =  1.07E-06,  avg # of iterations = 29.6

     negative rho (up, down):  1.122E-03 0.000E+00

     add environment contribution to local potential

     total cpu time spent up to now is      857.6 secs

     total energy              =    -661.60321171 Ry
     estimated scf accuracy    <       0.00221594 Ry

     total charge of GC-SCF    =       1.49150423 e
     the Fermi energy          =      -2.78995567 eV
                        (error :       0.61404433 eV)
     electrostatic embedding   =      -0.17389000 Ry
     cavitation energy         =       0.03589548 Ry
     electrolyte free energy   =      -0.00431848 Ry
     correction to one-el term =     -31.64818508 Ry

     iteration # 10     ecut=    80.00 Ry     beta= 0.20
     Davidson diagonalization with overlap

---- Real-time Memory Report at c_bands before calling an iterative solver
           714 MiB given to the printing process from OS
             0 MiB allocation reported by mallinfo(arena+hblkhd)
        211076 MiB available memory on the node where the printing process lives
------------------
     ethr =  1.07E-06,  avg # of iterations = 16.0

     negative rho (up, down):  1.852E-03 0.000E+00

     add environment contribution to local potential

     total cpu time spent up to now is      915.2 secs

     total energy              =    -661.60635264 Ry
     estimated scf accuracy    <       0.00043009 Ry

     total charge of GC-SCF    =       1.94668947 e
     the Fermi energy          =      -2.94241815 eV
                        (error :       0.46158185 eV)
     electrostatic embedding   =      -0.25390639 Ry
     cavitation energy         =       0.03589548 Ry
     electrolyte free energy   =      -0.00595691 Ry
     correction to one-el term =     -40.35740395 Ry

     iteration # 11     ecut=    80.00 Ry     beta= 0.20
     Davidson diagonalization with overlap

---- Real-time Memory Report at c_bands before calling an iterative solver
           714 MiB given to the printing process from OS
             0 MiB allocation reported by mallinfo(arena+hblkhd)
        210995 MiB available memory on the node where the printing process lives
------------------
     ethr =  3.31E-07,  avg # of iterations = 29.3

     negative rho (up, down):  8.633E-04 0.000E+00

     add environment contribution to local potential

     total cpu time spent up to now is      991.2 secs

     total energy              =    -661.65796722 Ry
     estimated scf accuracy    <       0.00053632 Ry

     total charge of GC-SCF    =       1.88293123 e
     the Fermi energy          =      -3.02507907 eV
                        (error :       0.37892093 eV)
     electrostatic embedding   =      -0.43893329 Ry
     cavitation energy         =       0.03589548 Ry
     electrolyte free energy   =      -0.00851552 Ry
     correction to one-el term =     -55.71618708 Ry

     iteration # 12     ecut=    80.00 Ry     beta= 0.20
     Davidson diagonalization with overlap

---- Real-time Memory Report at c_bands before calling an iterative solver
           714 MiB given to the printing process from OS
             0 MiB allocation reported by mallinfo(arena+hblkhd)
        211028 MiB available memory on the node where the printing process lives
------------------
     ethr =  3.31E-07,  avg # of iterations = 19.7

     negative rho (up, down):  6.907E-04 0.000E+00

     add environment contribution to local potential

     total cpu time spent up to now is     1050.4 secs

     total energy              =    -661.62432146 Ry
     estimated scf accuracy    <       0.00070802 Ry

     total charge of GC-SCF    =       2.16202058 e
     the Fermi energy          =      -3.02578476 eV
                        (error :       0.37821524 eV)
     electrostatic embedding   =      -0.41362361 Ry
     cavitation energy         =       0.03589548 Ry
     electrolyte free energy   =      -0.00837948 Ry
     correction to one-el term =     -54.49764137 Ry

     iteration # 13     ecut=    80.00 Ry     beta= 0.20
     Davidson diagonalization with overlap

---- Real-time Memory Report at c_bands before calling an iterative solver
           714 MiB given to the printing process from OS
             0 MiB allocation reported by mallinfo(arena+hblkhd)
        211062 MiB available memory on the node where the printing process lives
------------------
     c_bands:  1 eigenvalues not converged
     ethr =  3.31E-07,  avg # of iterations = 35.3

     negative rho (up, down):  6.626E-04 0.000E+00

     add environment contribution to local potential

     total cpu time spent up to now is     1138.7 secs

     total energy              =    -661.64544483 Ry
     estimated scf accuracy    <       0.00007449 Ry

     total charge of GC-SCF    =       2.22259048 e
     the Fermi energy          =      -3.23075717 eV
                        (error :       0.17324283 eV)
     electrostatic embedding   =      -0.55230075 Ry
     cavitation energy         =       0.03589548 Ry
     electrolyte free energy   =      -0.01134301 Ry
     correction to one-el term =     -64.47267294 Ry

     iteration # 14     ecut=    80.00 Ry     beta= 0.20
     Davidson diagonalization with overlap

---- Real-time Memory Report at c_bands before calling an iterative solver
           714 MiB given to the printing process from OS
             0 MiB allocation reported by mallinfo(arena+hblkhd)
        211029 MiB available memory on the node where the printing process lives
------------------
     ethr =  5.74E-08,  avg # of iterations = 16.3

     negative rho (up, down):  6.024E-04 0.000E+00

     add environment contribution to local potential

     total cpu time spent up to now is     1193.1 secs

     total energy              =    -661.64429818 Ry
     estimated scf accuracy    <       0.00005011 Ry

     total charge of GC-SCF    =       2.44954023 e
     the Fermi energy          =      -3.23639309 eV
                        (error :       0.16760691 eV)
     electrostatic embedding   =      -0.58417334 Ry
     cavitation energy         =       0.03589548 Ry
     electrolyte free energy   =      -0.01171429 Ry
     correction to one-el term =     -66.29966233 Ry

     iteration # 15     ecut=    80.00 Ry     beta= 0.20
     Davidson diagonalization with overlap

---- Real-time Memory Report at c_bands before calling an iterative solver
           714 MiB given to the printing process from OS
             0 MiB allocation reported by mallinfo(arena+hblkhd)
        211044 MiB available memory on the node where the printing process lives
------------------
     ethr =  3.87E-08,  avg # of iterations = 42.0

     negative rho (up, down):  5.999E-04 0.000E+00

     add environment contribution to local potential

     total cpu time spent up to now is     1297.7 secs

     total energy              =    -661.64816677 Ry
     estimated scf accuracy    <       0.00004143 Ry

     total charge of GC-SCF    =       2.55709133 e
     the Fermi energy          =      -3.31991538 eV
                        (error :       0.08408462 eV)
     electrostatic embedding   =      -0.71476075 Ry
     cavitation energy         =       0.03589548 Ry
     electrolyte free energy   =      -0.01381379 Ry
     correction to one-el term =     -73.72501703 Ry

     iteration # 16     ecut=    80.00 Ry     beta= 0.20
     Davidson diagonalization with overlap

---- Real-time Memory Report at c_bands before calling an iterative solver
           714 MiB given to the printing process from OS
             0 MiB allocation reported by mallinfo(arena+hblkhd)
        210996 MiB available memory on the node where the printing process lives
------------------
     ethr =  3.20E-08,  avg # of iterations = 37.3

     negative rho (up, down):  5.968E-04 0.000E+00

     add environment contribution to local potential

     total cpu time spent up to now is     1386.4 secs

     total energy              =    -661.64923306 Ry
     estimated scf accuracy    <       0.00003012 Ry

     total charge of GC-SCF    =       2.54893223 e
     the Fermi energy          =      -3.37275275 eV
                        (error :       0.03124725 eV)
     electrostatic embedding   =      -0.77873045 Ry
     cavitation energy         =       0.03589548 Ry
     electrolyte free energy   =      -0.01481729 Ry
     correction to one-el term =     -76.92022847 Ry

     iteration # 17     ecut=    80.00 Ry     beta= 0.20
     Davidson diagonalization with overlap

---- Real-time Memory Report at c_bands before calling an iterative solver
           714 MiB given to the printing process from OS
             0 MiB allocation reported by mallinfo(arena+hblkhd)
        210979 MiB available memory on the node where the printing process lives
------------------
     ethr =  2.33E-08,  avg # of iterations = 17.3

     negative rho (up, down):  5.919E-04 0.000E+00

     add environment contribution to local potential

     total cpu time spent up to now is     1443.4 secs

     total energy              =    -661.64934666 Ry
     estimated scf accuracy    <       0.00000922 Ry

     total charge of GC-SCF    =       2.63247755 e
     the Fermi energy          =      -3.37700698 eV
                        (error :       0.02699302 eV)
     electrostatic embedding   =      -0.77330871 Ry
     cavitation energy         =       0.03589548 Ry
     electrolyte free energy   =      -0.01480797 Ry
     correction to one-el term =     -76.68487877 Ry

     iteration # 18     ecut=    80.00 Ry     beta= 0.20
     Davidson diagonalization with overlap

---- Real-time Memory Report at c_bands before calling an iterative solver
           714 MiB given to the printing process from OS
             0 MiB allocation reported by mallinfo(arena+hblkhd)
        210990 MiB available memory on the node where the printing process lives
------------------
     ethr =  7.13E-09,  avg # of iterations = 28.7

     negative rho (up, down):  6.088E-04 0.000E+00

     add environment contribution to local potential

     total cpu time spent up to now is     1518.8 secs

     total energy              =    -661.64913086 Ry
     estimated scf accuracy    <       0.00000356 Ry

     total charge of GC-SCF    =       2.64627193 e
     the Fermi energy          =      -3.39153823 eV
                        (error :       0.01246177 eV)
     electrostatic embedding   =      -0.82801998 Ry
     cavitation energy         =       0.03589548 Ry
     electrolyte free energy   =      -0.01554154 Ry
     correction to one-el term =     -79.39536301 Ry

     iteration # 19     ecut=    80.00 Ry     beta= 0.20
     Davidson diagonalization with overlap

---- Real-time Memory Report at c_bands before calling an iterative solver
           714 MiB given to the printing process from OS
             0 MiB allocation reported by mallinfo(arena+hblkhd)
        210974 MiB available memory on the node where the printing process lives
------------------
     ethr =  2.75E-09,  avg # of iterations = 23.1

     negative rho (up, down):  6.112E-04 0.000E+00

     add environment contribution to local potential

     total cpu time spent up to now is     1589.2 secs

     total energy              =    -661.64913161 Ry
     estimated scf accuracy    <       0.00000108 Ry

     total charge of GC-SCF    =       2.64687013 e
     the Fermi energy          =      -3.39758706 eV
                        (error :       0.00641294 eV)
     electrostatic embedding   =      -0.83662590 Ry
     cavitation energy         =       0.03589548 Ry
     electrolyte free energy   =      -0.01566733 Ry
     correction to one-el term =     -79.79296534 Ry

     iteration # 20     ecut=    80.00 Ry     beta= 0.20
     Davidson diagonalization with overlap

---- Real-time Memory Report at c_bands before calling an iterative solver
           714 MiB given to the printing process from OS
             0 MiB allocation reported by mallinfo(arena+hblkhd)
        210948 MiB available memory on the node where the printing process lives
------------------
     ethr =  8.38E-10,  avg # of iterations = 16.6

     negative rho (up, down):  5.948E-04 0.000E+00

     add environment contribution to local potential

     total cpu time spent up to now is     1648.0 secs

     total energy              =    -661.64912025 Ry
     estimated scf accuracy    <       0.00000061 Ry

     total charge of GC-SCF    =       2.65329411 e
     the Fermi energy          =      -3.40149113 eV
                        (error :       0.00250887 eV)
     electrostatic embedding   =      -0.83687253 Ry
     cavitation energy         =       0.03589548 Ry
     electrolyte free energy   =      -0.01569502 Ry
     correction to one-el term =     -79.81319269 Ry

     iteration # 21     ecut=    80.00 Ry     beta= 0.20
     Davidson diagonalization with overlap

---- Real-time Memory Report at c_bands before calling an iterative solver
           714 MiB given to the printing process from OS
             0 MiB allocation reported by mallinfo(arena+hblkhd)
        210945 MiB available memory on the node where the printing process lives
------------------
     ethr =  4.69E-10,  avg # of iterations = 17.1

     negative rho (up, down):  5.855E-04 0.000E+00

     add environment contribution to local potential

     total cpu time spent up to now is     1709.2 secs

     total energy              =    -661.64911783 Ry
     estimated scf accuracy    <       0.00000019 Ry

     total charge of GC-SCF    =       2.65725712 e
     the Fermi energy          =      -3.40115748 eV
                        (error :       0.00284252 eV)
     electrostatic embedding   =      -0.84139126 Ry
     cavitation energy         =       0.03589548 Ry
     electrolyte free energy   =      -0.01574682 Ry
     correction to one-el term =     -80.03148798 Ry

     iteration # 22     ecut=    80.00 Ry     beta= 0.20
     Davidson diagonalization with overlap

---- Real-time Memory Report at c_bands before calling an iterative solver
           714 MiB given to the printing process from OS
             0 MiB allocation reported by mallinfo(arena+hblkhd)
        210963 MiB available memory on the node where the printing process lives
------------------
     ethr =  1.48E-10,  avg # of iterations = 18.1

     negative rho (up, down):  5.780E-04 0.000E+00

     add environment contribution to local potential

     total cpu time spent up to now is     1769.3 secs

     total energy              =    -661.64911406 Ry
     estimated scf accuracy    <       0.00000008 Ry

     total charge of GC-SCF    =       2.66127059 e
     the Fermi energy          =      -3.40201102 eV
                        (error :       0.00198898 eV)
     electrostatic embedding   =      -0.84405794 Ry
     cavitation energy         =       0.03589548 Ry
     electrolyte free energy   =      -0.01578317 Ry
     correction to one-el term =     -80.15843452 Ry

     iteration # 23     ecut=    80.00 Ry     beta= 0.20
     Davidson diagonalization with overlap

---- Real-time Memory Report at c_bands before calling an iterative solver
           714 MiB given to the printing process from OS
             0 MiB allocation reported by mallinfo(arena+hblkhd)
        210994 MiB available memory on the node where the printing process lives
------------------
     ethr =  6.25E-11,  avg # of iterations = 35.9

     negative rho (up, down):  5.753E-04 0.000E+00

     add environment contribution to local potential

     total cpu time spent up to now is     1858.0 secs

     total energy              =    -661.64910791 Ry
     estimated scf accuracy    <       0.00000003 Ry

     total charge of GC-SCF    =       2.66337386 e
     the Fermi energy          =      -3.40355422 eV
                        (error :       0.00044578 eV)
     electrostatic embedding   =      -0.84663066 Ry
     cavitation energy         =       0.03589548 Ry
     electrolyte free energy   =      -0.01582280 Ry
     correction to one-el term =     -80.27996193 Ry

     iteration # 24     ecut=    80.00 Ry     beta= 0.20
     Davidson diagonalization with overlap

---- Real-time Memory Report at c_bands before calling an iterative solver
           714 MiB given to the printing process from OS
             0 MiB allocation reported by mallinfo(arena+hblkhd)
        210997 MiB available memory on the node where the printing process lives
------------------
     ethr =  2.29E-11,  avg # of iterations = 30.3

     negative rho (up, down):  5.719E-04 0.000E+00

     add environment contribution to local potential

     total cpu time spent up to now is     1937.8 secs

     total energy              =    -661.64910356 Ry
     estimated scf accuracy    <       0.00000001 Ry

     total charge of GC-SCF    =       2.66296271 e
     the Fermi energy          =      -3.40442144 eV
                        (error :       0.00042144 eV)
     electrostatic embedding   =      -0.84802376 Ry
     cavitation energy         =       0.03589548 Ry
     electrolyte free energy   =      -0.01584486 Ry
     correction to one-el term =     -80.34740561 Ry

     iteration # 25     ecut=    80.00 Ry     beta= 0.20
     Davidson diagonalization with overlap

---- Real-time Memory Report at c_bands before calling an iterative solver
           714 MiB given to the printing process from OS
             0 MiB allocation reported by mallinfo(arena+hblkhd)
        210918 MiB available memory on the node where the printing process lives
------------------
     ethr =  9.42E-12,  avg # of iterations = 16.4

     negative rho (up, down):  5.691E-04 0.000E+00

     add environment contribution to local potential

     total cpu time spent up to now is     1991.0 secs

     total energy              =    -661.64910382 Ry
     estimated scf accuracy    <          6.2E-09 Ry

     total charge of GC-SCF    =       2.66261686 e
     the Fermi energy          =      -3.40435087 eV
                        (error :       0.00035087 eV)
     electrostatic embedding   =      -0.84775997 Ry
     cavitation energy         =       0.03589548 Ry
     electrolyte free energy   =      -0.01584155 Ry
     correction to one-el term =     -80.33539968 Ry

     iteration # 26     ecut=    80.00 Ry     beta= 0.20
     Davidson diagonalization with overlap

---- Real-time Memory Report at c_bands before calling an iterative solver
           714 MiB given to the printing process from OS
             0 MiB allocation reported by mallinfo(arena+hblkhd)
        210981 MiB available memory on the node where the printing process lives
------------------
     ethr =  4.82E-12,  avg # of iterations = 15.8

     negative rho (up, down):  5.664E-04 0.000E+00

     add environment contribution to local potential

     total cpu time spent up to now is     2042.2 secs

     total energy              =    -661.64910435 Ry
     estimated scf accuracy    <          4.1E-09 Ry

     total charge of GC-SCF    =       2.66147483 e
     the Fermi energy          =      -3.40427153 eV
                        (error :       0.00027153 eV)
     electrostatic embedding   =      -0.84752866 Ry
     cavitation energy         =       0.03589548 Ry
     electrolyte free energy   =      -0.01583834 Ry
     correction to one-el term =     -80.32430813 Ry

     iteration # 27     ecut=    80.00 Ry     beta= 0.20
     Davidson diagonalization with overlap

---- Real-time Memory Report at c_bands before calling an iterative solver
           714 MiB given to the printing process from OS
             0 MiB allocation reported by mallinfo(arena+hblkhd)
        210983 MiB available memory on the node where the printing process lives
------------------
     ethr =  3.19E-12,  avg # of iterations = 30.5

     negative rho (up, down):  5.645E-04 0.000E+00

     add environment contribution to local potential

     total cpu time spent up to now is     2123.3 secs

     total energy              =    -661.64910620 Ry
     estimated scf accuracy    <          1.0E-09 Ry

     total charge of GC-SCF    =       2.66177851 e
     the Fermi energy          =      -3.40386663 eV
                        (error :       0.00013337 eV)
     electrostatic embedding   =      -0.84676854 Ry
     cavitation energy         =       0.03589548 Ry
     electrolyte free energy   =      -0.01582668 Ry
     correction to one-el term =     -80.28748364 Ry

     iteration # 28     ecut=    80.00 Ry     beta= 0.20
     Davidson diagonalization with overlap

---- Real-time Memory Report at c_bands before calling an iterative solver
           714 MiB given to the printing process from OS
             0 MiB allocation reported by mallinfo(arena+hblkhd)
        210926 MiB available memory on the node where the printing process lives
------------------
     ethr =  7.72E-13,  avg # of iterations = 20.8

     negative rho (up, down):  5.627E-04 0.000E+00

     add environment contribution to local potential

     total cpu time spent up to now is     2188.9 secs

     total energy              =    -661.64910579 Ry
     estimated scf accuracy    <          5.8E-10 Ry

     total charge of GC-SCF    =       2.66188098 e
     the Fermi energy          =      -3.40395485 eV
                        (error :       0.00004515 eV)
     electrostatic embedding   =      -0.84697125 Ry
     cavitation energy         =       0.03589548 Ry
     electrolyte free energy   =      -0.01582956 Ry
     correction to one-el term =     -80.29731649 Ry

     iteration # 29     ecut=    80.00 Ry     beta= 0.20
     Davidson diagonalization with overlap

---- Real-time Memory Report at c_bands before calling an iterative solver
           714 MiB given to the printing process from OS
             0 MiB allocation reported by mallinfo(arena+hblkhd)
        210937 MiB available memory on the node where the printing process lives
------------------
     ethr =  4.48E-13,  avg # of iterations = 18.0

     negative rho (up, down):  5.609E-04 0.000E+00

     add environment contribution to local potential

     total cpu time spent up to now is     2248.6 secs

     total energy              =    -661.64910562 Ry
     estimated scf accuracy    <          3.0E-10 Ry

     total charge of GC-SCF    =       2.66194954 e
     the Fermi energy          =      -3.40399618 eV
                        (error :       0.00000382 eV)
     electrostatic embedding   =      -0.84703881 Ry
     cavitation energy         =       0.03589548 Ry
     electrolyte free energy   =      -0.01583065 Ry
     correction to one-el term =     -80.30074103 Ry

     iteration # 30     ecut=    80.00 Ry     beta= 0.20
     Davidson diagonalization with overlap

---- Real-time Memory Report at c_bands before calling an iterative solver
           714 MiB given to the printing process from OS
             0 MiB allocation reported by mallinfo(arena+hblkhd)
        210937 MiB available memory on the node where the printing process lives
------------------
     ethr =  2.32E-13,  avg # of iterations = 18.9

     negative rho (up, down):  5.594E-04 0.000E+00

     add environment contribution to local potential

     total cpu time spent up to now is     2314.2 secs

     total energy              =    -661.64910544 Ry
     estimated scf accuracy    <          9.6E-11 Ry

     total charge of GC-SCF    =       2.66194132 e
     the Fermi energy          =      -3.40403629 eV
                        (error :       0.00003629 eV)
     electrostatic embedding   =      -0.84708699 Ry
     cavitation energy         =       0.03589548 Ry
     electrolyte free energy   =      -0.01583157 Ry
     correction to one-el term =     -80.30340448 Ry

     iteration # 31     ecut=    80.00 Ry     beta= 0.20
     Davidson diagonalization with overlap

---- Real-time Memory Report at c_bands before calling an iterative solver
           714 MiB given to the printing process from OS
             0 MiB allocation reported by mallinfo(arena+hblkhd)
        210924 MiB available memory on the node where the printing process lives
------------------
     ethr =  1.00E-13,  avg # of iterations = 16.8

     negative rho (up, down):  5.585E-04 0.000E+00

     add environment contribution to local potential

     total cpu time spent up to now is     2375.1 secs

     total energy              =    -661.64910549 Ry
     estimated scf accuracy    <          1.2E-10 Ry

     total charge of GC-SCF    =       2.66184534 e
     the Fermi energy          =      -3.40400652 eV
                        (error :       0.00000652 eV)
     electrostatic embedding   =      -0.84708403 Ry
     cavitation energy         =       0.03589548 Ry
     electrolyte free energy   =      -0.01583141 Ry
     correction to one-el term =     -80.30329269 Ry

     iteration # 32     ecut=    80.00 Ry     beta= 0.20
     Davidson diagonalization with overlap

---- Real-time Memory Report at c_bands before calling an iterative solver
           714 MiB given to the printing process from OS
             0 MiB allocation reported by mallinfo(arena+hblkhd)
        210924 MiB available memory on the node where the printing process lives
------------------
     ethr =  1.00E-13,  avg # of iterations = 16.3

     negative rho (up, down):  5.575E-04 0.000E+00

     add environment contribution to local potential

     total cpu time spent up to now is     2434.9 secs

     total energy              =    -661.64910561 Ry
     estimated scf accuracy    <          3.9E-11 Ry

     total charge of GC-SCF    =       2.66178027 e
     the Fermi energy          =      -3.40399585 eV
                        (error :       0.00000415 eV)
     electrostatic embedding   =      -0.84701941 Ry
     cavitation energy         =       0.03589548 Ry
     electrolyte free energy   =      -0.01583054 Ry
     correction to one-el term =     -80.30017462 Ry

     iteration # 33     ecut=    80.00 Ry     beta= 0.20
     Davidson diagonalization with overlap

---- Real-time Memory Report at c_bands before calling an iterative solver
           714 MiB given to the printing process from OS
             0 MiB allocation reported by mallinfo(arena+hblkhd)
        210906 MiB available memory on the node where the printing process lives
------------------
     ethr =  1.00E-13,  avg # of iterations = 18.6

     negative rho (up, down):  5.570E-04 0.000E+00

     add environment contribution to local potential

     total cpu time spent up to now is     2498.3 secs

     total energy              =    -661.64910572 Ry
     estimated scf accuracy    <          1.0E-11 Ry

     total charge of GC-SCF    =       2.66181132 e
     the Fermi energy          =      -3.40396179 eV
                        (error :       0.00003821 eV)
     electrostatic embedding   =      -0.84697607 Ry
     cavitation energy         =       0.03589548 Ry
     electrolyte free energy   =      -0.01582981 Ry
     correction to one-el term =     -80.29801733 Ry

     iteration # 34     ecut=    80.00 Ry     beta= 0.20
     Davidson diagonalization with overlap

---- Real-time Memory Report at c_bands before calling an iterative solver
           714 MiB given to the printing process from OS
             0 MiB allocation reported by mallinfo(arena+hblkhd)
        210886 MiB available memory on the node where the printing process lives
------------------
     ethr =  1.00E-13,  avg # of iterations = 16.2

     negative rho (up, down):  5.565E-04 0.000E+00

     add environment contribution to local potential

     total cpu time spent up to now is     2551.1 secs

     total energy              =    -661.64910567 Ry
     estimated scf accuracy    <          8.4E-12 Ry

     total charge of GC-SCF    =       2.66185151 e
     the Fermi energy          =      -3.40397333 eV
                        (error :       0.00002667 eV)
     electrostatic embedding   =      -0.84699576 Ry
     cavitation energy         =       0.03589548 Ry
     electrolyte free energy   =      -0.01583010 Ry
     correction to one-el term =     -80.29891906 Ry

     iteration # 35     ecut=    80.00 Ry     beta= 0.20
     Davidson diagonalization with overlap

---- Real-time Memory Report at c_bands before calling an iterative solver
           714 MiB given to the printing process from OS
             0 MiB allocation reported by mallinfo(arena+hblkhd)
        210884 MiB available memory on the node where the printing process lives
------------------
     ethr =  1.00E-13,  avg # of iterations = 16.1

     negative rho (up, down):  5.562E-04 0.000E+00

     add environment contribution to local potential

     total cpu time spent up to now is     2602.0 secs

     total energy              =    -661.64910561 Ry
     estimated scf accuracy    <          2.9E-12 Ry

     total charge of GC-SCF    =       2.66188264 e
     the Fermi energy          =      -3.40398542 eV
                        (error :       0.00001458 eV)
     electrostatic embedding   =      -0.84702237 Ry
     cavitation energy         =       0.03589548 Ry
     electrolyte free energy   =      -0.01583049 Ry
     correction to one-el term =     -80.30019186 Ry

     iteration # 36     ecut=    80.00 Ry     beta= 0.20
     Davidson diagonalization with overlap

---- Real-time Memory Report at c_bands before calling an iterative solver
           714 MiB given to the printing process from OS
             0 MiB allocation reported by mallinfo(arena+hblkhd)
        210894 MiB available memory on the node where the printing process lives
------------------
     ethr =  1.00E-13,  avg # of iterations = 15.7

     negative rho (up, down):  5.559E-04 0.000E+00

     add environment contribution to local potential

     total cpu time spent up to now is     2650.9 secs

     total energy              =    -661.64910555 Ry
     estimated scf accuracy    <          1.6E-12 Ry

     total charge of GC-SCF    =       2.66188913 e
     the Fermi energy          =      -3.40399630 eV
                        (error :       0.00000370 eV)
     electrostatic embedding   =      -0.84704312 Ry
     cavitation energy         =       0.03589548 Ry
     electrolyte free energy   =      -0.01583081 Ry
     correction to one-el term =     -80.30119510 Ry

     iteration # 37     ecut=    80.00 Ry     beta= 0.20
     Davidson diagonalization with overlap

---- Real-time Memory Report at c_bands before calling an iterative solver
           714 MiB given to the printing process from OS
             0 MiB allocation reported by mallinfo(arena+hblkhd)
        210911 MiB available memory on the node where the printing process lives
------------------
     ethr =  1.00E-13,  avg # of iterations = 13.6

     negative rho (up, down):  5.557E-04 0.000E+00

     add environment contribution to local potential

     total cpu time spent up to now is     2693.7 secs

     total energy              =    -661.64910554 Ry
     estimated scf accuracy    <          1.1E-12 Ry

     total charge of GC-SCF    =       2.66190128 e
     the Fermi energy          =      -3.40399906 eV
                        (error :       0.00000094 eV)
     electrostatic embedding   =      -0.84704757 Ry
     cavitation energy         =       0.03589548 Ry
     electrolyte free energy   =      -0.01583088 Ry
     correction to one-el term =     -80.30141531 Ry

     iteration # 38     ecut=    80.00 Ry     beta= 0.20
     Davidson diagonalization with overlap

---- Real-time Memory Report at c_bands before calling an iterative solver
           714 MiB given to the printing process from OS
             0 MiB allocation reported by mallinfo(arena+hblkhd)
        210905 MiB available memory on the node where the printing process lives
------------------
     ethr =  1.00E-13,  avg # of iterations = 13.2

     negative rho (up, down):  5.555E-04 0.000E+00

     add environment contribution to local potential

     total cpu time spent up to now is     2733.1 secs

     total energy              =    -661.64910552 Ry
     estimated scf accuracy    <          2.8E-13 Ry

     total charge of GC-SCF    =       2.66189823 e
     the Fermi energy          =      -3.40400280 eV
                        (error :       0.00000280 eV)
     electrostatic embedding   =      -0.84705575 Ry
     cavitation energy         =       0.03589548 Ry
     electrolyte free energy   =      -0.01583100 Ry
     correction to one-el term =     -80.30181872 Ry

     iteration # 39     ecut=    80.00 Ry     beta= 0.20
     Davidson diagonalization with overlap

---- Real-time Memory Report at c_bands before calling an iterative solver
           714 MiB given to the printing process from OS
             0 MiB allocation reported by mallinfo(arena+hblkhd)
        210903 MiB available memory on the node where the printing process lives
------------------
     ethr =  1.00E-13,  avg # of iterations = 11.4

     negative rho (up, down):  5.553E-04 0.000E+00

     add environment contribution to local potential

     total cpu time spent up to now is     2771.7 secs

     total energy              =    -661.64910552 Ry
     estimated scf accuracy    <          1.5E-13 Ry

     total charge of GC-SCF    =       2.66189581 e
     the Fermi energy          =      -3.40400186 eV
                        (error :       0.00000186 eV)
     electrostatic embedding   =      -0.84705373 Ry
     cavitation energy         =       0.03589548 Ry
     electrolyte free energy   =      -0.01583097 Ry
     correction to one-el term =     -80.30172464 Ry

     iteration # 40     ecut=    80.00 Ry     beta= 0.20
     Davidson diagonalization with overlap

---- Real-time Memory Report at c_bands before calling an iterative solver
           714 MiB given to the printing process from OS
             0 MiB allocation reported by mallinfo(arena+hblkhd)
        210887 MiB available memory on the node where the printing process lives
------------------
     ethr =  1.00E-13,  avg # of iterations = 10.4

     negative rho (up, down):  5.552E-04 0.000E+00

     add environment contribution to local potential

     total cpu time spent up to now is     2806.4 secs

     total energy              =    -661.64910552 Ry
     estimated scf accuracy    <          8.2E-14 Ry

     total charge of GC-SCF    =       2.66189340 e
     the Fermi energy          =      -3.40400102 eV
                        (error :       0.00000102 eV)
     electrostatic embedding   =      -0.84705210 Ry
     cavitation energy         =       0.03589548 Ry
     electrolyte free energy   =      -0.01583095 Ry
     correction to one-el term =     -80.30164630 Ry

     iteration # 41     ecut=    80.00 Ry     beta= 0.20
     Davidson diagonalization with overlap

---- Real-time Memory Report at c_bands before calling an iterative solver
           714 MiB given to the printing process from OS
             0 MiB allocation reported by mallinfo(arena+hblkhd)
        210907 MiB available memory on the node where the printing process lives
------------------
     ethr =  1.00E-13,  avg # of iterations =  9.3

     negative rho (up, down):  5.551E-04 0.000E+00

     add environment contribution to local potential

     total cpu time spent up to now is     2840.2 secs

     total energy              =    -661.64910553 Ry
     estimated scf accuracy    <          3.4E-14 Ry

     total charge of GC-SCF    =       2.66189228 e
     the Fermi energy          =      -3.40399976 eV
                        (error :       0.00000024 eV)
     electrostatic embedding   =      -0.84705051 Ry
     cavitation energy         =       0.03589548 Ry
     electrolyte free energy   =      -0.01583092 Ry
     correction to one-el term =     -80.30156847 Ry

     iteration # 42     ecut=    80.00 Ry     beta= 0.20
     Davidson diagonalization with overlap

---- Real-time Memory Report at c_bands before calling an iterative solver
           714 MiB given to the printing process from OS
             0 MiB allocation reported by mallinfo(arena+hblkhd)
        210907 MiB available memory on the node where the printing process lives
------------------
     ethr =  1.00E-13,  avg # of iterations =  9.4

     negative rho (up, down):  5.550E-04 0.000E+00

     add environment contribution to local potential

     total cpu time spent up to now is     2874.5 secs

     total energy              =    -661.64910553 Ry
     estimated scf accuracy    <          2.6E-14 Ry

     total charge of GC-SCF    =       2.66189115 e
     the Fermi energy          =      -3.40399923 eV
                        (error :       0.00000077 eV)
     electrostatic embedding   =      -0.84704975 Ry
     cavitation energy         =       0.03589548 Ry
     electrolyte free energy   =      -0.01583091 Ry
     correction to one-el term =     -80.30153037 Ry

     iteration # 43     ecut=    80.00 Ry     beta= 0.20
     Davidson diagonalization with overlap

---- Real-time Memory Report at c_bands before calling an iterative solver
           714 MiB given to the printing process from OS
             0 MiB allocation reported by mallinfo(arena+hblkhd)
        210941 MiB available memory on the node where the printing process lives
------------------
     ethr =  1.00E-13,  avg # of iterations =  8.0

     negative rho (up, down):  5.550E-04 0.000E+00

     add environment contribution to local potential

     total cpu time spent up to now is     2906.6 secs

     total energy              =    -661.64910553 Ry
     estimated scf accuracy    <          1.7E-14 Ry

     total charge of GC-SCF    =       2.66189147 e
     the Fermi energy          =      -3.40399884 eV
                        (error :       0.00000116 eV)
     electrostatic embedding   =      -0.84704897 Ry
     cavitation energy         =       0.03589548 Ry
     electrolyte free energy   =      -0.01583090 Ry
     correction to one-el term =     -80.30149140 Ry

     iteration # 44     ecut=    80.00 Ry     beta= 0.20
     Davidson diagonalization with overlap

---- Real-time Memory Report at c_bands before calling an iterative solver
           714 MiB given to the printing process from OS
             0 MiB allocation reported by mallinfo(arena+hblkhd)
        210965 MiB available memory on the node where the printing process lives
------------------
     ethr =  1.00E-13,  avg # of iterations =  8.2

     negative rho (up, down):  5.549E-04 0.000E+00

     add environment contribution to local potential

     total cpu time spent up to now is     2938.0 secs

     total energy              =    -661.64910553 Ry
     estimated scf accuracy    <          1.0E-14 Ry

     total charge of GC-SCF    =       2.66189297 e
     the Fermi energy          =      -3.40399910 eV
                        (error :       0.00000090 eV)
     electrostatic embedding   =      -0.84704917 Ry
     cavitation energy         =       0.03589548 Ry
     electrolyte free energy   =      -0.01583090 Ry
     correction to one-el term =     -80.30150063 Ry

     iteration # 45     ecut=    80.00 Ry     beta= 0.20
     Davidson diagonalization with overlap

---- Real-time Memory Report at c_bands before calling an iterative solver
           714 MiB given to the printing process from OS
             0 MiB allocation reported by mallinfo(arena+hblkhd)
        210967 MiB available memory on the node where the printing process lives
------------------
     ethr =  1.00E-13,  avg # of iterations =  7.8

     negative rho (up, down):  5.547E-04 0.000E+00

     total cpu time spent up to now is     2959.7 secs

     End of self-consistent calculation

          k = 0.0000 0.0000 0.0000 (325085 PWs)   bands (ev):

   -51.3459 -51.3459 -51.3459 -51.3459 -51.1868 -51.1868 -51.1868 -51.1868
   -50.4485 -50.4485 -50.4485 -50.4485 -50.2422 -50.2422 -50.2422 -50.2422
   -50.1443 -50.1443 -50.1442 -50.1442 -49.9605 -49.9581 -49.9540 -49.9534
   -49.9532 -49.9526 -49.9513 -49.9510 -49.9484 -49.9478 -49.9475 -49.9468
   -49.9439 -49.9438 -49.9432 -49.9412 -49.8968 -49.8959 -49.8933 -49.8929
   -49.8864 -49.8861 -49.8859 -49.8858  -6.8049  -6.3064  -5.5129  -5.4979
    -5.4749  -5.0826  -5.0715  -5.0139  -5.0092  -4.6257  -4.6224  -4.6071
    -4.5467  -4.4009  -4.2936  -4.1682  -4.1356  -4.0589  -3.7589  -3.6398
    -3.4613  -3.3773  -3.1718  -3.1362  -3.1045  -3.0537  -2.9725  -2.7905
    -2.6495  -2.5376  -2.4775  -2.4061  -2.3165  -2.3165  -2.1868  -1.9561
    -1.7891  -1.7095  -1.6525  -1.4547  -1.4145  -1.2032  -1.0708  -1.0416
    -0.8986  -0.7223  -0.5911  -0.5216  -0.5213  -0.2950  -0.1606  -0.1440
    -0.1044  -0.1019  -0.0665

     occupation numbers 
     1.0000   1.0000   1.0000   1.0000   1.0000   1.0000   1.0000   1.0000
     1.0000   1.0000   1.0000   1.0000   1.0000   1.0000   1.0000   1.0000
     1.0000   1.0000   1.0000   1.0000   1.0000   1.0000   1.0000   1.0000
     1.0000   1.0000   1.0000   1.0000   1.0000   1.0000   1.0000   1.0000
     1.0000   1.0000   1.0000   1.0000   1.0000   1.0000   1.0000   1.0000
     1.0000   1.0000   1.0000   1.0000   1.0000   1.0000   1.0000   1.0000
     1.0000   1.0000   1.0000   1.0000   1.0000   1.0000   1.0000   1.0000
     1.0000   1.0000   1.0000   1.0000   1.0000   1.0000   1.0071   1.0658
     0.7108   0.2770   0.0015   0.0004   0.0001   0.0000   0.0000   0.0000
     0.0000   0.0000   0.0000   0.0000   0.0000   0.0000   0.0000   0.0000
     0.0000   0.0000   0.0000   0.0000   0.0000   0.0000   0.0000   0.0000
     0.0000   0.0000   0.0000   0.0000   0.0000   0.0000   0.0000   0.0000
     0.0000   0.0000   0.0000

          k = 0.0000 0.1508 0.0000 (324993 PWs)   bands (ev):

   -51.3459 -51.3459 -51.3459 -51.3459 -51.1868 -51.1868 -51.1868 -51.1868
   -50.4485 -50.4485 -50.4485 -50.4485 -50.2422 -50.2422 -50.2422 -50.2422
   -50.1443 -50.1443 -50.1442 -50.1442 -49.9603 -49.9581 -49.9540 -49.9538
   -49.9532 -49.9526 -49.9513 -49.9508 -49.9484 -49.9478 -49.9474 -49.9468
   -49.9439 -49.9438 -49.9432 -49.9412 -49.8968 -49.8959 -49.8933 -49.8929
   -49.8864 -49.8861 -49.8859 -49.8858  -6.7779  -6.2793  -5.5889  -5.4839
    -5.4439  -5.3672  -5.0943  -4.9710  -4.9240  -4.8729  -4.6266  -4.4593
    -4.3940  -4.2860  -4.2434  -4.1605  -4.0593  -4.0465  -3.7980  -3.6543
    -3.4713  -3.3041  -3.2761  -3.1717  -3.1004  -3.0297  -2.9390  -2.8616
    -2.7299  -2.6121  -2.5601  -2.2248  -2.2219  -2.1105  -2.0418  -1.9732
    -1.9336  -1.7719  -1.6730  -1.3996  -1.3626  -1.0979  -1.0817  -0.9857
    -0.9263  -0.8787  -0.8298  -0.5438  -0.3422  -0.2983  -0.2769  -0.2537
    -0.1594  -0.1116  -0.1084

     occupation numbers 
     1.0000   1.0000   1.0000   1.0000   1.0000   1.0000   1.0000   1.0000
     1.0000   1.0000   1.0000   1.0000   1.0000   1.0000   1.0000   1.0000
     1.0000   1.0000   1.0000   1.0000   1.0000   1.0000   1.0000   1.0000
     1.0000   1.0000   1.0000   1.0000   1.0000   1.0000   1.0000   1.0000
     1.0000   1.0000   1.0000   1.0000   1.0000   1.0000   1.0000   1.0000
     1.0000   1.0000   1.0000   1.0000   1.0000   1.0000   1.0000   1.0000
     1.0000   1.0000   1.0000   1.0000   1.0000   1.0000   1.0000   1.0000
     1.0000   1.0000   1.0000   1.0000   1.0000   1.0000   1.0023   1.0560
     0.7634   0.0707   0.0363   0.0015   0.0001   0.0000   0.0000   0.0000
     0.0000   0.0000   0.0000   0.0000   0.0000   0.0000   0.0000   0.0000
     0.0000   0.0000   0.0000   0.0000   0.0000   0.0000   0.0000   0.0000
     0.0000   0.0000   0.0000   0.0000   0.0000   0.0000   0.0000   0.0000
     0.0000   0.0000   0.0000

          k = 0.0000 0.3015 0.0000 (324886 PWs)   bands (ev):

   -51.3459 -51.3459 -51.3459 -51.3459 -51.1868 -51.1868 -51.1868 -51.1868
   -50.4485 -50.4485 -50.4485 -50.4485 -50.2422 -50.2422 -50.2422 -50.2422
   -50.1443 -50.1443 -50.1442 -50.1442 -49.9598 -49.9581 -49.9551 -49.9536
   -49.9532 -49.9526 -49.9513 -49.9509 -49.9481 -49.9478 -49.9472 -49.9468
   -49.9439 -49.9438 -49.9432 -49.9412 -49.8968 -49.8959 -49.8933 -49.8929
   -49.8864 -49.8861 -49.8859 -49.8858  -6.6968  -6.1980  -5.8299  -5.6167
    -5.3949  -5.2888  -5.1926  -5.1664  -5.1052  -4.7120  -4.6625  -4.5044
    -4.2872  -4.2564  -4.1111  -3.9056  -3.8905  -3.8833  -3.8477  -3.6484
    -3.5139  -3.4157  -3.3804  -3.2318  -2.9939  -2.9115  -2.8388  -2.7872
    -2.7715  -2.6989  -2.6714  -2.1629  -2.1468  -2.1399  -1.9448  -1.8824
    -1.8719  -1.8276  -1.6555  -1.3186  -1.2765  -1.1507  -1.0861  -1.0133
    -0.9772  -0.9582  -0.9465  -0.8672  -0.6224  -0.2232  -0.1759  -0.1600
    -0.1598  -0.0851  -0.0030

     occupation numbers 
     1.0000   1.0000   1.0000   1.0000   1.0000   1.0000   1.0000   1.0000
     1.0000   1.0000   1.0000   1.0000   1.0000   1.0000   1.0000   1.0000
     1.0000   1.0000   1.0000   1.0000   1.0000   1.0000   1.0000   1.0000
     1.0000   1.0000   1.0000   1.0000   1.0000   1.0000   1.0000   1.0000
     1.0000   1.0000   1.0000   1.0000   1.0000   1.0000   1.0000   1.0000
     1.0000   1.0000   1.0000   1.0000   1.0000   1.0000   1.0000   1.0000
     1.0000   1.0000   1.0000   1.0000   1.0000   1.0000   1.0000   1.0000
     1.0000   1.0000   1.0000   1.0000   1.0001   1.0001   1.0004   1.0601
     0.9514   0.4612   0.2901   0.0108   0.0000   0.0000   0.0000   0.0000
     0.0000   0.0000   0.0000   0.0000   0.0000   0.0000   0.0000   0.0000
     0.0000   0.0000   0.0000   0.0000   0.0000   0.0000   0.0000   0.0000
     0.0000   0.0000   0.0000   0.0000   0.0000   0.0000   0.0000   0.0000
     0.0000   0.0000   0.0000

          k = 0.0000 0.4523 0.0000 (324902 PWs)   bands (ev):

   -51.3459 -51.3459 -51.3459 -51.3459 -51.1868 -51.1868 -51.1868 -51.1868
   -50.4485 -50.4485 -50.4485 -50.4485 -50.2422 -50.2422 -50.2422 -50.2422
   -50.1443 -50.1443 -50.1442 -50.1442 -49.9591 -49.9581 -49.9563 -49.9533
   -49.9532 -49.9526 -49.9513 -49.9512 -49.9478 -49.9477 -49.9471 -49.9468
   -49.9439 -49.9438 -49.9432 -49.9413 -49.8968 -49.8960 -49.8933 -49.8928
   -49.8864 -49.8861 -49.8859 -49.8858  -6.5618  -6.1298  -6.0599  -5.6268
    -5.5889  -5.3672  -5.2170  -5.0944  -4.9241  -4.8729  -4.7775  -4.4592
    -4.2862  -4.2435  -4.1296  -4.0598  -3.7982  -3.6852  -3.6536  -3.5766
    -3.4707  -3.3039  -3.1920  -3.0997  -3.0295  -2.8929  -2.8704  -2.8617
    -2.7298  -2.5599  -2.5283  -2.4052  -2.2512  -2.2216  -2.1118  -2.1115
    -1.7726  -1.7498  -1.5554  -1.3635  -1.2632  -1.2106  -1.1461  -1.0981
    -0.9264  -0.9019  -0.8305  -0.7284  -0.5626  -0.3099  -0.2780  -0.1697
    -0.1623  -0.1079  -0.0901

     occupation numbers 
     1.0000   1.0000   1.0000   1.0000   1.0000   1.0000   1.0000   1.0000
     1.0000   1.0000   1.0000   1.0000   1.0000   1.0000   1.0000   1.0000
     1.0000   1.0000   1.0000   1.0000   1.0000   1.0000   1.0000   1.0000
     1.0000   1.0000   1.0000   1.0000   1.0000   1.0000   1.0000   1.0000
     1.0000   1.0000   1.0000   1.0000   1.0000   1.0000   1.0000   1.0000
     1.0000   1.0000   1.0000   1.0000   1.0000   1.0000   1.0000   1.0000
     1.0000   1.0000   1.0000   1.0000   1.0000   1.0000   1.0000   1.0000
     1.0000   1.0000   1.0000   1.0000   1.0023   1.0356   1.0565   1.0775
     0.7602   0.0705   0.0030   0.0001   0.0000   0.0000   0.0000   0.0000
     0.0000   0.0000   0.0000   0.0000   0.0000   0.0000   0.0000   0.0000
     0.0000   0.0000   0.0000   0.0000   0.0000   0.0000   0.0000   0.0000
     0.0000   0.0000   0.0000   0.0000   0.0000   0.0000   0.0000   0.0000
     0.0000   0.0000   0.0000

          k = 0.0000-0.6030 0.0000 (324996 PWs)   bands (ev):

   -51.3459 -51.3459 -51.3459 -51.3459 -51.1868 -51.1868 -51.1868 -51.1868
   -50.4485 -50.4485 -50.4485 -50.4485 -50.2422 -50.2422 -50.2422 -50.2422
   -50.1443 -50.1443 -50.1442 -50.1442 -49.9586 -49.9581 -49.9569 -49.9532
   -49.9531 -49.9526 -49.9514 -49.9513 -49.9478 -49.9474 -49.9472 -49.9468
   -49.9439 -49.9438 -49.9432 -49.9413 -49.8968 -49.8960 -49.8933 -49.8928
   -49.8864 -49.8861 -49.8859 -49.8858  -6.3888  -6.3547  -5.9005  -5.8398
    -5.5130  -5.4978  -5.0668  -5.0143  -5.0090  -4.9805  -4.6258  -4.6226
    -4.2932  -4.1687  -4.1362  -4.0588  -3.9865  -3.8685  -3.4606  -3.3765
    -3.1799  -3.1369  -3.1025  -3.0533  -3.0343  -2.9723  -2.9282  -2.7911
    -2.7690  -2.5900  -2.5658  -2.4767  -2.3168  -2.2861  -2.2248  -2.1883
    -1.8321  -1.7104  -1.4933  -1.4560  -1.3601  -1.1913  -1.0713  -1.0703
    -0.8988  -0.6853  -0.6700  -0.5914  -0.5386  -0.5234  -0.5128  -0.1648
    -0.1015  -0.1010  -0.0831

     occupation numbers 
     1.0000   1.0000   1.0000   1.0000   1.0000   1.0000   1.0000   1.0000
     1.0000   1.0000   1.0000   1.0000   1.0000   1.0000   1.0000   1.0000
     1.0000   1.0000   1.0000   1.0000   1.0000   1.0000   1.0000   1.0000
     1.0000   1.0000   1.0000   1.0000   1.0000   1.0000   1.0000   1.0000
     1.0000   1.0000   1.0000   1.0000   1.0000   1.0000   1.0000   1.0000
     1.0000   1.0000   1.0000   1.0000   1.0000   1.0000   1.0000   1.0000
     1.0000   1.0000   1.0000   1.0000   1.0000   1.0000   1.0000   1.0000
     1.0000   1.0000   1.0000   1.0000   1.0000   1.0002   0.7068   0.2737
     0.0020   0.0004   0.0001   0.0000   0.0000   0.0000   0.0000   0.0000
     0.0000   0.0000   0.0000   0.0000   0.0000   0.0000   0.0000   0.0000
     0.0000   0.0000   0.0000   0.0000   0.0000   0.0000   0.0000   0.0000
     0.0000   0.0000   0.0000   0.0000   0.0000   0.0000   0.0000   0.0000
     0.0000   0.0000   0.0000

          k = 0.1429 0.0431 0.0000 (325077 PWs)   bands (ev):

   -51.3459 -51.3459 -51.3459 -51.3459 -51.1868 -51.1868 -51.1868 -51.1868
   -50.4485 -50.4485 -50.4485 -50.4485 -50.2422 -50.2422 -50.2422 -50.2422
   -50.1443 -50.1443 -50.1442 -50.1442 -49.9604 -49.9582 -49.9539 -49.9534
   -49.9532 -49.9527 -49.9513 -49.9510 -49.9484 -49.9479 -49.9475 -49.9468
[...]
     atom    9 type  1   force =    -0.00006956    0.05469315   -5.96087729
     atom   10 type  1   force =     0.00041772   -0.02915333   -8.33490448
     atom   11 type  1   force =     0.00007690   -0.16554155  -10.15566182
     atom   12 type  1   force =    -0.00041855    0.02915864    8.33490561
     atom   13 type  1   force =     0.00007016   -0.05470026    5.96088489
     atom   14 type  1   force =     0.00015725   -0.02936587    3.04447492
     atom   15 type  1   force =    -0.00007693    0.05287631    0.51804903
     atom   16 type  1   force =     0.00009279    0.02586332   -1.97089682
     atom   17 type  1   force =    -0.00018728   -0.05298249   -4.29801323
     atom   18 type  1   force =     0.00023463   -0.07336723   -6.62410503
     atom   19 type  1   force =     0.00035227    0.15082885   -9.32420659
     atom   20 type  1   force =    -0.00010224    0.15126704  -11.62559031
     atom   21 type  1   force =     0.00004864    0.08381240   12.07457310
     atom   22 type  1   force =    -0.00007678    0.16554516   10.15565869
     atom   23 type  1   force =    -0.00004901   -0.08381371  -12.07457011
     atom   24 type  1   force =     0.00010244   -0.15126736   11.62558737
     atom   25 type  1   force =    -0.00035163   -0.15083205    9.32419673
     atom   26 type  1   force =    -0.00023513    0.07336474    6.62411184
     atom   27 type  1   force =     0.00018733    0.05298549    4.29801559
     atom   28 type  1   force =    -0.00009293   -0.02586283    1.97089592
     atom   29 type  1   force =     0.00007610   -0.05287334   -0.51804263
     atom   30 type  1   force =    -0.00015627    0.02936501   -3.04448676
     atom   31 type  1   force =    -0.00006980    0.05469333   -5.96087679
     atom   32 type  1   force =     0.00041763   -0.02915312   -8.33490395
     atom   33 type  1   force =     0.00007696   -0.16554182  -10.15566171
     atom   34 type  1   force =    -0.00041845    0.02915901    8.33490748
     atom   35 type  1   force =     0.00006995   -0.05470035    5.96088511
     atom   36 type  1   force =     0.00015749   -0.02936591    3.04447512
     atom   37 type  1   force =    -0.00007680    0.05287606    0.51804902
     atom   38 type  1   force =     0.00009284    0.02586342   -1.97089692
     atom   39 type  1   force =    -0.00018720   -0.05298255   -4.29801260
     atom   40 type  1   force =     0.00023490   -0.07336716   -6.62410469
     atom   41 type  1   force =     0.00035225    0.15082886   -9.32420595
     atom   42 type  1   force =    -0.00010244    0.15126706  -11.62558992
     atom   43 type  1   force =     0.00004830    0.08381240   12.07457322
     atom   44 type  1   force =    -0.00007680    0.16554505   10.15565894
     The local contribution  to forces
     atom    1 type  1   force =     0.00010790    0.09117330   12.18746499
     atom    2 type  1   force =    -0.00021053    0.16223403  -11.75041762
     atom    3 type  1   force =     0.00033658    0.16520922   -9.40094259
     atom    4 type  1   force =     0.00022065   -0.07082914   -6.65246747
     atom    5 type  1   force =    -0.00023778   -0.05659421   -4.32580008
     atom    6 type  1   force =     0.00011460    0.02754602   -1.97913362
     atom    7 type  1   force =    -0.00013188    0.05604850    0.52223831
     atom    8 type  1   force =     0.00016905   -0.03151419    3.05972823
     atom    9 type  1   force =     0.00010043   -0.05393124    5.99518071
     atom   10 type  1   force =    -0.00040787    0.02707066    8.40249399
     atom   11 type  1   force =     0.00002394    0.17750517   10.25898554
     atom   12 type  1   force =     0.00040876   -0.02707613   -8.40249542
     atom   13 type  1   force =    -0.00010100    0.05393807   -5.99518890
     atom   14 type  1   force =    -0.00016944    0.03151494   -3.05971510
     atom   15 type  1   force =     0.00013276   -0.05605079   -0.52224474
     atom   16 type  1   force =    -0.00011456   -0.02754616    1.97913518
     atom   17 type  1   force =     0.00023788    0.05659096    4.32579760
     atom   18 type  1   force =    -0.00022021    0.07083146    6.65246019
     atom   19 type  1   force =    -0.00033732   -0.16520624    9.40095282
     atom   20 type  1   force =     0.00020978   -0.16223371   11.75042054
     atom   21 type  1   force =    -0.00010787   -0.09117184  -12.18746829
     atom   22 type  1   force =    -0.00002416   -0.17750854  -10.25898258
     atom   23 type  1   force =     0.00010828    0.09117328   12.18746506
     atom   24 type  1   force =    -0.00020998    0.16223406  -11.75041785
     atom   25 type  1   force =     0.00033667    0.16520946   -9.40094277
     atom   26 type  1   force =     0.00022074   -0.07082929   -6.65246748
     atom   27 type  1   force =    -0.00023796   -0.05659426   -4.32580006
     atom   28 type  1   force =     0.00011470    0.02754597   -1.97913475
     atom   29 type  1   force =    -0.00013194    0.05604810    0.52223803
     atom   30 type  1   force =     0.00016845   -0.03151414    3.05972700
     atom   31 type  1   force =     0.00010067   -0.05393144    5.99518021
     atom   32 type  1   force =    -0.00040779    0.02707043    8.40249344
     atom   33 type  1   force =     0.00002388    0.17750546   10.25898541
     atom   34 type  1   force =     0.00040866   -0.02707653   -8.40249736
     atom   35 type  1   force =    -0.00010079    0.05393816   -5.99518912
     atom   36 type  1   force =    -0.00016970    0.03151498   -3.05971531
     atom   37 type  1   force =     0.00013262   -0.05605054   -0.52224472
     atom   38 type  1   force =    -0.00011462   -0.02754626    1.97913528
     atom   39 type  1   force =     0.00023779    0.05659103    4.32579696
     atom   40 type  1   force =    -0.00022047    0.07083140    6.65245985
     atom   41 type  1   force =    -0.00033731   -0.16520626    9.40095214
     atom   42 type  1   force =     0.00020999   -0.16223373   11.75042016
     atom   43 type  1   force =    -0.00010748   -0.09117185  -12.18746840
     atom   44 type  1   force =    -0.00002414   -0.17750842  -10.25898285
     The core correction contribution to forces
     atom    1 type  1   force =     0.00000000    0.00000000    0.00000000
     atom    2 type  1   force =     0.00000000    0.00000000    0.00000000
     atom    3 type  1   force =     0.00000000    0.00000000    0.00000000
     atom    4 type  1   force =     0.00000000    0.00000000    0.00000000
     atom    5 type  1   force =     0.00000000    0.00000000    0.00000000
     atom    6 type  1   force =     0.00000000    0.00000000    0.00000000
     atom    7 type  1   force =     0.00000000    0.00000000    0.00000000
     atom    8 type  1   force =     0.00000000    0.00000000    0.00000000
     atom    9 type  1   force =     0.00000000    0.00000000    0.00000000
     atom   10 type  1   force =     0.00000000    0.00000000    0.00000000
     atom   11 type  1   force =     0.00000000    0.00000000    0.00000000
     atom   12 type  1   force =     0.00000000    0.00000000    0.00000000
     atom   13 type  1   force =     0.00000000    0.00000000    0.00000000
     atom   14 type  1   force =     0.00000000    0.00000000    0.00000000
     atom   15 type  1   force =     0.00000000    0.00000000    0.00000000
     atom   16 type  1   force =     0.00000000    0.00000000    0.00000000
     atom   17 type  1   force =     0.00000000    0.00000000    0.00000000
     atom   18 type  1   force =     0.00000000    0.00000000    0.00000000
     atom   19 type  1   force =     0.00000000    0.00000000    0.00000000
     atom   20 type  1   force =     0.00000000    0.00000000    0.00000000
     atom   21 type  1   force =     0.00000000    0.00000000    0.00000000
     atom   22 type  1   force =     0.00000000    0.00000000    0.00000000
     atom   23 type  1   force =     0.00000000    0.00000000    0.00000000
     atom   24 type  1   force =     0.00000000    0.00000000    0.00000000
     atom   25 type  1   force =     0.00000000    0.00000000    0.00000000
     atom   26 type  1   force =     0.00000000    0.00000000    0.00000000
     atom   27 type  1   force =     0.00000000    0.00000000    0.00000000
     atom   28 type  1   force =     0.00000000    0.00000000    0.00000000
     atom   29 type  1   force =     0.00000000    0.00000000    0.00000000
     atom   30 type  1   force =     0.00000000    0.00000000    0.00000000
     atom   31 type  1   force =     0.00000000    0.00000000    0.00000000
     atom   32 type  1   force =     0.00000000    0.00000000    0.00000000
     atom   33 type  1   force =     0.00000000    0.00000000    0.00000000
     atom   34 type  1   force =     0.00000000    0.00000000    0.00000000
     atom   35 type  1   force =     0.00000000    0.00000000    0.00000000
     atom   36 type  1   force =     0.00000000    0.00000000    0.00000000
     atom   37 type  1   force =     0.00000000    0.00000000    0.00000000
     atom   38 type  1   force =     0.00000000    0.00000000    0.00000000
     atom   39 type  1   force =     0.00000000    0.00000000    0.00000000
     atom   40 type  1   force =     0.00000000    0.00000000    0.00000000
     atom   41 type  1   force =     0.00000000    0.00000000    0.00000000
     atom   42 type  1   force =     0.00000000    0.00000000    0.00000000
     atom   43 type  1   force =     0.00000000    0.00000000    0.00000000
     atom   44 type  1   force =     0.00000000    0.00000000    0.00000000
     The Hubbard contrib.    to forces
     atom    1 type  1   force =     0.00000000    0.00000000    0.00000000
     atom    2 type  1   force =     0.00000000    0.00000000    0.00000000
     atom    3 type  1   force =     0.00000000    0.00000000    0.00000000
     atom    4 type  1   force =     0.00000000    0.00000000    0.00000000
     atom    5 type  1   force =     0.00000000    0.00000000    0.00000000
     atom    6 type  1   force =     0.00000000    0.00000000    0.00000000
     atom    7 type  1   force =     0.00000000    0.00000000    0.00000000
     atom    8 type  1   force =     0.00000000    0.00000000    0.00000000
     atom    9 type  1   force =     0.00000000    0.00000000    0.00000000
     atom   10 type  1   force =     0.00000000    0.00000000    0.00000000
     atom   11 type  1   force =     0.00000000    0.00000000    0.00000000
     atom   12 type  1   force =     0.00000000    0.00000000    0.00000000
     atom   13 type  1   force =     0.00000000    0.00000000    0.00000000
     atom   14 type  1   force =     0.00000000    0.00000000    0.00000000
     atom   15 type  1   force =     0.00000000    0.00000000    0.00000000
     atom   16 type  1   force =     0.00000000    0.00000000    0.00000000
     atom   17 type  1   force =     0.00000000    0.00000000    0.00000000
     atom   18 type  1   force =     0.00000000    0.00000000    0.00000000
     atom   19 type  1   force =     0.00000000    0.00000000    0.00000000
     atom   20 type  1   force =     0.00000000    0.00000000    0.00000000
     atom   21 type  1   force =     0.00000000    0.00000000    0.00000000
     atom   22 type  1   force =     0.00000000    0.00000000    0.00000000
     atom   23 type  1   force =     0.00000000    0.00000000    0.00000000
     atom   24 type  1   force =     0.00000000    0.00000000    0.00000000
     atom   25 type  1   force =     0.00000000    0.00000000    0.00000000
     atom   26 type  1   force =     0.00000000    0.00000000    0.00000000
     atom   27 type  1   force =     0.00000000    0.00000000    0.00000000
     atom   28 type  1   force =     0.00000000    0.00000000    0.00000000
     atom   29 type  1   force =     0.00000000    0.00000000    0.00000000
     atom   30 type  1   force =     0.00000000    0.00000000    0.00000000
     atom   31 type  1   force =     0.00000000    0.00000000    0.00000000
     atom   32 type  1   force =     0.00000000    0.00000000    0.00000000
     atom   33 type  1   force =     0.00000000    0.00000000    0.00000000
     atom   34 type  1   force =     0.00000000    0.00000000    0.00000000
     atom   35 type  1   force =     0.00000000    0.00000000    0.00000000
     atom   36 type  1   force =     0.00000000    0.00000000    0.00000000
     atom   37 type  1   force =     0.00000000    0.00000000    0.00000000
     atom   38 type  1   force =     0.00000000    0.00000000    0.00000000
     atom   39 type  1   force =     0.00000000    0.00000000    0.00000000
     atom   40 type  1   force =     0.00000000    0.00000000    0.00000000
     atom   41 type  1   force =     0.00000000    0.00000000    0.00000000
     atom   42 type  1   force =     0.00000000    0.00000000    0.00000000
     atom   43 type  1   force =     0.00000000    0.00000000    0.00000000
     atom   44 type  1   force =     0.00000000    0.00000000    0.00000000
     The SCF correction term to forces
     atom    1 type  1   force =    -0.00000001   -0.00000002   -0.00000001
     atom    2 type  1   force =    -0.00000000   -0.00000002   -0.00000002
     atom    3 type  1   force =     0.00000000   -0.00000001   -0.00000002
     atom    4 type  1   force =    -0.00000000   -0.00000000    0.00000002
     atom    5 type  1   force =    -0.00000000    0.00000001    0.00000001
     atom    6 type  1   force =    -0.00000000   -0.00000000   -0.00000001
     atom    7 type  1   force =    -0.00000000    0.00000000    0.00000000
     atom    8 type  1   force =    -0.00000000    0.00000000    0.00000002
     atom    9 type  1   force =     0.00000000    0.00000001   -0.00000003
     atom   10 type  1   force =     0.00000000   -0.00000000   -0.00000000
     atom   11 type  1   force =    -0.00000001   -0.00000001    0.00000002
     atom   12 type  1   force =     0.00000000    0.00000001   -0.00000002
     atom   13 type  1   force =    -0.00000000   -0.00000001    0.00000003
     atom   14 type  1   force =    -0.00000000   -0.00000000   -0.00000002
     atom   15 type  1   force =    -0.00000000   -0.00000000   -0.00000001
     atom   16 type  1   force =    -0.00000000    0.00000000    0.00000001
     atom   17 type  1   force =    -0.00000000   -0.00000002   -0.00000001
     atom   18 type  1   force =    -0.00000000    0.00000000   -0.00000003
     atom   19 type  1   force =    -0.00000000    0.00000002    0.00000004
     atom   20 type  1   force =    -0.00000000    0.00000002   -0.00000000
     atom   21 type  1   force =    -0.00000001    0.00000002    0.00000001
     atom   22 type  1   force =     0.00000000    0.00000002   -0.00000003
     atom   23 type  1   force =    -0.00000001   -0.00000003   -0.00000002
     atom   24 type  1   force =    -0.00000000   -0.00000002   -0.00000002
     atom   25 type  1   force =     0.00000000   -0.00000001   -0.00000002
     atom   26 type  1   force =     0.00000000   -0.00000000    0.00000002
     atom   27 type  1   force =     0.00000000    0.00000002    0.00000001
     atom   28 type  1   force =     0.00000000    0.00000000   -0.00000001
     atom   29 type  1   force =     0.00000000    0.00000000    0.00000000
     atom   30 type  1   force =     0.00000000    0.00000000    0.00000002
     atom   31 type  1   force =     0.00000000    0.00000001   -0.00000003
     atom   32 type  1   force =     0.00000000   -0.00000000   -0.00000000
     atom   33 type  1   force =    -0.00000001   -0.00000001    0.00000002
     atom   34 type  1   force =     0.00000000    0.00000001   -0.00000002
     atom   35 type  1   force =     0.00000000   -0.00000001    0.00000003
     atom   36 type  1   force =     0.00000000    0.00000000   -0.00000002
     atom   37 type  1   force =    -0.00000000   -0.00000000   -0.00000001
     atom   38 type  1   force =     0.00000000    0.00000000    0.00000001
     atom   39 type  1   force =     0.00000000   -0.00000001   -0.00000001
     atom   40 type  1   force =    -0.00000000    0.00000000   -0.00000003
     atom   41 type  1   force =    -0.00000000    0.00000002    0.00000004
     atom   42 type  1   force =    -0.00000000    0.00000002   -0.00000001
     atom   43 type  1   force =    -0.00000001    0.00000002    0.00000001
     atom   44 type  1   force =     0.00000000    0.00000002   -0.00000003

     Total force =     0.001240     Total SCF correction =     0.000000

     Writing all to output data dir ./Li/Lithium.save/ :
     XML data file
     init_run     :     25.07s CPU     34.28s WALL (       1 calls)
     electrons    :   2272.46s CPU   2925.26s WALL (       1 calls)
     forces       :     32.56s CPU     34.23s WALL (       1 calls)

     Called by init_run:
     wfcinit      :      4.15s CPU      5.77s WALL (       1 calls)
     wfcinit:wfcr :      3.81s CPU      5.43s WALL (      15 calls)
     potinit      :      1.21s CPU      1.31s WALL (       1 calls)
     hinit0       :      9.06s CPU     16.24s WALL (       1 calls)

     Called by electrons:
     c_bands      :   1838.69s CPU   2403.76s WALL (      45 calls)
     sum_band     :     88.18s CPU    123.66s WALL (      45 calls)
     v_of_rho     :      4.83s CPU      5.48s WALL (      46 calls)
     v_h          :      0.42s CPU      0.48s WALL (      46 calls)
     v_xc         :      4.42s CPU      5.00s WALL (      46 calls)
     newd         :      2.37s CPU      3.05s WALL (      46 calls)
     PAW_pot      :      0.46s CPU      0.62s WALL (      46 calls)
     mix_rho      :     14.03s CPU     16.60s WALL (      45 calls)

     Called by c_bands:
     init_us_2    :     16.83s CPU     16.99s WALL (    1380 calls)
     cegterg      :   1740.28s CPU   2165.21s WALL (    1025 calls)

     Called by sum_band:
     sum_band:wei :      0.10s CPU      0.12s WALL (      45 calls)
     sum_band:loo :     85.82s CPU    120.17s WALL (      45 calls)
     sum_band:buf :      1.48s CPU      1.58s WALL (     675 calls)
     sum_band:ini :      8.35s CPU      8.38s WALL (     675 calls)
     sum_band:cal :     13.62s CPU     14.87s WALL (     675 calls)
     sum_band:bec :      0.13s CPU      0.15s WALL (     675 calls)
     addusdens    :      1.73s CPU      2.59s WALL (      45 calls)
                                        0.00s GPU  (      45 calls)
     addusd:skk   :      0.22s CPU      0.60s WALL (      45 calls)
                                        0.00s GPU  (      45 calls)

     Called by *egterg:
     cdiaghg      :    537.12s CPU    557.15s WALL (   15901 calls)
     cegterg:over :     96.24s CPU    104.96s WALL (   14951 calls)
     cegterg:upda :     85.27s CPU     87.53s WALL (   14951 calls)
     cegterg:last :     30.71s CPU     30.85s WALL (    1363 calls)
     h_psi        :    859.97s CPU   1241.89s WALL (   15991 calls)
     s_psi        :     95.23s CPU     97.12s WALL (   15991 calls)
     g_psi        :      1.00s CPU      1.12s WALL (   14951 calls)

     Called by h_psi:
     h_psi:calbec :    113.98s CPU    127.96s WALL (   15991 calls)
     vloc_psi     :    643.87s CPU   1008.34s WALL (   15991 calls)
                                        0.00s GPU  (   15991 calls)
     add_vuspsi   :     98.37s CPU     99.59s WALL (   15991 calls)

     General routines
     calbec       :    128.55s CPU    143.90s WALL (   16726 calls)
     fft          :      8.42s CPU     15.95s WALL (     598 calls)
     ffts         :      8.68s CPU     10.35s WALL (    5503 calls)
     fftw         :    676.34s CPU   1060.59s WALL (  786279 calls)
     interpolate  :      1.45s CPU      1.52s WALL (      46 calls)

     Parallel routines

     PAW routines
     PAW_pot      :      0.46s CPU      0.62s WALL (      46 calls)

     Environ routines

     PWSCF        :  38m50.55s CPU  49m54.94s WALL


   This run was terminated on:  15:32:12   2Jan2025            

=------------------------------------------------------------------------------=
   JOB DONE.
=------------------------------------------------------------------------------=
