
     Program PWSCF v.7.4 starts on 23Jan2025 at  0:35:53 

     This program is part of the open-source Quantum ESPRESSO suite
     for quantum simulation of materials; please cite
         "P. Giannozzi et al., J. Phys.:Condens. Matter 21 395502 (2009);
         "P. Giannozzi et al., J. Phys.:Condens. Matter 29 465901 (2017);
         "P. Giannozzi et al., J. Chem. Phys. 152 154105 (2020);
          URL http://www.quantum-espresso.org", 
     in publications or presentations arising from this work. More details at
     http://www.quantum-espresso.org/quote

     Parallel version (MPI & OpenMP), running on     384 processor cores
     Number of MPI processes:               384
     Threads/MPI process:                     1

     MPI processes distributed on     2 nodes
     667486 MiB available memory on the printing compute node when the environment starts
 
     Reading input from espresso.pwi
Warning: card &CELL ignored
Warning: card    PRESS_CONV_THR   = 0.1 ignored
Warning: card    CELL_DOFREE      = 'ALL' ignored
Warning: card / ignored
Warning: card &FCP ignored
Warning: card / ignored
Warning: card &RISM ignored
Warning: card / ignored

     Current dimensions of program PWSCF are:
     Max number of different atomic species (ntypx) = 10
     Max number of k-points (npk) =  40000
     Max angular momentum in pseudopotentials (lmaxx) =  4

     IMPORTANT: XC functional enforced from input :
     Exchange-correlation= PBE
                           (   1   4   3   4   0   0   0)
     Any further DFT definition will be discarded
     Please, verify this is what you really want

     Found identity + (  0.0000  0.5000 -0.0000) symmetry
     This is a supercell, fractional translations are disabled
     Message from routine setup:
     using ibrav=0 with symmetry is DISCOURAGED, use correct ibrav instead
 
     K-points division:     npool     =       2
     R & G space division:  proc/nbgrp/npool/nimage =     192
     Subspace diagonalization in iterative solution of the eigenvalue problem:
     a serial algorithm will be used

 
     Parallelization info
     --------------------
     sticks:   dense  smooth     PW     G-vecs:    dense   smooth      PW
     Min          55      22      6                41315    10442    1416
     Max          56      23      7                41400    10497    1492
     Sum       10733    4281   1153              7944523  2009183  280949
 
     Using Slab Decomposition
 


     bravais-lattice index     =            0
     lattice parameter (alat)  =      12.9830  a.u.
     unit-cell volume          =   20789.7695 (a.u.)^3
     number of atoms/cell      =           32
     number of atomic types    =            1
     number of electrons       =        96.00
     number of Kohn-Sham states=           72
     kinetic-energy cutoff     =      80.0000  Ry
     charge density cutoff     =     800.0000  Ry
     scf convergence threshold =      1.0E-06
     mixing beta               =       0.2000
     number of iterations used =            8  local-TF  mixing
     energy convergence thresh.=      1.0E-05
     force convergence thresh. =      3.9E-04
     Exchange-correlation= PBE
                           (   1   4   3   4   0   0   0)
     nstep                     =           50


     celldm(1)=  12.983009  celldm(2)=   0.000000  celldm(3)=   0.000000
     celldm(4)=   0.000000  celldm(5)=   0.000000  celldm(6)=   0.000000

     crystal axes: (cart. coord. in units of alat)
               a(1) = (   1.000000   0.000000   0.000000 )  
               a(2) = (   0.000000   1.000000   0.000000 )  
               a(3) = (   0.000000   0.000000   9.500000 )  

     reciprocal axes: (cart. coord. in units 2 pi/alat)
               b(1) = (  1.000000  0.000000  0.000000 )  
               b(2) = (  0.000000  1.000000  0.000000 )  
               b(3) = (  0.000000  0.000000  0.105263 )  


     PseudoPot. # 1 for Li read from file:
     /iridisfs/home/ba3g18/Repos/Pseudopotentials/pslibrary.1.0.0/pbe/PSEUDOPOTENTIALS/Li.pbe-sl-kjpaw_psl.1.0.0.UPF
     MD5 check sum: 3f4d2cafebb47c6c3aa8ed472e6f074d
     Pseudo is Projector augmented-wave, Zval =  3.0
     Generated using 'atomic' code by A. Dal Corso  v.7.4
     Shape of augmentation charge: PSQ
     Using radial grid of 1017 points,  4 beta functions with: 
                l(1) =   0
                l(2) =   0
                l(3) =   1
                l(4) =   1
     Q(r) pseudized with 0 coefficients 


     atomic species   valence    mass     pseudopotential
     Li                3.00     6.94000     Li( 1.00)

      8 Sym. Ops. (no inversion) found



   Cartesian axes

     site n.     atom                  positions (alat units)
         1        Li     tau(   1) = (  -0.0000000  -0.0000000   4.1303463  )
         2        Li     tau(   2) = (   0.2499997   0.2499997   3.8684838  )
         3        Li     tau(   3) = (  -0.0000000  -0.0000000   4.6245458  )
         4        Li     tau(   4) = (   0.2499999   0.2499999   4.3780532  )
         5        Li     tau(   5) = (  -0.0000000  -0.0000000   5.1219470  )
         6        Li     tau(   6) = (   0.2500003   0.2500003   4.8754552  )
         7        Li     tau(   7) = (  -0.0000000  -0.0000000   5.6315141  )
         8        Li     tau(   8) = (   0.2499989   0.2499989   5.3696537  )
         9        Li     tau(   9) = (  -0.0000000   0.5000000   4.1303454  )
        10        Li     tau(  10) = (   0.2499997   0.7500003   3.8684838  )
        11        Li     tau(  11) = (  -0.0000000   0.5000000   4.6245450  )
        12        Li     tau(  12) = (   0.2499999   0.7500000   4.3780532  )
        13        Li     tau(  13) = (  -0.0000000   0.5000000   5.1219491  )
        14        Li     tau(  14) = (   0.2500003   0.7499997   4.8754552  )
        15        Li     tau(  15) = (  -0.0000000   0.5000000   5.6315132  )
        16        Li     tau(  16) = (   0.2499989   0.7500011   5.3696537  )
        17        Li     tau(  17) = (   0.5000000  -0.0000000   4.1303454  )
        18        Li     tau(  18) = (   0.7500003   0.2499997   3.8684838  )
        19        Li     tau(  19) = (   0.5000000  -0.0000000   4.6245450  )
        20        Li     tau(  20) = (   0.7500000   0.2499999   4.3780532  )
        21        Li     tau(  21) = (   0.5000000  -0.0000000   5.1219491  )
        22        Li     tau(  22) = (   0.7499997   0.2500003   4.8754552  )
        23        Li     tau(  23) = (   0.5000000  -0.0000000   5.6315132  )
        24        Li     tau(  24) = (   0.7500011   0.2499989   5.3696537  )
        25        Li     tau(  25) = (   0.5000000   0.5000000   4.1303456  )
        26        Li     tau(  26) = (   0.7500003   0.7500003   3.8684838  )
        27        Li     tau(  27) = (   0.5000000   0.5000000   4.6245456  )
        28        Li     tau(  28) = (   0.7500000   0.7500000   4.3780532  )
        29        Li     tau(  29) = (   0.5000000   0.5000000   5.1219511  )
        30        Li     tau(  30) = (   0.7499997   0.7499997   4.8754552  )
        31        Li     tau(  31) = (   0.5000000   0.5000000   5.6315116  )
        32        Li     tau(  32) = (   0.7500011   0.7500011   5.3696537  )

     number of k points=    21  Marzari-Vanderbilt smearing, width (Ry)=  0.0100
                       cart. coord. in units 2pi/alat
        k(    1) = (   0.0000000   0.0000000   0.0000000), wk =   0.0200000
        k(    2) = (   0.0000000   0.1000000   0.0000000), wk =   0.0800000
        k(    3) = (   0.0000000   0.2000000   0.0000000), wk =   0.0800000
        k(    4) = (   0.0000000   0.3000000   0.0000000), wk =   0.0800000
        k(    5) = (   0.0000000   0.4000000   0.0000000), wk =   0.0800000
        k(    6) = (   0.0000000  -0.5000000   0.0000000), wk =   0.0400000
        k(    7) = (   0.1000000   0.1000000   0.0000000), wk =   0.0800000
        k(    8) = (   0.1000000   0.2000000   0.0000000), wk =   0.1600000
        k(    9) = (   0.1000000   0.3000000   0.0000000), wk =   0.1600000
        k(   10) = (   0.1000000   0.4000000   0.0000000), wk =   0.1600000
        k(   11) = (   0.1000000  -0.5000000   0.0000000), wk =   0.0800000
        k(   12) = (   0.2000000   0.2000000   0.0000000), wk =   0.0800000
        k(   13) = (   0.2000000   0.3000000   0.0000000), wk =   0.1600000
        k(   14) = (   0.2000000   0.4000000   0.0000000), wk =   0.1600000
        k(   15) = (   0.2000000  -0.5000000   0.0000000), wk =   0.0800000
        k(   16) = (   0.3000000   0.3000000   0.0000000), wk =   0.0800000
        k(   17) = (   0.3000000   0.4000000   0.0000000), wk =   0.1600000
        k(   18) = (   0.3000000  -0.5000000   0.0000000), wk =   0.0800000
        k(   19) = (   0.4000000   0.4000000   0.0000000), wk =   0.0800000
        k(   20) = (   0.4000000  -0.5000000   0.0000000), wk =   0.0800000
        k(   21) = (  -0.5000000  -0.5000000   0.0000000), wk =   0.0200000

     Dense  grid:  7944523 G-vectors     FFT dimensions: ( 120, 120,1125)

     Smooth grid:  2009183 G-vectors     FFT dimensions: (  75,  75, 720)

     Estimated max dynamical RAM per process >     121.22 MB

     Estimated total dynamical RAM >      31.64 GB

     Initial potential from superposition of free atoms

     starting charge      95.8525, renormalised to      96.0000

     negative rho (up, down):  3.611E-03 0.000E+00
     Starting wfcs are  160 randomized atomic wfcs
     Checking if some PAW data can be deallocated... 

     total cpu time spent up to now is        8.8 secs

     Self-consistent Calculation

     iteration #  1     ecut=    80.00 Ry     beta= 0.20
     Davidson diagonalization with overlap
     ethr =  1.00E-02,  avg # of iterations =  3.7

     negative rho (up, down):  1.095E-03 0.000E+00

     total cpu time spent up to now is       14.2 secs

     total energy              =    -481.36659009 Ry
     estimated scf accuracy    <       4.48180908 Ry

     iteration #  2     ecut=    80.00 Ry     beta= 0.20
     Davidson diagonalization with overlap
     ethr =  4.67E-03,  avg # of iterations =  1.1

     negative rho (up, down):  1.283E-04 0.000E+00

     total cpu time spent up to now is       17.7 secs

     total energy              =    -481.01882603 Ry
     estimated scf accuracy    <       3.07729123 Ry

     iteration #  3     ecut=    80.00 Ry     beta= 0.20
     Davidson diagonalization with overlap
     ethr =  3.21E-03,  avg # of iterations =  1.1

     negative rho (up, down):  1.087E-04 0.000E+00

     total cpu time spent up to now is       21.1 secs

     total energy              =    -481.18626814 Ry
     estimated scf accuracy    <       0.31786752 Ry

     iteration #  4     ecut=    80.00 Ry     beta= 0.20
     Davidson diagonalization with overlap
     ethr =  3.31E-04,  avg # of iterations =  4.0

     negative rho (up, down):  2.187E-05 0.000E+00

     total cpu time spent up to now is       25.6 secs

     total energy              =    -481.21757782 Ry
     estimated scf accuracy    <       1.17245538 Ry

     iteration #  5     ecut=    80.00 Ry     beta= 0.20
     Davidson diagonalization with overlap
     ethr =  3.31E-04,  avg # of iterations =  2.0

     negative rho (up, down):  2.673E-06 0.000E+00

     total cpu time spent up to now is       29.4 secs

     total energy              =    -481.21282546 Ry
     estimated scf accuracy    <       0.32958868 Ry

     iteration #  6     ecut=    80.00 Ry     beta= 0.20
     Davidson diagonalization with overlap
     ethr =  3.31E-04,  avg # of iterations =  1.7

     negative rho (up, down):  4.064E-06 0.000E+00

     total cpu time spent up to now is       33.2 secs

     total energy              =    -481.21751697 Ry
     estimated scf accuracy    <       0.05563572 Ry

     iteration #  7     ecut=    80.00 Ry     beta= 0.20
     Davidson diagonalization with overlap
     ethr =  5.80E-05,  avg # of iterations =  5.9

     negative rho (up, down):  1.811E-05 0.000E+00

     total cpu time spent up to now is       38.6 secs

     total energy              =    -481.26767287 Ry
     estimated scf accuracy    <       0.16091686 Ry

     iteration #  8     ecut=    80.00 Ry     beta= 0.20
     Davidson diagonalization with overlap
     ethr =  5.80E-05,  avg # of iterations =  3.3

     negative rho (up, down):  3.817E-04 0.000E+00

     total cpu time spent up to now is       42.8 secs

     total energy              =    -481.27037275 Ry
     estimated scf accuracy    <       0.88230093 Ry

     iteration #  9     ecut=    80.00 Ry     beta= 0.20
     Davidson diagonalization with overlap
     ethr =  5.80E-05,  avg # of iterations =  1.3

     negative rho (up, down):  1.579E-02 0.000E+00

     total cpu time spent up to now is       46.3 secs

     total energy              =    -481.26356399 Ry
     estimated scf accuracy    <       0.76872261 Ry

     iteration # 10     ecut=    80.00 Ry     beta= 0.20
     Davidson diagonalization with overlap
     ethr =  5.80E-05,  avg # of iterations =  1.0

     negative rho (up, down):  5.886E-02 0.000E+00

     total cpu time spent up to now is       49.7 secs

     total energy              =    -481.23602446 Ry
     estimated scf accuracy    <       0.61317326 Ry

     iteration # 11     ecut=    80.00 Ry     beta= 0.20
     Davidson diagonalization with overlap
     ethr =  5.80E-05,  avg # of iterations =  2.2

     negative rho (up, down):  5.223E-02 0.000E+00

     total cpu time spent up to now is       53.6 secs

     total energy              =    -481.24720184 Ry
     estimated scf accuracy    <       0.33794574 Ry

     iteration # 12     ecut=    80.00 Ry     beta= 0.20
     Davidson diagonalization with overlap
     ethr =  5.80E-05,  avg # of iterations =  1.0

     negative rho (up, down):  6.098E-02 0.000E+00

     total cpu time spent up to now is       57.2 secs

     total energy              =    -481.21335659 Ry
     estimated scf accuracy    <       0.61276925 Ry

     iteration # 13     ecut=    80.00 Ry     beta= 0.20
     Davidson diagonalization with overlap
     ethr =  5.80E-05,  avg # of iterations =  7.7

     negative rho (up, down):  6.602E-02 0.000E+00

     total cpu time spent up to now is       62.2 secs

     total energy              =    -481.22003786 Ry
     estimated scf accuracy    <       0.14897601 Ry

     iteration # 14     ecut=    80.00 Ry     beta= 0.20
     Davidson diagonalization with overlap
     ethr =  5.80E-05,  avg # of iterations =  1.1

     negative rho (up, down):  5.779E-02 0.000E+00

     total cpu time spent up to now is       65.7 secs

     total energy              =    -481.21527024 Ry
     estimated scf accuracy    <       0.09785960 Ry

     iteration # 15     ecut=    80.00 Ry     beta= 0.20
     Davidson diagonalization with overlap
     ethr =  5.80E-05,  avg # of iterations =  2.4

     negative rho (up, down):  6.564E-02 0.000E+00

     total cpu time spent up to now is       69.5 secs

     total energy              =    -481.21561259 Ry
     estimated scf accuracy    <       0.02226691 Ry

     iteration # 16     ecut=    80.00 Ry     beta= 0.20
     Davidson diagonalization with overlap
     ethr =  2.32E-05,  avg # of iterations =  3.4

     negative rho (up, down):  4.826E-02 0.000E+00

     total cpu time spent up to now is       73.5 secs

     total energy              =    -481.21025778 Ry
     estimated scf accuracy    <       0.02563715 Ry

     iteration # 17     ecut=    80.00 Ry     beta= 0.20
     Davidson diagonalization with overlap
     c_bands:  1 eigenvalues not converged
     c_bands:  1 eigenvalues not converged
     c_bands:  1 eigenvalues not converged
     c_bands:  1 eigenvalues not converged
     c_bands:  1 eigenvalues not converged
     c_bands:  1 eigenvalues not converged
     ethr =  2.32E-05,  avg # of iterations = 13.7

     negative rho (up, down):  6.326E-02 0.000E+00

     total cpu time spent up to now is       80.6 secs

     total energy              =    -481.21017996 Ry
     estimated scf accuracy    <       0.04168237 Ry

     iteration # 18     ecut=    80.00 Ry     beta= 0.20
     Davidson diagonalization with overlap
     ethr =  2.32E-05,  avg # of iterations =  5.6

     negative rho (up, down):  6.384E-02 0.000E+00

     total cpu time spent up to now is       85.3 secs

     total energy              =    -481.21332845 Ry
     estimated scf accuracy    <       0.00673669 Ry

     iteration # 19     ecut=    80.00 Ry     beta= 0.20
     Davidson diagonalization with overlap
     ethr =  7.02E-06,  avg # of iterations =  2.2

     negative rho (up, down):  4.841E-02 0.000E+00

     total cpu time spent up to now is       89.2 secs

     total energy              =    -481.21276463 Ry
     estimated scf accuracy    <       0.00369797 Ry

     iteration # 20     ecut=    80.00 Ry     beta= 0.20
     Davidson diagonalization with overlap
     ethr =  3.85E-06,  avg # of iterations =  9.1

     negative rho (up, down):  5.016E-02 0.000E+00

     total cpu time spent up to now is       94.7 secs

     total energy              =    -481.21275361 Ry
     estimated scf accuracy    <       0.00290197 Ry

     iteration # 21     ecut=    80.00 Ry     beta= 0.20
     Davidson diagonalization with overlap
     ethr =  3.02E-06,  avg # of iterations =  7.4

     negative rho (up, down):  3.812E-02 0.000E+00

     total cpu time spent up to now is       99.6 secs

     total energy              =    -481.21196445 Ry
     estimated scf accuracy    <       0.00233307 Ry

     iteration # 22     ecut=    80.00 Ry     beta= 0.20
     Davidson diagonalization with overlap
     c_bands:  1 eigenvalues not converged
     ethr =  2.43E-06,  avg # of iterations =  9.1

     negative rho (up, down):  4.114E-02 0.000E+00

     total cpu time spent up to now is      105.1 secs

     total energy              =    -481.21205072 Ry
     estimated scf accuracy    <       0.00131302 Ry

     iteration # 23     ecut=    80.00 Ry     beta= 0.20
     Davidson diagonalization with overlap
     ethr =  1.37E-06,  avg # of iterations =  8.8

     negative rho (up, down):  4.335E-02 0.000E+00

     total cpu time spent up to now is      110.3 secs

     total energy              =    -481.21241236 Ry
     estimated scf accuracy    <       0.00108643 Ry

     iteration # 24     ecut=    80.00 Ry     beta= 0.20
     Davidson diagonalization with overlap
     c_bands:  1 eigenvalues not converged
     c_bands:  1 eigenvalues not converged
     ethr =  1.13E-06,  avg # of iterations = 12.0

     negative rho (up, down):  4.013E-02 0.000E+00

     total cpu time spent up to now is      116.4 secs

     total energy              =    -481.21237615 Ry
     estimated scf accuracy    <       0.00068156 Ry

     iteration # 25     ecut=    80.00 Ry     beta= 0.20
     Davidson diagonalization with overlap
     c_bands:  1 eigenvalues not converged
     ethr =  7.10E-07,  avg # of iterations = 11.2

     negative rho (up, down):  2.763E-02 0.000E+00

     total cpu time spent up to now is      122.3 secs

     total energy              =    -481.21195489 Ry
     estimated scf accuracy    <       0.00063244 Ry

     iteration # 26     ecut=    80.00 Ry     beta= 0.20
     Davidson diagonalization with overlap
     ethr =  6.59E-07,  avg # of iterations = 10.8

     negative rho (up, down):  2.641E-02 0.000E+00

     total cpu time spent up to now is      128.5 secs

     total energy              =    -481.21191966 Ry
     estimated scf accuracy    <       0.00059284 Ry

     iteration # 27     ecut=    80.00 Ry     beta= 0.20
     Davidson diagonalization with overlap
     ethr =  6.18E-07,  avg # of iterations =  5.6

     negative rho (up, down):  7.021E-03 0.000E+00

     total cpu time spent up to now is      132.9 secs

     total energy              =    -481.21188925 Ry
     estimated scf accuracy    <       0.00008756 Ry

     iteration # 28     ecut=    80.00 Ry     beta= 0.20
     Davidson diagonalization with overlap
     ethr =  9.12E-08,  avg # of iterations =  9.2

     negative rho (up, down):  5.994E-03 0.000E+00

     total cpu time spent up to now is      138.7 secs

     total energy              =    -481.21190933 Ry
     estimated scf accuracy    <       0.00002154 Ry

     iteration # 29     ecut=    80.00 Ry     beta= 0.20
     Davidson diagonalization with overlap
     ethr =  2.24E-08,  avg # of iterations =  3.8

     negative rho (up, down):  2.411E-03 0.000E+00

     total cpu time spent up to now is      142.9 secs

     total energy              =    -481.21191200 Ry
     estimated scf accuracy    <       0.00000604 Ry

     iteration # 30     ecut=    80.00 Ry     beta= 0.20
     Davidson diagonalization with overlap
     ethr =  6.29E-09,  avg # of iterations =  8.1

     negative rho (up, down):  1.426E-03 0.000E+00

     total cpu time spent up to now is      148.5 secs

     total energy              =    -481.21190899 Ry
     estimated scf accuracy    <       0.00000342 Ry

     iteration # 31     ecut=    80.00 Ry     beta= 0.20
     Davidson diagonalization with overlap
     ethr =  3.56E-09,  avg # of iterations =  2.3

     negative rho (up, down):  5.791E-04 0.000E+00

     total cpu time spent up to now is      152.4 secs

     total energy              =    -481.21190803 Ry
     estimated scf accuracy    <       0.00000165 Ry

     iteration # 32     ecut=    80.00 Ry     beta= 0.20
     Davidson diagonalization with overlap
     ethr =  1.72E-09,  avg # of iterations =  7.0

     negative rho (up, down):  4.204E-04 0.000E+00

     total cpu time spent up to now is      157.5 secs

     total energy              =    -481.21191138 Ry
     estimated scf accuracy    <       0.00000103 Ry

     iteration # 33     ecut=    80.00 Ry     beta= 0.20
     Davidson diagonalization with overlap
     ethr =  1.07E-09,  avg # of iterations =  2.2

     negative rho (up, down):  4.492E-04 0.000E+00

     total cpu time spent up to now is      161.3 secs

     End of self-consistent calculation

          k = 0.0000 0.0000 0.0000 (251451 PWs)   bands (ev):

   -49.3978 -49.3978 -49.3964 -49.3964 -49.3963 -49.3963 -49.3950 -49.3949
   -48.6273 -48.6267 -48.6207 -48.6207 -48.6206 -48.6206 -48.6192 -48.6191
   -48.6132 -48.6078 -48.6076 -48.6076 -48.6075 -48.6075 -48.6061 -48.6060
   -48.5978 -48.5975 -48.5975 -48.5975 -48.5975 -48.5960 -48.5960 -48.5877
    -5.5760  -5.2274  -4.6606  -3.8892  -3.1676  -3.1676  -3.1676  -3.1676
    -2.9658  -2.8446  -2.8446  -2.8446  -2.8446  -2.3605  -2.3605  -2.3605
    -2.3605  -2.0170  -1.8991  -1.8991  -1.8991  -1.8991  -1.7305  -1.7305
    -1.2662  -1.2662  -1.0777  -0.5153  -0.5153   0.0225   0.2689   0.2689
     0.2690   0.2690   0.4674   0.4674   0.6344   0.7014   0.7189   0.8835

          k = 0.0000 0.1000 0.0000 (251353 PWs)   bands (ev):

   -49.3978 -49.3978 -49.3964 -49.3964 -49.3963 -49.3963 -49.3950 -49.3950
   -48.6271 -48.6265 -48.6208 -48.6207 -48.6206 -48.6205 -48.6192 -48.6191
   -48.6131 -48.6078 -48.6078 -48.6076 -48.6075 -48.6075 -48.6061 -48.6061
   -48.5985 -48.5978 -48.5975 -48.5975 -48.5962 -48.5961 -48.5960 -48.5878
    -5.5523  -5.2037  -4.6367  -3.8655  -3.6299  -3.2953  -3.1452  -3.1452
    -2.9420  -2.8207  -2.8207  -2.7779  -2.6530  -2.3434  -2.3340  -2.3339
    -2.1744  -1.9926  -1.9286  -1.8690  -1.8690  -1.7958  -1.7958  -1.7629
    -1.3428  -1.3428  -1.0532  -0.6176  -0.6176   0.0454   0.2148   0.2887
     0.2887   0.2905   0.2905   0.3080   0.6649   0.7328   0.7499   0.9145

          k = 0.0000 0.2000 0.0000 (251291 PWs)   bands (ev):

   -49.3977 -49.3977 -49.3965 -49.3965 -49.3962 -49.3962 -49.3951 -49.3951
   -48.6267 -48.6262 -48.6213 -48.6212 -48.6205 -48.6204 -48.6193 -48.6192
   -48.6128 -48.6082 -48.6078 -48.6076 -48.6075 -48.6074 -48.6062 -48.6062
   -48.5991 -48.5980 -48.5974 -48.5974 -48.5962 -48.5961 -48.5948 -48.5882
    -5.4812  -5.1323  -4.5652  -4.0424  -3.7944  -3.7003  -3.1582  -3.0781
    -3.0781  -2.8709  -2.7491  -2.7491  -2.4750  -2.2545  -2.2545  -2.0868
    -1.9643  -1.9643  -1.9203  -1.8311  -1.7859  -1.7786  -1.7786  -1.5633
    -1.5363  -1.5363  -0.9816  -0.8624  -0.8624  -0.0755  -0.0755   0.1105
     0.2283   0.2610   0.3470   0.3470   0.7545   0.8265   0.8426   1.0066

          k = 0.0000 0.3000 0.0000 (251303 PWs)   bands (ev):

   -49.3975 -49.3975 -49.3967 -49.3966 -49.3961 -49.3961 -49.3953 -49.3952
   -48.6260 -48.6255 -48.6221 -48.6220 -48.6204 -48.6202 -48.6195 -48.6194
   -48.6122 -48.6090 -48.6078 -48.6076 -48.6073 -48.6072 -48.6064 -48.6063
   -48.5993 -48.5982 -48.5972 -48.5972 -48.5963 -48.5963 -48.5934 -48.5888
    -5.3625  -5.0133  -4.4461  -4.4048  -4.0587  -3.6766  -3.5037  -2.9679
    -2.9679  -2.7778  -2.7542  -2.6313  -2.6313  -2.1842  -2.1842  -2.1234
    -2.1234  -1.9652  -1.8039  -1.7822  -1.7822  -1.6286  -1.6286  -1.4782
    -1.3403  -1.2816  -1.1573  -1.1573  -0.8699  -0.4688  -0.4688   0.2015
     0.2181   0.2886   0.4410   0.4410   0.8903   0.9783   0.9935   1.1491

          k = 0.0000 0.4000 0.0000 (251207 PWs)   bands (ev):

   -49.3973 -49.3973 -49.3969 -49.3969 -49.3959 -49.3959 -49.3955 -49.3954
   -48.6251 -48.6247 -48.6230 -48.6229 -48.6201 -48.6200 -48.6197 -48.6196
   -48.6115 -48.6098 -48.6077 -48.6077 -48.6071 -48.6070 -48.6066 -48.6065
   -48.5991 -48.5985 -48.5970 -48.5970 -48.5965 -48.5965 -48.5920 -48.5897
    -5.1959  -4.8465  -4.7175  -4.3693  -4.2797  -3.8074  -3.5132  -3.0590
    -2.8170  -2.8170  -2.5953  -2.4696  -2.4696  -2.4143  -2.4143  -2.1821
    -2.0346  -2.0346  -1.9427  -1.9427  -1.6516  -1.4502  -1.4502  -1.4197
    -1.4197  -1.3462  -0.8344  -0.8344  -0.8265  -0.8215  -0.7386   0.2373
     0.2831   0.3796   0.5653   0.5653   0.8110   0.9056   1.1916   1.2154

          k = 0.0000-0.5000 0.0000 (251168 PWs)   bands (ev):

   -49.3971 -49.3971 -49.3971 -49.3971 -49.3957 -49.3957 -49.3957 -49.3956
   -48.6241 -48.6241 -48.6238 -48.6238 -48.6199 -48.6199 -48.6198 -48.6198
   -48.6107 -48.6107 -48.6077 -48.6077 -48.6069 -48.6068 -48.6068 -48.6068
   -48.5989 -48.5988 -48.5968 -48.5968 -48.5968 -48.5967 -48.5907 -48.5907
    -4.9810  -4.9810  -4.6319  -4.6319  -4.0666  -4.0665  -3.3062  -3.3062
    -2.6298  -2.6298  -2.6298  -2.6298  -2.4005  -2.4005  -2.2682  -2.2682
    -2.2682  -2.2682  -1.7161  -1.7160  -1.7160  -1.7160  -1.4830  -1.4830
    -1.1539  -1.1539  -1.1539  -1.1539  -0.6585  -0.6585  -0.1608  -0.1608
     0.5237   0.5237   0.5364   0.5364   0.7116   0.7116   0.7116   0.7116

          k = 0.1000 0.1000 0.0000 (251358 PWs)   bands (ev):

   -49.3978 -49.3977 -49.3964 -49.3964 -49.3963 -49.3963 -49.3950 -49.3950
   -48.6270 -48.6264 -48.6208 -48.6208 -48.6207 -48.6207 -48.6192 -48.6191
   -48.6130 -48.6078 -48.6078 -48.6077 -48.6075 -48.6075 -48.6062 -48.6061
   -48.5985 -48.5984 -48.5979 -48.5963 -48.5962 -48.5962 -48.5959 -48.5879
    -5.5287  -5.1799  -4.6128  -3.8417  -3.6070  -3.6070  -3.2714  -3.2714
    -2.9180  -2.7520  -2.7520  -2.6311  -2.6311  -2.3194  -2.3194  -2.1458
    -2.1458  -2.0227  -1.9680  -1.9008  -1.9008  -1.7317  -1.7317  -1.6682
    -1.5925  -1.2039  -1.0286  -0.9109  -0.4532  -0.0654   0.0686   0.2332
     0.2332   0.3295   0.3295   0.5294   0.6953   0.7642   0.7811   0.9456

          k = 0.1000 0.2000 0.0000 (251301 PWs)   bands (ev):

   -49.3977 -49.3976 -49.3965 -49.3964 -49.3963 -49.3962 -49.3951 -49.3951
   -48.6265 -48.6260 -48.6213 -48.6212 -48.6207 -48.6206 -48.6194 -48.6193
   -48.6126 -48.6082 -48.6078 -48.6076 -48.6075 -48.6074 -48.6063 -48.6062
   -48.5990 -48.5983 -48.5980 -48.5965 -48.5962 -48.5958 -48.5948 -48.5883
    -5.4575  -5.1085  -4.5412  -4.0192  -3.7705  -3.6764  -3.5386  -3.1997
    -3.1329  -2.8467  -2.6748  -2.5661  -2.4477  -2.2957  -2.2480  -2.0656
    -2.0601  -1.8955  -1.8878  -1.8177  -1.8049  -1.7572  -1.6736  -1.6382
    -1.5336  -1.2493  -1.2171  -0.9564  -0.5113  -0.4437   0.1350   0.1999
     0.2478   0.2816   0.2870   0.3931   0.7850   0.8581   0.8739   1.0379

          k = 0.1000 0.3000 0.0000 (251266 PWs)   bands (ev):

   -49.3975 -49.3975 -49.3966 -49.3966 -49.3961 -49.3961 -49.3953 -49.3953
   -48.6258 -48.6254 -48.6220 -48.6219 -48.6205 -48.6204 -48.6195 -48.6194
   -48.6121 -48.6089 -48.6078 -48.6076 -48.6074 -48.6072 -48.6065 -48.6064
   -48.5992 -48.5983 -48.5981 -48.5968 -48.5961 -48.5958 -48.5934 -48.5889
    -5.3388  -4.9895  -4.4220  -4.3814  -4.0347  -3.6525  -3.4787  -3.4255
    -3.0812  -2.7515  -2.7296  -2.5752  -2.5469  -2.4601  -2.1860  -2.1312
    -1.9365  -1.9181  -1.7892  -1.7784  -1.6809  -1.5751  -1.4825  -1.4578
    -1.3657  -1.3093  -1.2558  -0.8435  -0.8309  -0.7170  -0.2482   0.2284
     0.2365   0.3107   0.3722   0.4960   0.7711   0.9213   1.0099   1.0252

          k = 0.1000 0.4000 0.0000 (251294 PWs)   bands (ev):

   -49.3973 -49.3973 -49.3968 -49.3968 -49.3959 -49.3959 -49.3955 -49.3955
   -48.6250 -48.6246 -48.6229 -48.6228 -48.6203 -48.6202 -48.6198 -48.6197
   -48.6115 -48.6098 -48.6077 -48.6076 -48.6072 -48.6070 -48.6067 -48.6066
   -48.5991 -48.5986 -48.5978 -48.5972 -48.5960 -48.5958 -48.5920 -48.5897
    -5.1722  -4.8227  -4.6940  -4.3453  -4.2555  -3.7827  -3.4887  -3.2691
    -3.0335  -2.9172  -2.8382  -2.5701  -2.4642  -2.3697  -2.3176  -2.1549
    -1.9730  -1.9616  -1.8788  -1.7210  -1.6251  -1.5695  -1.4930  -1.3161
    -1.2649  -1.1719  -0.9926  -0.8020  -0.7972  -0.7104  -0.6462   0.2670
     0.3009   0.4019   0.4804   0.6327   0.7054   0.8229   0.9338   1.2459

          k = 0.1000-0.5000 0.0000 (251178 PWs)   bands (ev):

   -49.3971 -49.3971 -49.3971 -49.3970 -49.3957 -49.3957 -49.3957 -49.3957
   -48.6240 -48.6240 -48.6237 -48.6237 -48.6200 -48.6200 -48.6199 -48.6199
   -48.6106 -48.6106 -48.6077 -48.6077 -48.6070 -48.6070 -48.6068 -48.6068
   -48.5989 -48.5989 -48.5975 -48.5975 -48.5959 -48.5959 -48.5908 -48.5908
    -4.9574  -4.9574  -4.6080  -4.6080  -4.0421  -4.0421  -3.2813  -3.2813
    -3.0719  -3.0719  -2.7102  -2.7102  -2.3745  -2.3745  -2.1466  -2.1466
    -2.1458  -2.1458  -1.7811  -1.7811  -1.4710  -1.4710  -1.4549  -1.4549
    -1.2598  -1.2598  -0.9858  -0.9858  -0.6279  -0.6279  -0.1398  -0.1398
     0.5407   0.5407   0.5593   0.5594   0.5985   0.5985   0.7921   0.7922

          k = 0.2000 0.2000 0.0000 (251288 PWs)   bands (ev):

   -49.3976 -49.3975 -49.3964 -49.3964 -49.3963 -49.3963 -49.3952 -49.3952
   -48.6261 -48.6257 -48.6211 -48.6211 -48.6210 -48.6210 -48.6195 -48.6194
   -48.6123 -48.6081 -48.6080 -48.6078 -48.6074 -48.6074 -48.6064 -48.6063
   -48.5989 -48.5989 -48.5982 -48.5969 -48.5955 -48.5948 -48.5948 -48.5886
    -5.3864  -5.0371  -4.4694  -3.9498  -3.9498  -3.6989  -3.6046  -3.6046
    -3.0571  -3.0571  -2.7747  -2.6291  -2.3661  -2.3661  -2.2367  -2.0033
    -2.0033  -1.8218  -1.7288  -1.7288  -1.6698  -1.6698  -1.6151  -1.4813
    -1.4445  -1.4445  -1.0172  -0.8823  -0.8298  -0.2668   0.0452   0.2053
     0.3046   0.3046   0.3421   0.3421   0.7153   0.8753   0.9521   0.9674

          k = 0.2000 0.3000 0.0000 (251223 PWs)   bands (ev):

   -49.3974 -49.3974 -49.3965 -49.3965 -49.3962 -49.3962 -49.3954 -49.3954
   -48.6255 -48.6251 -48.6218 -48.6217 -48.6209 -48.6208 -48.6197 -48.6196
   -48.6118 -48.6087 -48.6078 -48.6077 -48.6075 -48.6073 -48.6067 -48.6064
   -48.5991 -48.5987 -48.5984 -48.5973 -48.5953 -48.5949 -48.5935 -48.5892
    -5.2677  -4.9179  -4.3499  -4.3113  -3.9629  -3.8346  -3.5802  -3.4855
    -3.4041  -2.9429  -2.9315  -2.6730  -2.6564  -2.5630  -2.2309  -1.9595
    -1.9035  -1.8504  -1.7027  -1.6083  -1.5215  -1.4303  -1.3985  -1.2973
    -1.2161  -1.1908  -1.1796  -0.9836  -0.7658  -0.3455  -0.3051   0.2890
     0.3068   0.3752   0.3922   0.4376   0.6286   1.0139   1.1052   1.1201

          k = 0.2000 0.4000 0.0000 (251213 PWs)   bands (ev):

   -49.3972 -49.3972 -49.3967 -49.3967 -49.3960 -49.3960 -49.3956 -49.3956
   -48.6246 -48.6243 -48.6227 -48.6226 -48.6206 -48.6205 -48.6200 -48.6199
   -48.6112 -48.6095 -48.6077 -48.6076 -48.6075 -48.6071 -48.6069 -48.6066
   -48.5991 -48.5986 -48.5984 -48.5977 -48.5951 -48.5949 -48.5922 -48.5900
    -5.1013  -4.7510  -4.6234  -4.2735  -4.1829  -3.7089  -3.6745  -3.4155
    -3.3200  -3.2256  -2.9572  -2.8558  -2.7569  -2.4950  -2.2680  -2.0736
    -2.0433  -1.7738  -1.5462  -1.5262  -1.4917  -1.4510  -1.3122  -1.2263
    -1.0952  -1.0945  -0.7466  -0.7189  -0.7103  -0.6266  -0.5579   0.3497
     0.3549   0.4658   0.4968   0.5580   0.6349   0.7837   0.8417   1.0144

          k = 0.2000-0.5000 0.0000 (251204 PWs)   bands (ev):

   -49.3970 -49.3970 -49.3970 -49.3969 -49.3958 -49.3958 -49.3958 -49.3958
   -48.6237 -48.6237 -48.6235 -48.6235 -48.6203 -48.6203 -48.6202 -48.6202
   -48.6104 -48.6104 -48.6076 -48.6076 -48.6073 -48.6073 -48.6069 -48.6069
   -48.5989 -48.5989 -48.5981 -48.5981 -48.5950 -48.5950 -48.5910 -48.5910
    -4.8866  -4.8866  -4.5362  -4.5362  -3.9690  -3.9690  -3.4707  -3.4707
    -3.2067  -3.2067  -3.1094  -3.1093  -2.5350  -2.5350  -2.2968  -2.2968
    -1.8056  -1.8056  -1.6289  -1.6289  -1.3713  -1.3713  -1.2704  -1.2704
    -1.0437  -1.0437  -0.8421  -0.8421  -0.5363  -0.5363  -0.0822  -0.0822
     0.5835   0.5835   0.5912   0.5912   0.6256   0.6256   0.6842   0.6842

          k = 0.3000 0.3000 0.0000 (251218 PWs)   bands (ev):

   -49.3972 -49.3972 -49.3964 -49.3964 -49.3964 -49.3964 -49.3956 -49.3955
   -48.6249 -48.6245 -48.6216 -48.6215 -48.6215 -48.6214 -48.6200 -48.6199
   -48.6114 -48.6085 -48.6084 -48.6077 -48.6074 -48.6073 -48.6070 -48.6066
   -48.5990 -48.5990 -48.5985 -48.5978 -48.5948 -48.5936 -48.5936 -48.5898
    -5.1492  -4.7986  -4.2298  -4.1947  -4.1947  -3.8434  -3.8434  -3.4603
    -3.2800  -3.2800  -3.2769  -2.9047  -2.5427  -2.5427  -2.5360  -2.3103
    -1.7079  -1.7079  -1.5800  -1.5406  -1.3069  -1.3069  -1.1704  -1.0608
    -1.0608  -1.0575  -1.0575  -0.7066  -0.6438  -0.6424   0.0433   0.2086
     0.3644   0.3644   0.4259   0.4754   0.4754   0.8512   1.1614   1.2636

          k = 0.3000 0.4000 0.0000 (251078 PWs)   bands (ev):

   -49.3970 -49.3970 -49.3966 -49.3966 -49.3962 -49.3962 -49.3957 -49.3957
   -48.6241 -48.6238 -48.6223 -48.6222 -48.6212 -48.6211 -48.6204 -48.6203
   -48.6107 -48.6092 -48.6081 -48.6076 -48.6074 -48.6073 -48.6072 -48.6068
   -48.5990 -48.5988 -48.5987 -48.5982 -48.5944 -48.5938 -48.5924 -48.5905
    -4.9828  -4.6316  -4.5060  -4.1539  -4.0622  -4.0321  -3.6769  -3.5862
    -3.5717  -3.2940  -3.2060  -3.1073  -2.8307  -2.6206  -2.3714  -2.3619
    -1.9394  -1.8571  -1.5105  -1.4178  -1.1972  -1.0775  -1.0664  -0.9670
    -0.9005  -0.8436  -0.6670  -0.6332  -0.5691  -0.4912  -0.2290   0.3506
     0.4122   0.4373   0.4953   0.5601   0.5954   0.7593   0.7955   1.1114

          k = 0.3000-0.5000 0.0000 (251026 PWs)   bands (ev):

   -49.3968 -49.3968 -49.3968 -49.3968 -49.3960 -49.3960 -49.3960 -49.3959
   -48.6232 -48.6232 -48.6231 -48.6230 -48.6208 -48.6208 -48.6207 -48.6207
   -48.6100 -48.6100 -48.6077 -48.6077 -48.6075 -48.6075 -48.6070 -48.6070
   -48.5989 -48.5989 -48.5985 -48.5985 -48.5941 -48.5941 -48.5914 -48.5914
    -4.7686  -4.7686  -4.4167  -4.4167  -3.8473  -3.8473  -3.8240  -3.8240
    -3.4641  -3.4641  -3.0831  -3.0831  -2.8870  -2.8870  -2.1687  -2.1687
    -2.1324  -2.1324  -1.2614  -1.2614  -1.2341  -1.2341  -1.0987  -1.0987
    -0.7362  -0.7362  -0.5654  -0.5654  -0.3844  -0.3844  -0.0117  -0.0117
     0.4565   0.4565   0.6174   0.6174   0.7013   0.7013   0.7268   0.7268

          k = 0.4000 0.4000 0.0000 (251000 PWs)   bands (ev):

   -49.3968 -49.3968 -49.3964 -49.3964 -49.3964 -49.3964 -49.3959 -49.3959
   -48.6234 -48.6232 -48.6219 -48.6219 -48.6218 -48.6218 -48.6209 -48.6208
   -48.6101 -48.6088 -48.6087 -48.6078 -48.6075 -48.6073 -48.6073 -48.6069
   -48.5989 -48.5989 -48.5988 -48.5985 -48.5938 -48.5928 -48.5928 -48.5911
    -4.8169  -4.4644  -4.3417  -4.3417  -3.9869  -3.9869  -3.8935  -3.8739
    -3.5122  -3.4150  -3.4150  -3.1253  -2.9308  -2.6551  -2.6551  -2.2022
    -2.1645  -1.7543  -1.7543  -1.2535  -1.2464  -0.8721  -0.8721  -0.7362
    -0.5919  -0.5919  -0.3853  -0.3853  -0.3346  -0.3175  -0.2729   0.4484
     0.4484   0.4762   0.4882   0.4934   0.6531   0.6531   0.7132   1.2030

          k = 0.4000-0.5000 0.0000 (250894 PWs)   bands (ev):

   -49.3966 -49.3966 -49.3966 -49.3966 -49.3962 -49.3962 -49.3962 -49.3961
   -48.6227 -48.6226 -48.6225 -48.6225 -48.6214 -48.6214 -48.6213 -48.6213
   -48.6095 -48.6095 -48.6083 -48.6083 -48.6074 -48.6074 -48.6071 -48.6071
   -48.5989 -48.5989 -48.5988 -48.5987 -48.5933 -48.5932 -48.5919 -48.5919
    -4.6032  -4.6032  -4.2495  -4.2495  -4.1308  -4.1308  -3.7728  -3.7728
    -3.6775  -3.6775  -3.1962  -3.1962  -2.9114  -2.9113  -2.4320  -2.4320
    -1.9928  -1.9928  -1.5228  -1.5228  -1.0484  -1.0484  -0.6202  -0.6202
    -0.5802  -0.5802  -0.2132  -0.2132  -0.1746  -0.1746   0.0007   0.0007
     0.4192   0.4193   0.5494   0.5494   0.6600   0.6600   0.8513   0.8513

          k =-0.5000-0.5000 0.0000 (250732 PWs)   bands (ev):

   -49.3964 -49.3964 -49.3964 -49.3964 -49.3964 -49.3964 -49.3964 -49.3963
   -48.6220 -48.6220 -48.6220 -48.6220 -48.6219 -48.6219 -48.6219 -48.6219
   -48.6089 -48.6089 -48.6089 -48.6089 -48.6073 -48.6073 -48.6072 -48.6072
   -48.5989 -48.5989 -48.5989 -48.5988 -48.5925 -48.5925 -48.5925 -48.5925
    -4.3906  -4.3906  -4.3906  -4.3906  -4.0348  -4.0348  -4.0348  -4.0347
    -3.4602  -3.4602  -3.4602  -3.4602  -2.6934  -2.6934  -2.6934  -2.6934
    -1.7742  -1.7742  -1.7742  -1.7742  -0.8273  -0.8273  -0.8273  -0.8273
    -0.1805  -0.1805  -0.1805  -0.1805   0.0733   0.0733   0.0733   0.0733
     0.2822   0.2822   0.2822   0.2822   1.0143   1.0143   1.0143   1.0143

     the Fermi energy is    -2.0982 ev

!    total energy              =    -481.21191574 Ry
     total all-electron energy =      -481.212176 Ry
     estimated scf accuracy    <       0.00000065 Ry
     smearing contrib. (-TS)   =      -0.00009434 Ry
     internal energy E=F+TS    =    -481.21182140 Ry

     The total energy is F=E-TS. E is the sum of the following terms:
     one-electron contribution =   -9154.39388002 Ry
     hartree contribution      =    4527.37031008 Ry
     xc contribution           =    -114.68477886 Ry
     ewald contribution        =    4257.67435971 Ry
     one-center paw contrib.   =       2.82216768 Ry

     convergence has been achieved in  33 iterations

     Forces acting on atoms (cartesian axes, Ry/au):

     atom    1 type  1   force =     0.00000000    0.00000000    0.00005876
     atom    2 type  1   force =     0.00000089    0.00000089    0.00010317
     atom    3 type  1   force =     0.00000000    0.00000000   -0.00044220
     atom    4 type  1   force =     0.00000024    0.00000024   -0.00046284
     atom    5 type  1   force =     0.00000000    0.00000000    0.00047140
     atom    6 type  1   force =     0.00000133    0.00000133    0.00044278
     atom    7 type  1   force =     0.00000000    0.00000000   -0.00009836
     atom    8 type  1   force =     0.00000135    0.00000135   -0.00006687
     atom    9 type  1   force =     0.00000000    0.00000000    0.00005728
     atom   10 type  1   force =     0.00000089   -0.00000089    0.00010317
     atom   11 type  1   force =     0.00000000    0.00000000   -0.00044101
     atom   12 type  1   force =     0.00000024   -0.00000024   -0.00046284
     atom   13 type  1   force =     0.00000000    0.00000000    0.00046633
     atom   14 type  1   force =     0.00000133   -0.00000133    0.00044278
     atom   15 type  1   force =     0.00000000    0.00000000   -0.00010143
     atom   16 type  1   force =     0.00000135   -0.00000135   -0.00006687
     atom   17 type  1   force =     0.00000000    0.00000000    0.00005728
     atom   18 type  1   force =    -0.00000089    0.00000089    0.00010317
     atom   19 type  1   force =     0.00000000    0.00000000   -0.00044101
     atom   20 type  1   force =    -0.00000024    0.00000024   -0.00046284
     atom   21 type  1   force =     0.00000000    0.00000000    0.00046633
     atom   22 type  1   force =    -0.00000133    0.00000133    0.00044278
     atom   23 type  1   force =     0.00000000    0.00000000   -0.00010143
     atom   24 type  1   force =    -0.00000135    0.00000135   -0.00006687
     atom   25 type  1   force =     0.00000000    0.00000000    0.00006248
     atom   26 type  1   force =    -0.00000089   -0.00000089    0.00010317
     atom   27 type  1   force =     0.00000000    0.00000000   -0.00044080
     atom   28 type  1   force =    -0.00000024   -0.00000024   -0.00046284
     atom   29 type  1   force =     0.00000000    0.00000000    0.00046144
     atom   30 type  1   force =    -0.00000133   -0.00000133    0.00044278
     atom   31 type  1   force =     0.00000000    0.00000000   -0.00010002
     atom   32 type  1   force =    -0.00000135   -0.00000135   -0.00006687

     Total force =     0.001845     Total SCF correction =     0.000457
     SCF correction compared to forces is large: reduce conv_thr to get better values

     BFGS Geometry Optimization
     Energy error            =      3.4E-06 Ry
     Gradient error          =      4.7E-04 Ry/Bohr

     number of scf cycles    =   1
     number of bfgs steps    =   0

     energy             new  =    -481.2119157402 Ry

     new trust radius        =       0.0004714020 bohr
     new conv_thr            =       0.0000010000 Ry


ATOMIC_POSITIONS (angstrom)
Li              -0.0000000700       -0.0000000700       28.3768009828
Li               1.7175767011        1.7175767011       26.5777472742
Li              -0.0000000700       -0.0000000700       31.7718408491
Li               1.7175778174        1.7175778174       30.0783483842
Li              -0.0000000700       -0.0000000700       35.1896257452
Li               1.7175809645        1.7175809645       33.4961351890
Li              -0.0000000600       -0.0000000600       38.6902091396
Li               1.7175709747        1.7175709747       36.8911631556
Li              -0.0000000700        3.4351561600       28.3767935418
Li               1.7175767011        5.1527356289       26.5777472942
Li              -0.0000000700        3.4351561700       31.7718360286
Li               1.7175778174        5.1527345126       30.0783483742
Li              -0.0000000700        3.4351561800       35.1896374998
Li               1.7175809645        5.1527313755       33.4961351890
Li              -0.0000000600        3.4351561700       38.6902015549
Li               1.7175709747        5.1527413653       36.8911631656
Li               3.4351561600       -0.0000000700       28.3767935418
Li               5.1527356289        1.7175767011       26.5777472942
Li               3.4351561700       -0.0000000700       31.7718360286
Li               5.1527345126        1.7175778174       30.0783483742
Li               3.4351561800       -0.0000000700       35.1896374998
Li               5.1527313755        1.7175809645       33.4961351890
Li               3.4351561700       -0.0000000600       38.6902015549
Li               5.1527413653        1.7175709747       36.8911631656
Li               3.4351561600        3.4351561600       28.3767981228
Li               5.1527356289        5.1527356289       26.5777473042
Li               3.4351561700        3.4351561700       31.7718402700
Li               5.1527345126        5.1527345126       30.0783483742
Li               3.4351561800        3.4351561800       35.1896488338
Li               5.1527313755        5.1527313755       33.4961351890
Li               3.4351561700        3.4351561700       38.6901910942
Li               5.1527413653        5.1527413653       36.8911631656


     Message from routine punch:
     Nothing written, as per user request (disk_io='none')
     NEW-OLD atomic charge density approx. for the potential

     negative rho (up, down):  4.495E-04 0.000E+00

     total cpu time spent up to now is      162.3 secs

     Self-consistent Calculation

     iteration #  1     ecut=    80.00 Ry     beta= 0.20
     Davidson diagonalization with overlap
     ethr =  1.00E-06,  avg # of iterations =  5.8

     Threshold (ethr) on eigenvalues was too large:
     Diagonalizing with lowered threshold

     Davidson diagonalization with overlap
     ethr =  1.08E-09,  avg # of iterations =  4.1

     negative rho (up, down):  4.500E-04 0.000E+00

     total cpu time spent up to now is      172.3 secs

     total energy              =    -481.21191930 Ry
     estimated scf accuracy    <       0.00000142 Ry

     iteration #  2     ecut=    80.00 Ry     beta= 0.20
     Davidson diagonalization with overlap
     ethr =  1.48E-09,  avg # of iterations =  1.0

     negative rho (up, down):  4.489E-04 0.000E+00

     total cpu time spent up to now is      175.5 secs

     End of self-consistent calculation

          k = 0.0000 0.0000 0.0000 (251451 PWs)   bands (ev):

   -49.3930 -49.3928 -49.3915 -49.3915 -49.3914 -49.3914 -49.3901 -49.3900
   -48.6223 -48.6217 -48.6155 -48.6155 -48.6154 -48.6154 -48.6140 -48.6139
   -48.6077 -48.6033 -48.6033 -48.6032 -48.6032 -48.6031 -48.6018 -48.6017
   -48.5925 -48.5913 -48.5913 -48.5912 -48.5912 -48.5898 -48.5897 -48.5817
    -5.5719  -5.2238  -4.6563  -3.8852  -3.1635  -3.1635  -3.1635  -3.1635
    -2.9618  -2.8411  -2.8411  -2.8410  -2.8410  -2.3563  -2.3563  -2.3563
    -2.3563  -2.0130  -1.8951  -1.8951  -1.8951  -1.8951  -1.7264  -1.7264
    -1.2627  -1.2627  -1.0744  -0.5110  -0.5110   0.0237   0.2731   0.2731
     0.2732   0.2732   0.4714   0.4714   0.6629   0.7356   0.7394   0.9079

          k = 0.0000 0.1000 0.0000 (251353 PWs)   bands (ev):

   -49.3929 -49.3928 -49.3915 -49.3915 -49.3914 -49.3913 -49.3901 -49.3900
   -48.6222 -48.6216 -48.6157 -48.6156 -48.6155 -48.6154 -48.6141 -48.6140
   -48.6076 -48.6034 -48.6032 -48.6032 -48.6031 -48.6030 -48.6018 -48.6017
   -48.5925 -48.5923 -48.5912 -48.5912 -48.5900 -48.5898 -48.5898 -48.5818
    -5.5482  -5.2000  -4.6325  -3.8614  -3.6258  -3.2917  -3.1411  -3.1410
    -2.9379  -2.8171  -2.8171  -2.7737  -2.6489  -2.3398  -2.3297  -2.3297
    -2.1703  -1.9886  -1.9244  -1.8650  -1.8649  -1.7917  -1.7917  -1.7588
    -1.3393  -1.3393  -1.0499  -0.6134  -0.6134   0.0466   0.2189   0.2928
     0.2929   0.2945   0.2945   0.3121   0.6929   0.7665   0.7708   0.9386

          k = 0.0000 0.2000 0.0000 (251291 PWs)   bands (ev):

   -49.3928 -49.3927 -49.3916 -49.3915 -49.3914 -49.3912 -49.3902 -49.3901
   -48.6217 -48.6212 -48.6162 -48.6161 -48.6154 -48.6153 -48.6142 -48.6141
   -48.6073 -48.6037 -48.6031 -48.6031 -48.6030 -48.6030 -48.6019 -48.6018
   -48.5930 -48.5926 -48.5911 -48.5911 -48.5899 -48.5899 -48.5886 -48.5822
    -5.4771  -5.1286  -4.5609  -4.0383  -3.7903  -3.6967  -3.1540  -3.0740
    -3.0740  -2.8668  -2.7456  -2.7456  -2.4710  -2.2503  -2.2503  -2.0826
    -1.9602  -1.9602  -1.9163  -1.8275  -1.7819  -1.7746  -1.7746  -1.5592
    -1.5328  -1.5328  -0.9783  -0.8581  -0.8581  -0.0715  -0.0715   0.1118
     0.2323   0.2649   0.3511   0.3512   0.7809   0.8586   0.8647   1.0295

          k = 0.0000 0.3000 0.0000 (251303 PWs)   bands (ev):

   -49.3927 -49.3925 -49.3918 -49.3917 -49.3912 -49.3911 -49.3904 -49.3903
   -48.6210 -48.6206 -48.6170 -48.6169 -48.6152 -48.6151 -48.6144 -48.6142
   -48.6069 -48.6042 -48.6031 -48.6030 -48.6029 -48.6029 -48.6021 -48.6020
   -48.5933 -48.5928 -48.5909 -48.5909 -48.5901 -48.5900 -48.5872 -48.5828
    -5.3584  -5.0096  -4.4419  -4.4007  -4.0550  -3.6726  -3.4995  -2.9638
    -2.9638  -2.7737  -2.7502  -2.6277  -2.6277  -2.1801  -2.1801  -2.1192
    -2.1192  -1.9612  -1.7999  -1.7787  -1.7787  -1.6246  -1.6245  -1.4742
    -1.3361  -1.2780  -1.1531  -1.1531  -0.8665  -0.4648  -0.4647   0.2031
     0.2218   0.2922   0.4450   0.4452   0.9100   1.0097   1.0164   1.1656

          k = 0.0000 0.4000 0.0000 (251207 PWs)   bands (ev):

   -49.3925 -49.3923 -49.3920 -49.3919 -49.3910 -49.3909 -49.3906 -49.3904
   -48.6201 -48.6198 -48.6180 -48.6178 -48.6150 -48.6149 -48.6146 -48.6144
   -48.6063 -48.6048 -48.6031 -48.6030 -48.6027 -48.6027 -48.6023 -48.6022
   -48.5934 -48.5931 -48.5907 -48.5907 -48.5903 -48.5902 -48.5858 -48.5836
    -5.1918  -4.8429  -4.7134  -4.3656  -4.2755  -3.8032  -3.5092  -3.0550
    -2.8129  -2.8128  -2.5913  -2.4660  -2.4660  -2.4102  -2.4102  -2.1781
    -2.0311  -2.0311  -1.9384  -1.9384  -1.6476  -1.4459  -1.4459  -1.4157
    -1.4157  -1.3421  -0.8304  -0.8304  -0.8229  -0.8173  -0.7352   0.2401
     0.2862   0.3828   0.5694   0.5695   0.8135   0.9077   1.2163   1.2531

          k = 0.0000-0.5000 0.0000 (251168 PWs)   bands (ev):

   -49.3922 -49.3922 -49.3921 -49.3921 -49.3908 -49.3908 -49.3907 -49.3907
   -48.6191 -48.6191 -48.6188 -48.6188 -48.6148 -48.6148 -48.6147 -48.6147
   -48.6056 -48.6056 -48.6031 -48.6031 -48.6025 -48.6025 -48.6024 -48.6024
   -48.5933 -48.5933 -48.5905 -48.5905 -48.5905 -48.5905 -48.5846 -48.5846
    -4.9769  -4.9769  -4.6282  -4.6282  -4.0623  -4.0623  -3.3022  -3.3022
    -2.6257  -2.6257  -2.6257  -2.6257  -2.3965  -2.3965  -2.2647  -2.2647
    -2.2647  -2.2647  -1.7118  -1.7118  -1.7118  -1.7118  -1.4789  -1.4789
    -1.1499  -1.1499  -1.1498  -1.1498  -0.6549  -0.6549  -0.1566  -0.1566
     0.5261   0.5261   0.5382   0.5382   0.7157   0.7157   0.7158   0.7158

          k = 0.1000 0.1000 0.0000 (251358 PWs)   bands (ev):

   -49.3929 -49.3928 -49.3915 -49.3915 -49.3914 -49.3914 -49.3902 -49.3900
   -48.6220 -48.6214 -48.6157 -48.6157 -48.6156 -48.6156 -48.6141 -48.6140
   -48.6075 -48.6033 -48.6033 -48.6031 -48.6031 -48.6030 -48.6018 -48.6017
   -48.5926 -48.5922 -48.5922 -48.5900 -48.5900 -48.5899 -48.5896 -48.5819
    -5.5246  -5.1762  -4.6086  -3.8376  -3.6029  -3.6029  -3.2678  -3.2678
    -2.9140  -2.7479  -2.7478  -2.6270  -2.6270  -2.3158  -2.3158  -2.1417
    -2.1417  -2.0186  -1.9640  -1.8966  -1.8966  -1.7277  -1.7277  -1.6641
    -1.5890  -1.2005  -1.0253  -0.9066  -0.4489  -0.0614   0.0699   0.2373
     0.2373   0.3336   0.3336   0.5334   0.7230   0.7974   0.8023   0.9694

          k = 0.1000 0.2000 0.0000 (251301 PWs)   bands (ev):

   -49.3928 -49.3927 -49.3916 -49.3915 -49.3914 -49.3913 -49.3903 -49.3901
   -48.6216 -48.6211 -48.6162 -48.6161 -48.6156 -48.6154 -48.6142 -48.6141
   -48.6072 -48.6036 -48.6032 -48.6031 -48.6030 -48.6030 -48.6019 -48.6018
   -48.5929 -48.5927 -48.5921 -48.5903 -48.5899 -48.5895 -48.5886 -48.5823
    -5.4534  -5.1048  -4.5370  -4.0151  -3.7664  -3.6728  -3.5345  -3.1961
    -3.1286  -2.8427  -2.6706  -2.5620  -2.4437  -2.2916  -2.2444  -2.0615
    -2.0561  -1.8914  -1.8843  -1.8136  -1.8013  -1.7532  -1.6695  -1.6342
    -1.5294  -1.2452  -1.2134  -0.9531  -0.5070  -0.4397   0.1363   0.2039
     0.2518   0.2856   0.2912   0.3972   0.8111   0.8898   0.8962   1.0607

          k = 0.1000 0.3000 0.0000 (251266 PWs)   bands (ev):

   -49.3926 -49.3925 -49.3918 -49.3916 -49.3912 -49.3911 -49.3904 -49.3903
   -48.6209 -48.6204 -48.6170 -48.6168 -48.6154 -48.6153 -48.6144 -48.6143
   -48.6068 -48.6041 -48.6031 -48.6031 -48.6030 -48.6029 -48.6021 -48.6020
   -48.5933 -48.5929 -48.5919 -48.5906 -48.5898 -48.5895 -48.5872 -48.5829
    -5.3347  -4.9858  -4.4178  -4.3773  -4.0311  -3.6484  -3.4745  -3.4214
    -3.0776  -2.7475  -2.7256  -2.5711  -2.5427  -2.4560  -2.1824  -2.1276
    -1.9324  -1.9140  -1.7851  -1.7744  -1.6767  -1.5709  -1.4785  -1.4538
    -1.3622  -1.3051  -1.2522  -0.8401  -0.8269  -0.7128  -0.2442   0.2300
     0.2403   0.3143   0.3763   0.5001   0.7752   0.9410   1.0414   1.0483

          k = 0.1000 0.4000 0.0000 (251294 PWs)   bands (ev):

   -49.3924 -49.3923 -49.3920 -49.3918 -49.3911 -49.3909 -49.3906 -49.3905
   -48.6200 -48.6196 -48.6179 -48.6178 -48.6152 -48.6150 -48.6147 -48.6145
   -48.6062 -48.6048 -48.6031 -48.6030 -48.6028 -48.6027 -48.6023 -48.6022
   -48.5934 -48.5931 -48.5916 -48.5909 -48.5897 -48.5896 -48.5859 -48.5837
    -5.1681  -4.8190  -4.6899  -4.3417  -4.2513  -3.7785  -3.4847  -3.2650
    -3.0295  -2.9136  -2.8341  -2.5661  -2.4606  -2.3656  -2.3135  -2.1509
    -1.9694  -1.9575  -1.8746  -1.7169  -1.6211  -1.5659  -1.4888  -1.3121
    -1.2609  -1.1678  -0.9884  -0.7978  -0.7936  -0.7069  -0.6422   0.2697
     0.3041   0.4050   0.4845   0.6368   0.7095   0.8254   0.9364   1.2838

          k = 0.1000-0.5000 0.0000 (251178 PWs)   bands (ev):

   -49.3922 -49.3922 -49.3921 -49.3921 -49.3908 -49.3908 -49.3907 -49.3907
   -48.6190 -48.6190 -48.6187 -48.6187 -48.6149 -48.6149 -48.6148 -48.6148
   -48.6055 -48.6055 -48.6030 -48.6030 -48.6026 -48.6026 -48.6024 -48.6024
   -48.5933 -48.5933 -48.5913 -48.5913 -48.5896 -48.5896 -48.5847 -48.5847
    -4.9533  -4.9533  -4.6043  -4.6043  -4.0379  -4.0379  -3.2773  -3.2773
    -3.0678  -3.0678  -2.7066  -2.7066  -2.3704  -2.3704  -2.1425  -2.1425
    -2.1416  -2.1416  -1.7775  -1.7775  -1.4669  -1.4669  -1.4509  -1.4509
    -1.2556  -1.2556  -0.9818  -0.9818  -0.6243  -0.6243  -0.1356  -0.1356
     0.5431   0.5431   0.5611   0.5612   0.6026   0.6026   0.7962   0.7963

          k = 0.2000 0.2000 0.0000 (251288 PWs)   bands (ev):

   -49.3927 -49.3926 -49.3915 -49.3915 -49.3914 -49.3914 -49.3904 -49.3902
   -48.6211 -48.6207 -48.6160 -48.6160 -48.6159 -48.6159 -48.6144 -48.6143
   -48.6070 -48.6035 -48.6035 -48.6030 -48.6030 -48.6030 -48.6021 -48.6019
   -48.5928 -48.5928 -48.5928 -48.5907 -48.5893 -48.5886 -48.5886 -48.5826
    -5.3823  -5.0334  -4.4652  -3.9457  -3.9457  -3.6948  -3.6010  -3.6010
    -3.0529  -3.0529  -2.7706  -2.6250  -2.3621  -2.3621  -2.2331  -1.9992
    -1.9992  -1.8178  -1.7252  -1.7252  -1.6657  -1.6657  -1.6109  -1.4772
    -1.4403  -1.4403  -1.0138  -0.8789  -0.8258  -0.2625   0.0491   0.2067
     0.3086   0.3086   0.3461   0.3461   0.7192   0.8999   0.9834   0.9909

          k = 0.2000 0.3000 0.0000 (251223 PWs)   bands (ev):

   -49.3925 -49.3924 -49.3917 -49.3915 -49.3914 -49.3912 -49.3905 -49.3904
   -48.6205 -48.6201 -48.6168 -48.6167 -48.6158 -48.6157 -48.6146 -48.6145
   -48.6065 -48.6040 -48.6033 -48.6030 -48.6030 -48.6029 -48.6023 -48.6021
   -48.5932 -48.5929 -48.5926 -48.5911 -48.5890 -48.5886 -48.5873 -48.5832
    -5.2637  -4.9143  -4.3457  -4.3072  -3.9592  -3.8305  -3.5761  -3.4819
    -3.3999  -2.9388  -2.9273  -2.6689  -2.6523  -2.5594  -2.2269  -1.9553
    -1.8993  -1.8464  -1.6987  -1.6048  -1.5174  -1.4262  -1.3945  -1.2931
    -1.2119  -1.1867  -1.1760  -0.9801  -0.7624  -0.3415  -0.3008   0.2928
     0.3084   0.3789   0.3963   0.4417   0.6326   1.0329   1.1364   1.1435

          k = 0.2000 0.4000 0.0000 (251213 PWs)   bands (ev):

   -49.3923 -49.3922 -49.3919 -49.3917 -49.3912 -49.3910 -49.3907 -49.3906
   -48.6196 -48.6193 -48.6177 -48.6175 -48.6155 -48.6154 -48.6149 -48.6148
   -48.6059 -48.6046 -48.6031 -48.6030 -48.6030 -48.6027 -48.6025 -48.6023
   -48.5933 -48.5931 -48.5923 -48.5915 -48.5889 -48.5887 -48.5860 -48.5840
    -5.0972  -4.7474  -4.6193  -4.2699  -4.1787  -3.7047  -3.6704  -3.4114
    -3.3164  -3.2215  -2.9532  -2.8522  -2.7527  -2.4910  -2.2638  -2.0696
    -2.0393  -1.7696  -1.5422  -1.5223  -1.4875  -1.4475  -1.3082  -1.2222
    -1.0917  -1.0903  -0.7424  -0.7149  -0.7067  -0.6231  -0.5536   0.3529
     0.3577   0.4691   0.5009   0.5620   0.6390   0.7877   0.8444   1.0168

          k = 0.2000-0.5000 0.0000 (251204 PWs)   bands (ev):

   -49.3921 -49.3921 -49.3920 -49.3920 -49.3909 -49.3909 -49.3908 -49.3908
   -48.6187 -48.6187 -48.6184 -48.6184 -48.6152 -48.6152 -48.6151 -48.6151
   -48.6053 -48.6053 -48.6030 -48.6030 -48.6028 -48.6028 -48.6025 -48.6025
   -48.5933 -48.5933 -48.5919 -48.5919 -48.5887 -48.5887 -48.5849 -48.5849
    -4.8825  -4.8825  -4.5326  -4.5326  -3.9648  -3.9648  -3.4666  -3.4666
    -3.2027  -3.2027  -3.1058  -3.1058  -2.5308  -2.5308  -2.2927  -2.2927
    -1.8016  -1.8016  -1.6247  -1.6247  -1.3672  -1.3672  -1.2668  -1.2668
    -1.0396  -1.0396  -0.8379  -0.8379  -0.5327  -0.5327  -0.0780  -0.0780
     0.5861   0.5861   0.5953   0.5953   0.6276   0.6276   0.6883   0.6883

          k = 0.3000 0.3000 0.0000 (251218 PWs)   bands (ev):

   -49.3924 -49.3922 -49.3915 -49.3915 -49.3914 -49.3914 -49.3907 -49.3905
   -48.6199 -48.6195 -48.6165 -48.6165 -48.6164 -48.6164 -48.6149 -48.6148
   -48.6061 -48.6037 -48.6037 -48.6030 -48.6029 -48.6029 -48.6025 -48.6022
   -48.5930 -48.5930 -48.5930 -48.5916 -48.5886 -48.5874 -48.5874 -48.5837
    -5.1451  -4.7950  -4.2256  -4.1906  -4.1906  -3.8398  -3.8398  -3.4563
    -3.2758  -3.2758  -3.2728  -2.9011  -2.5387  -2.5387  -2.5319  -2.3061
    -1.7039  -1.7039  -1.5760  -1.5366  -1.3028  -1.3028  -1.1663  -1.0566
    -1.0566  -1.0539  -1.0539  -0.7031  -0.6398  -0.6390   0.0476   0.2126
     0.3682   0.3682   0.4276   0.4791   0.4791   0.8550   1.1784   1.3024

          k = 0.3000 0.4000 0.0000 (251078 PWs)   bands (ev):

   -49.3922 -49.3920 -49.3917 -49.3916 -49.3913 -49.3912 -49.3909 -49.3907
   -48.6191 -48.6188 -48.6173 -48.6172 -48.6161 -48.6160 -48.6153 -48.6152
   -48.6055 -48.6043 -48.6034 -48.6030 -48.6029 -48.6028 -48.6027 -48.6024
   -48.5932 -48.5931 -48.5928 -48.5920 -48.5882 -48.5876 -48.5863 -48.5844
    -4.9788  -4.6279  -4.5019  -4.1503  -4.0579  -4.0280  -3.6733  -3.5819
    -3.5676  -3.2899  -3.2024  -3.1031  -2.8267  -2.6164  -2.3674  -2.3579
    -1.9353  -1.8531  -1.5065  -1.4138  -1.1931  -1.0734  -1.0623  -0.9630
    -0.8970  -0.8395  -0.6628  -0.6297  -0.5654  -0.4877  -0.2248   0.3548
     0.4155   0.4413   0.4981   0.5636   0.5991   0.7631   0.7983   1.1138

          k = 0.3000-0.5000 0.0000 (251026 PWs)   bands (ev):

   -49.3919 -49.3919 -49.3918 -49.3918 -49.3911 -49.3911 -49.3910 -49.3910
   -48.6182 -48.6182 -48.6180 -48.6180 -48.6157 -48.6157 -48.6156 -48.6156
   -48.6049 -48.6049 -48.6031 -48.6031 -48.6029 -48.6029 -48.6025 -48.6025
   -48.5932 -48.5932 -48.5924 -48.5924 -48.5879 -48.5879 -48.5853 -48.5853
    -4.7645  -4.7645  -4.4131  -4.4130  -3.8431  -3.8431  -3.8199  -3.8199
    -3.4605  -3.4605  -3.0790  -3.0790  -2.8828  -2.8828  -2.1647  -2.1647
    -2.1284  -2.1284  -1.2573  -1.2573  -1.2301  -1.2301  -1.0946  -1.0946
    -0.7327  -0.7327  -0.5612  -0.5612  -0.3808  -0.3808  -0.0075  -0.0075
     0.4607   0.4607   0.6204   0.6204   0.7051   0.7051   0.7290   0.7290

          k = 0.4000 0.4000 0.0000 (251000 PWs)   bands (ev):

   -49.3920 -49.3918 -49.3915 -49.3915 -49.3914 -49.3914 -49.3911 -49.3909
   -48.6184 -48.6182 -48.6168 -48.6168 -48.6167 -48.6167 -48.6158 -48.6157
   -48.6051 -48.6039 -48.6039 -48.6031 -48.6029 -48.6028 -48.6028 -48.6025
   -48.5932 -48.5930 -48.5930 -48.5925 -48.5876 -48.5866 -48.5866 -48.5850
    -4.8128  -4.4608  -4.3376  -4.3376  -3.9833  -3.9833  -3.8893  -3.8698
    -3.5086  -3.4108  -3.4108  -3.1213  -2.9266  -2.6510  -2.6510  -2.1982
    -2.1604  -1.7503  -1.7503  -1.2494  -1.2424  -0.8680  -0.8680  -0.7321
    -0.5878  -0.5878  -0.3817  -0.3817  -0.3305  -0.3139  -0.2694   0.4519
     0.4519   0.4805   0.4920   0.4975   0.6569   0.6569   0.7154   1.2070

          k = 0.4000-0.5000 0.0000 (250894 PWs)   bands (ev):

   -49.3917 -49.3917 -49.3916 -49.3916 -49.3913 -49.3913 -49.3912 -49.3912
   -48.6176 -48.6176 -48.6175 -48.6175 -48.6163 -48.6163 -48.6162 -48.6162
   -48.6045 -48.6045 -48.6035 -48.6035 -48.6028 -48.6028 -48.6026 -48.6026
   -48.5932 -48.5931 -48.5928 -48.5928 -48.5871 -48.5871 -48.5857 -48.5857
    -4.5991  -4.5991  -4.2458  -4.2458  -4.1267  -4.1267  -3.7692  -3.7692
    -3.6733  -3.6733  -3.1920  -3.1920  -2.9073  -2.9073  -2.4280  -2.4280
    -1.9888  -1.9888  -1.5187  -1.5187  -1.0444  -1.0444  -0.6162  -0.6162
    -0.5760  -0.5760  -0.2097  -0.2097  -0.1710  -0.1710   0.0048   0.0048
     0.4229   0.4229   0.5527   0.5528   0.6641   0.6641   0.8541   0.8541

          k =-0.5000-0.5000 0.0000 (250732 PWs)   bands (ev):

   -49.3915 -49.3915 -49.3915 -49.3915 -49.3914 -49.3914 -49.3914 -49.3914
   -48.6170 -48.6170 -48.6170 -48.6170 -48.6168 -48.6168 -48.6168 -48.6168
   -48.6040 -48.6040 -48.6040 -48.6040 -48.6027 -48.6027 -48.6027 -48.6027
   -48.5930 -48.5930 -48.5930 -48.5930 -48.5864 -48.5864 -48.5863 -48.5863
    -4.3865  -4.3865  -4.3865  -4.3865  -4.0311  -4.0311  -4.0311  -4.0311
    -3.4559  -3.4559  -3.4559  -3.4559  -2.6893  -2.6893  -2.6893  -2.6893
    -1.7701  -1.7701  -1.7701  -1.7701  -0.8233  -0.8233  -0.8233  -0.8233
    -0.1764  -0.1764  -0.1764  -0.1764   0.0770   0.0770   0.0770   0.0770
     0.2857   0.2857   0.2857   0.2857   1.0175   1.0175   1.0175   1.0175

     the Fermi energy is    -2.0942 ev

!    total energy              =    -481.21191869 Ry
     total all-electron energy =      -481.212179 Ry
     estimated scf accuracy    <       0.00000079 Ry
     smearing contrib. (-TS)   =      -0.00009178 Ry
     internal energy E=F+TS    =    -481.21182691 Ry

     The total energy is F=E-TS. E is the sum of the following terms:
     one-electron contribution =   -9154.36511257 Ry
     hartree contribution      =    4527.35468148 Ry
     xc contribution           =    -114.68378198 Ry
     ewald contribution        =    4257.66030499 Ry
     one-center paw contrib.   =       2.82208117 Ry

     convergence has been achieved in   2 iterations

     Forces acting on atoms (cartesian axes, Ry/au):

     atom    1 type  1   force =     0.00000000    0.00000000   -0.00000624
     atom    2 type  1   force =    -0.00000049   -0.00000049    0.00020896
     atom    3 type  1   force =     0.00000000    0.00000000   -0.00030506
     atom    4 type  1   force =    -0.00000007   -0.00000007   -0.00033243
     atom    5 type  1   force =     0.00000000    0.00000000    0.00031260
     atom    6 type  1   force =    -0.00000073   -0.00000073    0.00027518
     atom    7 type  1   force =     0.00000000    0.00000000   -0.00016139
     atom    8 type  1   force =    -0.00000164   -0.00000164    0.00000892
     atom    9 type  1   force =     0.00000000    0.00000000   -0.00000557
     atom   10 type  1   force =    -0.00000049    0.00000049    0.00020896
     atom   11 type  1   force =     0.00000000    0.00000000   -0.00030628
     atom   12 type  1   force =    -0.00000007    0.00000007   -0.00033243
     atom   13 type  1   force =     0.00000000    0.00000000    0.00031223
     atom   14 type  1   force =    -0.00000073    0.00000073    0.00027518
     atom   15 type  1   force =     0.00000000    0.00000000   -0.00016085
     atom   16 type  1   force =    -0.00000164    0.00000164    0.00000892
     atom   17 type  1   force =     0.00000000    0.00000000   -0.00000557
     atom   18 type  1   force =     0.00000049   -0.00000049    0.00020896
     atom   19 type  1   force =     0.00000000    0.00000000   -0.00030628
     atom   20 type  1   force =     0.00000007   -0.00000007   -0.00033243
     atom   21 type  1   force =     0.00000000    0.00000000    0.00031223
     atom   22 type  1   force =     0.00000073   -0.00000073    0.00027518
     atom   23 type  1   force =     0.00000000    0.00000000   -0.00016085
     atom   24 type  1   force =     0.00000164   -0.00000164    0.00000892
     atom   25 type  1   force =     0.00000000    0.00000000   -0.00000672
     atom   26 type  1   force =     0.00000049    0.00000049    0.00020896
     atom   27 type  1   force =     0.00000000    0.00000000   -0.00030699
     atom   28 type  1   force =     0.00000007    0.00000007   -0.00033243
     atom   29 type  1   force =     0.00000000    0.00000000    0.00031319
     atom   30 type  1   force =     0.00000073    0.00000073    0.00027518
     atom   31 type  1   force =     0.00000000    0.00000000   -0.00016100
     atom   32 type  1   force =     0.00000164    0.00000164    0.00000892

     Total force =     0.001338     Total SCF correction =     0.001284
     SCF correction compared to forces is large: reduce conv_thr to get better values
     Energy error            =      3.0E-06 Ry
     Gradient error          =      3.3E-04 Ry/Bohr

     bfgs converged in   2 scf cycles and   1 bfgs steps
     (criteria: energy <  1.0E-05 Ry, force <  3.9E-04 Ry/Bohr)

     End of BFGS Geometry Optimization

     Final energy             =    -481.2119186933 Ry

     File ./pwscf.bfgs deleted, as requested
Begin final coordinates

ATOMIC_POSITIONS (angstrom)
Li              -0.0000000700       -0.0000000700       28.3768009828
Li               1.7175767011        1.7175767011       26.5777472742
Li              -0.0000000700       -0.0000000700       31.7718408491
Li               1.7175778174        1.7175778174       30.0783483842
Li              -0.0000000700       -0.0000000700       35.1896257452
Li               1.7175809645        1.7175809645       33.4961351890
Li              -0.0000000600       -0.0000000600       38.6902091396
Li               1.7175709747        1.7175709747       36.8911631556
Li              -0.0000000700        3.4351561600       28.3767935418
Li               1.7175767011        5.1527356289       26.5777472942
Li              -0.0000000700        3.4351561700       31.7718360286
Li               1.7175778174        5.1527345126       30.0783483742
Li              -0.0000000700        3.4351561800       35.1896374998
Li               1.7175809645        5.1527313755       33.4961351890
Li              -0.0000000600        3.4351561700       38.6902015549
Li               1.7175709747        5.1527413653       36.8911631656
Li               3.4351561600       -0.0000000700       28.3767935418
Li               5.1527356289        1.7175767011       26.5777472942
Li               3.4351561700       -0.0000000700       31.7718360286
Li               5.1527345126        1.7175778174       30.0783483742
Li               3.4351561800       -0.0000000700       35.1896374998
Li               5.1527313755        1.7175809645       33.4961351890
Li               3.4351561700       -0.0000000600       38.6902015549
Li               5.1527413653        1.7175709747       36.8911631656
Li               3.4351561600        3.4351561600       28.3767981228
Li               5.1527356289        5.1527356289       26.5777473042
Li               3.4351561700        3.4351561700       31.7718402700
Li               5.1527345126        5.1527345126       30.0783483742
Li               3.4351561800        3.4351561800       35.1896488338
Li               5.1527313755        5.1527313755       33.4961351890
Li               3.4351561700        3.4351561700       38.6901910942
Li               5.1527413653        5.1527413653       36.8911631656
End final coordinates


     Message from routine punch:
     Nothing written, as per user request (disk_io='none')
 
     init_run     :      7.56s CPU      7.97s WALL (       1 calls)
     electrons    :    162.95s CPU    165.58s WALL (       2 calls)
     update_pot   :      0.08s CPU      0.08s WALL (       1 calls)
     forces       :      1.21s CPU      1.27s WALL (       2 calls)

     Called by init_run:
     wfcinit      :      2.70s CPU      2.86s WALL (       1 calls)
     potinit      :      0.15s CPU      0.18s WALL (       1 calls)
     hinit0       :      0.02s CPU      0.06s WALL (       1 calls)

     Called by electrons:
     c_bands      :    131.13s CPU    132.30s WALL (      36 calls)
     sum_band     :     21.72s CPU     22.43s WALL (      36 calls)
     v_of_rho     :      2.08s CPU      2.16s WALL (      37 calls)
     newd         :      1.18s CPU      1.59s WALL (      37 calls)
     PAW_pot      :      0.40s CPU      0.47s WALL (      38 calls)
     mix_rho      :      5.40s CPU      5.46s WALL (      36 calls)

     Called by c_bands:
     init_us_2    :      3.86s CPU      3.89s WALL (     836 calls)
     cegterg      :    123.09s CPU    124.18s WALL (     396 calls)

     Called by *egterg:
     cdiaghg      :     12.21s CPU     12.29s WALL (    2593 calls)
     h_psi        :     81.96s CPU     82.86s WALL (    2626 calls)
     s_psi        :      7.73s CPU      7.79s WALL (    2626 calls)
     g_psi        :      0.06s CPU      0.06s WALL (    2219 calls)

     Called by h_psi:
     h_psi:calbec :     11.88s CPU     12.14s WALL (    2626 calls)
     vloc_psi     :     59.55s CPU     60.12s WALL (    2626 calls)
                                        0.00s GPU  (    2626 calls)
     add_vuspsi   :     10.03s CPU     10.10s WALL (    2626 calls)

     General routines
     calbec       :     15.92s CPU     16.22s WALL (    3121 calls)
     fft          :      1.69s CPU      1.72s WALL (     483 calls)
     ffts         :      3.92s CPU      3.96s WALL (    4132 calls)
     fftw         :     69.49s CPU     70.15s WALL (  161602 calls)
     interpolate  :      0.17s CPU      0.17s WALL (      37 calls)
 
     Parallel routines
 
     PWSCF        :   2m52.39s CPU   2m56.58s WALL

 
   This run was terminated on:   0:38:50  23Jan2025            

=------------------------------------------------------------------------------=
   JOB DONE.
=------------------------------------------------------------------------------=
