
     Program PWSCF v.7.4 starts on  1Jan2025 at 19:36:43 

     This program is part of the open-source Quantum ESPRESSO suite
     for quantum simulation of materials; please cite
         "P. Giannozzi et al., J. Phys.:Condens. Matter 21 395502 (2009);
         "P. Giannozzi et al., J. Phys.:Condens. Matter 29 465901 (2017);
         "P. Giannozzi et al., J. Chem. Phys. 152 154105 (2020);
          URL http://www.quantum-espresso.org", 
     in publications or presentations arising from this work. More details at
     http://www.quantum-espresso.org/quote

     Parallel version (MPI & OpenMP), running on     384 processor cores
     Number of MPI processes:               384
     Threads/MPI process:                     1

     MPI processes distributed on     3 nodes
     229648 MiB available memory on the printing compute node when the environment starts

     Reading input from espresso.pwi
Warning: card &CELL ignored
Warning: card    PRESS_CONV_THR   = 0.1 ignored
Warning: card    CELL_DOFREE      = 'ALL' ignored
Warning: card / ignored
Warning: card &FCP ignored
Warning: card / ignored
Warning: card &RISM ignored
Warning: card / ignored

     Current dimensions of program PWSCF are:
     Max number of different atomic species (ntypx) = 10
     Max number of k-points (npk) =  40000
     Max angular momentum in pseudopotentials (lmaxx) =  4

     IMPORTANT: XC functional enforced from input :
     Exchange-correlation= PBE
                           (   1   4   3   4   0   0   0)
     Any further DFT definition will be discarded
     Please, verify this is what you really want


     Reading input from environ.in:
     * using ionic solvent mode
     * setting boundary derivatives method to SSCS default
     * setting electrolyte-boundary derivatives method to SSCS default

Environ Warning (1001): card EOF ignored

     

     K-points division:     npool     =       2
     R & G space division:  proc/nbgrp/npool/nimage =     192
     Subspace diagonalization in iterative solution of the eigenvalue problem:
     a serial algorithm will be used


     Parallelization info
     --------------------
     sticks:   dense  smooth     PW     G-vecs:    dense   smooth      PW
     Min          68      27      7                36508     9229    1253
     Max          69      28      8                36563     9258    1292
     Sum       13133    5269   1401              7013397  1773951  244485

     Using Slab Decomposition



     bravais-lattice index     =            8
     lattice parameter (alat)  =      11.2436  a.u.
     unit-cell volume          =   18353.5531 (a.u.)^3
     number of atoms/cell      =           24
     number of atomic types    =            1
     number of electrons       =        72.00
     number of Kohn-Sham states=           54
     kinetic-energy cutoff     =      80.0000  Ry
     charge density cutoff     =     800.0000  Ry
     scf convergence threshold =      1.0E-06
     mixing beta               =       0.2000
     number of iterations used =            8  local-TF  mixing
     energy convergence thresh.=      1.0E-05
     force convergence thresh. =      3.9E-04
     Exchange-correlation= PBE
                           (   1   4   3   4   0   0   0)
     nstep                     =          999


     ================================================================================

                                  Environ Setup Summary

     ================================================================================

     Please cite

          O. Andreussi, I. Dabo and N. Marzari, J. Chem. Phys. 136, 064102 (2012)
          F. Nattino, M. Truscott, N. Marzari, and O. Andreussi, J. Chem. Phys. 150, 041722 (2019)

     in publications or presentations arising from this work.

     ================================================================================

     Parameters
     ==========

     compensation onset threshold      =               0.1000E+00
     static permittivity               =                    89.90
     surface tension in input (dyn/cm) =                    37.30
     surface tension in internal units =               0.4792E-04

     Solvent Boundary
     ================

     solvent mode                      =                    ionic
     derivatives method                =                   lowmem
     electrolyte derivatives method    =                   lowmem
     numerical core for derivatives    =                      fft
     switching function adopted        =                     SCCS
     density limit for vacuum region   =               0.5000E-02
     density limit for bulk solvent    =               0.1000E-03
     soft-sphere radius mode           =                    bondi
     soft-sphere softness              =                     0.50
     alpha                             =                     1.32

     Electrostatic Setup
     ===================

     electrostatic problem to solve    =                    modpb
     numerical solver adopted          =                   newton
     type of auxiliary density adopted =                     none
     numerical core for poisson        =                      fft
     adopting a nested solver scheme
     inner solver                      =                       cg
     inner core                        =                      fft
     type of pbc corrections           =                parabolic
     numerical core for corrections    =                      1da

     ================================================================================


     >>>>> Grand-Canonical SCF is activated <<<<<
     Initial Total Charge  =     0.000000 e
     Target Fermi Energy   =    -3.404000 eV
     Thr. of Fermi Energy  =     0.001000 eV
     Wave-shift of Kerker  =     0.400000 bohr^-1
     Wave-shift of Hartree =     1.500000 bohr^-1
     Mixing Rate of Fermi  =     0.050000

     celldm(1)=  11.243615  celldm(2)=   1.632993  celldm(3)=   7.907113
     celldm(4)=   0.000000  celldm(5)=   0.000000  celldm(6)=   0.000000

     crystal axes: (cart. coord. in units of alat)
               a(1) = (   1.000000   0.000000   0.000000 )  
               a(2) = (   0.000000   1.632993   0.000000 )  
               a(3) = (   0.000000   0.000000   7.907113 )  

     reciprocal axes: (cart. coord. in units 2 pi/alat)
               b(1) = (  1.000000  0.000000  0.000000 )  
               b(2) = (  0.000000  0.612372  0.000000 )  
               b(3) = (  0.000000  0.000000  0.126468 )  


     PseudoPot. # 1 for Li read from file:
     /work/e89/e89/ba3g18/Repos/Pseudopotentials/Pslibrary/Li.pbe-sl-kjpaw_psl.1.0.0.UPF
     MD5 check sum: 3f4d2cafebb47c6c3aa8ed472e6f074d
     Pseudo is Projector augmented-wave, Zval =  3.0
     Generated using 'atomic' code by A. Dal Corso  v.7.4
     Shape of augmentation charge: PSQ
     Using radial grid of 1017 points,  4 beta functions with: 
                l(1) =   0
                l(2) =   0
                l(3) =   1
                l(4) =   1
     Q(r) pseudized with 0 coefficients 


     atomic species   valence    mass     pseudopotential
     Li                3.00     6.94000     Li( 1.00)

      2 Sym. Ops. (no inversion) found


                                    s                        frac. trans.

      isym =  1     identity                                     

 cryst.   s( 1) = (     1          0          0      )
                  (     0          1          0      )
                  (     0          0          1      )

 cart.    s( 1) = (  1.0000000  0.0000000  0.0000000 )
                  (  0.0000000  1.0000000  0.0000000 )
                  (  0.0000000  0.0000000  1.0000000 )


      isym =  2     inv. 180 deg rotation - cart. axis [0,1,0]   

 cryst.   s( 2) = (     1          0          0      )
                  (     0         -1          0      )
                  (     0          0          1      )

 cart.    s( 2) = (  1.0000000  0.0000000  0.0000000 )
                  (  0.0000000 -1.0000000  0.0000000 )
                  (  0.0000000  0.0000000  1.0000000 )


     point group C_s (m)    
     there are  2 classes
     the character table:

       E     s    
A'     1.00  1.00
A''    1.00 -1.00

     the symmetry operations in each class and the name of the first element:

     E        1
          identity                                               
     s        2
          inv. 180 deg rotation - cart. axis [0,1,0]             

   Cartesian axes

     site n.     atom                  positions (alat units)
         1        Li     tau(   1) = (   0.5182030   0.8164966   4.5308744  )
         2        Li     tau(   2) = (   0.1484654   0.4082529   3.3762391  )
         3        Li     tau(   3) = (   0.3536362   0.8164966   3.6079977  )
         4        Li     tau(   4) = (   0.4981139   0.4082423   3.8321489  )
         5        Li     tau(   5) = (   0.1685452   0.8164966   4.0749697  )
         6        Li     tau(   6) = (   0.3130291   0.4082427   4.2990971  )
         7        Li     tau(   7) = (   0.5182049   1.6329931   4.5308630  )
         8        Li     tau(   8) = (   0.1484653   1.2247404   3.3762391  )
         9        Li     tau(   9) = (   0.3536394   1.6329931   3.6080070  )
        10        Li     tau(  10) = (   0.4981139   1.2247510   3.8321490  )
        11        Li     tau(  11) = (   0.1685569   1.6329931   4.0749759  )
        12        Li     tau(  12) = (   0.3130291   1.2247506   4.2990971  )
        13        Li     tau(  13) = (   1.0181931   0.8164966   4.5308697  )
        14        Li     tau(  14) = (   0.6484758   0.4082507   3.3762402  )
        15        Li     tau(  15) = (   0.8536374   0.8164966   3.6080038  )
        16        Li     tau(  16) = (   0.9981175   0.4082452   3.8321508  )
        17        Li     tau(  17) = (   0.6685430   0.8164966   4.0749758  )
        18        Li     tau(  18) = (   0.8130327   0.4082450   4.2991008  )
        19        Li     tau(  19) = (   1.0181896   1.6329931   4.5308666  )
        20        Li     tau(  20) = (   0.6484757   1.2247426   3.3762402  )
        21        Li     tau(  21) = (   0.8536334   1.6329931   3.6079943  )
        22        Li     tau(  22) = (   0.9981175   1.2247481   3.8321508  )
        23        Li     tau(  23) = (   0.6685499   1.6329931   4.0749662  )
        24        Li     tau(  24) = (   0.8130327   1.2247482   4.2991008  )

   Crystallographic axes

     site n.     atom                  positions (cryst. coord.)
         1        Li     tau(   1) = (  0.5182030  0.5000001  0.5730125  )
         2        Li     tau(   2) = (  0.1484654  0.2500028  0.4269876  )
         3        Li     tau(   3) = (  0.3536362  0.5000001  0.4562977  )
         4        Li     tau(   4) = (  0.4981139  0.2499963  0.4846458  )
         5        Li     tau(   5) = (  0.1685452  0.5000001  0.5153550  )
         6        Li     tau(   6) = (  0.3130291  0.2499966  0.5437000  )
         7        Li     tau(   7) = (  0.5182049  1.0000001  0.5730111  )
         8        Li     tau(   8) = (  0.1484653  0.7499973  0.4269876  )
         9        Li     tau(   9) = (  0.3536394  1.0000001  0.4562989  )
        10        Li     tau(  10) = (  0.4981139  0.7500038  0.4846458  )
        11        Li     tau(  11) = (  0.1685569  1.0000001  0.5153557  )
        12        Li     tau(  12) = (  0.3130291  0.7500036  0.5437000  )
        13        Li     tau(  13) = (  1.0181931  0.5000001  0.5730119  )
        14        Li     tau(  14) = (  0.6484758  0.2500015  0.4269877  )
        15        Li     tau(  15) = (  0.8536374  0.5000001  0.4562985  )
        16        Li     tau(  16) = (  0.9981175  0.2499981  0.4846460  )
        17        Li     tau(  17) = (  0.6685430  0.5000001  0.5153557  )
        18        Li     tau(  18) = (  0.8130327  0.2499980  0.5437005  )
        19        Li     tau(  19) = (  1.0181896  1.0000001  0.5730115  )
        20        Li     tau(  20) = (  0.6484757  0.7499987  0.4269877  )
        21        Li     tau(  21) = (  0.8536334  1.0000001  0.4562973  )
        22        Li     tau(  22) = (  0.9981175  0.7500020  0.4846460  )
        23        Li     tau(  23) = (  0.6685499  1.0000001  0.5153545  )
        24        Li     tau(  24) = (  0.8130327  0.7500021  0.5437005  )

     number of k points=    24  Marzari-Vanderbilt smearing, width (Ry)=  0.0100
                       cart. coord. in units 2pi/alat
        k(    1) = (   0.0000000   0.0000000   0.0000000), wk =   0.0259740
        k(    2) = (   0.0000000   0.0874818   0.0000000), wk =   0.0519481
        k(    3) = (   0.0000000   0.1749636   0.0000000), wk =   0.0519481
        k(    4) = (   0.0000000   0.2624454   0.0000000), wk =   0.0519481
        k(    5) = (   0.0909091   0.0000000   0.0000000), wk =   0.0519481
        k(    6) = (   0.0909091   0.0874818   0.0000000), wk =   0.1038961
        k(    7) = (   0.0909091   0.1749636   0.0000000), wk =   0.1038961
        k(    8) = (   0.0909091   0.2624454   0.0000000), wk =   0.1038961
        k(    9) = (   0.1818182   0.0000000   0.0000000), wk =   0.0519481
        k(   10) = (   0.1818182   0.0874818   0.0000000), wk =   0.1038961
        k(   11) = (   0.1818182   0.1749636   0.0000000), wk =   0.1038961
        k(   12) = (   0.1818182   0.2624454   0.0000000), wk =   0.1038961
        k(   13) = (   0.2727273   0.0000000   0.0000000), wk =   0.0519481
        k(   14) = (   0.2727273   0.0874818   0.0000000), wk =   0.1038961
        k(   15) = (   0.2727273   0.1749636   0.0000000), wk =   0.1038961
        k(   16) = (   0.2727273   0.2624454   0.0000000), wk =   0.1038961
        k(   17) = (   0.3636364   0.0000000   0.0000000), wk =   0.0519481
        k(   18) = (   0.3636364   0.0874818   0.0000000), wk =   0.1038961
        k(   19) = (   0.3636364   0.1749636   0.0000000), wk =   0.1038961
        k(   20) = (   0.3636364   0.2624454   0.0000000), wk =   0.1038961
        k(   21) = (   0.4545455   0.0000000   0.0000000), wk =   0.0519481
        k(   22) = (   0.4545455   0.0874818   0.0000000), wk =   0.1038961
        k(   23) = (   0.4545455   0.1749636   0.0000000), wk =   0.1038961
        k(   24) = (   0.4545455   0.2624454   0.0000000), wk =   0.1038961

                       cryst. coord.
        k(    1) = (   0.0000000   0.0000000   0.0000000), wk =   0.0259740
        k(    2) = (   0.0000000   0.1428571   0.0000000), wk =   0.0519481
        k(    3) = (   0.0000000   0.2857143   0.0000000), wk =   0.0519481
        k(    4) = (   0.0000000   0.4285714   0.0000000), wk =   0.0519481
        k(    5) = (   0.0909091   0.0000000   0.0000000), wk =   0.0519481
        k(    6) = (   0.0909091   0.1428571   0.0000000), wk =   0.1038961
        k(    7) = (   0.0909091   0.2857143   0.0000000), wk =   0.1038961
        k(    8) = (   0.0909091   0.4285714   0.0000000), wk =   0.1038961
        k(    9) = (   0.1818182   0.0000000   0.0000000), wk =   0.0519481
        k(   10) = (   0.1818182   0.1428571   0.0000000), wk =   0.1038961
        k(   11) = (   0.1818182   0.2857143   0.0000000), wk =   0.1038961
        k(   12) = (   0.1818182   0.4285714   0.0000000), wk =   0.1038961
        k(   13) = (   0.2727273   0.0000000   0.0000000), wk =   0.0519481
        k(   14) = (   0.2727273   0.1428571   0.0000000), wk =   0.1038961
        k(   15) = (   0.2727273   0.2857143   0.0000000), wk =   0.1038961
        k(   16) = (   0.2727273   0.4285714   0.0000000), wk =   0.1038961
        k(   17) = (   0.3636364   0.0000000   0.0000000), wk =   0.0519481
        k(   18) = (   0.3636364   0.1428571   0.0000000), wk =   0.1038961
        k(   19) = (   0.3636364   0.2857143   0.0000000), wk =   0.1038961
        k(   20) = (   0.3636364   0.4285714   0.0000000), wk =   0.1038961
        k(   21) = (   0.4545455   0.0000000   0.0000000), wk =   0.0519481
        k(   22) = (   0.4545455   0.1428571   0.0000000), wk =   0.1038961
        k(   23) = (   0.4545455   0.2857143   0.0000000), wk =   0.1038961
        k(   24) = (   0.4545455   0.4285714   0.0000000), wk =   0.1038961

     Dense  grid:  7013397 G-vectors     FFT dimensions: ( 108, 180, 810)

     Smooth grid:  1773951 G-vectors     FFT dimensions: (  72, 108, 512)

     Dynamical RAM for                 wfc:       0.95 MB

     Dynamical RAM for     wfc (w. buffer):      12.37 MB

     Dynamical RAM for           str. fact:       0.56 MB

     Dynamical RAM for           local pot:       0.00 MB

     Dynamical RAM for          nlocal pot:       3.38 MB

     Dynamical RAM for                qrad:       0.65 MB

     Dynamical RAM for          rho,v,vnew:       3.90 MB

     Dynamical RAM for               rhoin:       1.30 MB

     Dynamical RAM for            rho*nmix:       8.92 MB

     Dynamical RAM for           G-vectors:       2.16 MB

     Dynamical RAM for          h,s,v(r/c):       2.14 MB

     Dynamical RAM for          <psi|beta>:       0.16 MB

     Dynamical RAM for                 psi:       3.81 MB

     Dynamical RAM for                hpsi:       3.81 MB

     Dynamical RAM for                spsi:       3.81 MB

     Dynamical RAM for      wfcinit/wfcrot:       1.97 MB

     Dynamical RAM for           addusdens:      18.96 MB

     Dynamical RAM for          addusforce:      31.80 MB

     Estimated static dynamical RAM per process >      29.14 MB

     Estimated max dynamical RAM per process >     107.02 MB

     Estimated total dynamical RAM >      24.53 GB

     Initial potential from superposition of free atoms

     starting charge      71.8894, renormalised to      72.0000

     negative rho (up, down):  3.090E-03 0.000E+00
     Starting wfcs are random
     Checking if some PAW data can be deallocated... 

     total cpu time spent up to now is       23.4 secs

     Self-consistent Calculation

     iteration #  1     ecut=    80.00 Ry     beta= 0.20
     Davidson diagonalization with overlap

---- Real-time Memory Report at c_bands before calling an iterative solver
           458 MiB given to the printing process from OS
             0 MiB allocation reported by mallinfo(arena+hblkhd)
        214845 MiB available memory on the node where the printing process lives
------------------
     c_bands:  1 eigenvalues not converged
     c_bands:  1 eigenvalues not converged
     ethr =  1.00E-12,  avg # of iterations = 96.5

     negative rho (up, down):  2.313E-03 0.000E+00

     total cpu time spent up to now is      107.6 secs

     total energy              =    -360.90621036 Ry
     estimated scf accuracy    <       0.12205455 Ry

     total charge of GC-SCF    =       0.04518655 e
     the Fermi energy          =      -4.75075805 eV
                        (error :       1.34675805 eV)
     electrostatic embedding   =       0.00000000 Ry
     cavitation energy         =       0.02441359 Ry
     electrolyte free energy   =       0.00789959 Ry
     correction to one-el term =      -0.00000000 Ry

     iteration #  2     ecut=    80.00 Ry     beta= 0.20
     Davidson diagonalization with overlap

---- Real-time Memory Report at c_bands before calling an iterative solver
           458 MiB given to the printing process from OS
             0 MiB allocation reported by mallinfo(arena+hblkhd)
        213954 MiB available memory on the node where the printing process lives
------------------
     ethr =  1.00E-05,  avg # of iterations =  8.5

     negative rho (up, down):  1.649E-03 0.000E+00

     add environment contribution to local potential

     total cpu time spent up to now is      123.1 secs

     total energy              =    -360.71100653 Ry
     estimated scf accuracy    <       0.04931239 Ry

     total charge of GC-SCF    =       0.11370365 e
     the Fermi energy          =      -4.30659107 eV
                        (error :       0.90259107 eV)
     electrostatic embedding   =       0.00027845 Ry
     cavitation energy         =       0.02441359 Ry
     electrolyte free energy   =       0.00789959 Ry
     correction to one-el term =      -0.00000000 Ry

     iteration #  3     ecut=    80.00 Ry     beta= 0.20
     Davidson diagonalization with overlap

---- Real-time Memory Report at c_bands before calling an iterative solver
           458 MiB given to the printing process from OS
             0 MiB allocation reported by mallinfo(arena+hblkhd)
        213883 MiB available memory on the node where the printing process lives
------------------
     ethr =  1.00E-05,  avg # of iterations = 22.4

     negative rho (up, down):  1.340E-03 0.000E+00

     add environment contribution to local potential

     total cpu time spent up to now is      147.5 secs

     total energy              =    -360.77867655 Ry
     estimated scf accuracy    <       0.01301295 Ry

     total charge of GC-SCF    =       0.14648674 e
     the Fermi energy          =      -3.04995556 eV
                        (error :       0.35404444 eV)
     electrostatic embedding   =      -0.02792295 Ry
     cavitation energy         =       0.02441359 Ry
     electrolyte free energy   =      -0.00277870 Ry
     correction to one-el term =      -4.02876124 Ry

     iteration #  4     ecut=    80.00 Ry     beta= 0.20
     Davidson diagonalization with overlap

---- Real-time Memory Report at c_bands before calling an iterative solver
           458 MiB given to the printing process from OS
             0 MiB allocation reported by mallinfo(arena+hblkhd)
        213859 MiB available memory on the node where the printing process lives
------------------
     ethr =  1.00E-05,  avg # of iterations =  9.1

     negative rho (up, down):  1.059E-03 0.000E+00

     add environment contribution to local potential

     total cpu time spent up to now is      162.9 secs

     total energy              =    -360.76908670 Ry
     estimated scf accuracy    <       0.00968948 Ry

     total charge of GC-SCF    =       0.29096895 e
     the Fermi energy          =      -3.34874220 eV
                        (error :       0.05525780 eV)
     electrostatic embedding   =      -0.02726880 Ry
     cavitation energy         =       0.02441359 Ry
     electrolyte free energy   =      -0.00337122 Ry
     correction to one-el term =      -4.29344039 Ry

     iteration #  5     ecut=    80.00 Ry     beta= 0.20
     Davidson diagonalization with overlap

---- Real-time Memory Report at c_bands before calling an iterative solver
           458 MiB given to the printing process from OS
             0 MiB allocation reported by mallinfo(arena+hblkhd)
        213773 MiB available memory on the node where the printing process lives
------------------
     ethr =  1.00E-05,  avg # of iterations = 13.3

     negative rho (up, down):  8.958E-04 0.000E+00

     add environment contribution to local potential

     total cpu time spent up to now is      180.4 secs

     total energy              =    -360.78711850 Ry
     estimated scf accuracy    <       0.00176923 Ry

     total charge of GC-SCF    =       0.41410803 e
     the Fermi energy          =      -2.99561495 eV
                        (error :       0.40838505 eV)
     electrostatic embedding   =      -0.03456411 Ry
     cavitation energy         =       0.02441359 Ry
     electrolyte free energy   =      -0.00241730 Ry
     correction to one-el term =      -7.12518632 Ry

     iteration #  6     ecut=    80.00 Ry     beta= 0.20
     Davidson diagonalization with overlap

---- Real-time Memory Report at c_bands before calling an iterative solver
           458 MiB given to the printing process from OS
             0 MiB allocation reported by mallinfo(arena+hblkhd)
        213756 MiB available memory on the node where the printing process lives
------------------
     ethr =  2.47E-06,  avg # of iterations = 21.1

     negative rho (up, down):  8.209E-04 0.000E+00

     add environment contribution to local potential

     total cpu time spent up to now is      202.2 secs

     total energy              =    -360.80200455 Ry
     estimated scf accuracy    <       0.00323334 Ry

     total charge of GC-SCF    =       0.54730966 e
     the Fermi energy          =      -2.67701752 eV
                        (error :       0.72698248 eV)
     electrostatic embedding   =      -0.05146020 Ry
     cavitation energy         =       0.02441359 Ry
     electrolyte free energy   =      -0.00158198 Ry
     correction to one-el term =      -9.75990404 Ry

     iteration #  7     ecut=    80.00 Ry     beta= 0.20
     Davidson diagonalization with overlap

---- Real-time Memory Report at c_bands before calling an iterative solver
           458 MiB given to the printing process from OS
             0 MiB allocation reported by mallinfo(arena+hblkhd)
        213719 MiB available memory on the node where the printing process lives
------------------
     ethr =  2.47E-06,  avg # of iterations = 10.1

     negative rho (up, down):  7.314E-04 0.000E+00

     add environment contribution to local potential

     total cpu time spent up to now is      217.4 secs

     total energy              =    -360.81296472 Ry
     estimated scf accuracy    <       0.00131406 Ry

     total charge of GC-SCF    =       0.57419892 e
     the Fermi energy          =      -2.76521430 eV
                        (error :       0.63878570 eV)
     electrostatic embedding   =      -0.07326079 Ry
     cavitation energy         =       0.02441359 Ry
     electrolyte free energy   =      -0.00188962 Ry
     correction to one-el term =     -12.88894629 Ry

     iteration #  8     ecut=    80.00 Ry     beta= 0.20
     Davidson diagonalization with overlap

---- Real-time Memory Report at c_bands before calling an iterative solver
           458 MiB given to the printing process from OS
             0 MiB allocation reported by mallinfo(arena+hblkhd)
        213692 MiB available memory on the node where the printing process lives
------------------
     ethr =  1.84E-06,  avg # of iterations =  7.5

     negative rho (up, down):  7.456E-04 0.000E+00

     add environment contribution to local potential

     total cpu time spent up to now is      230.7 secs

     total energy              =    -360.80324894 Ry
     estimated scf accuracy    <       0.00044421 Ry

     total charge of GC-SCF    =       0.69706143 e
     the Fermi energy          =      -2.85992149 eV
                        (error :       0.54407851 eV)
     electrostatic embedding   =      -0.07711088 Ry
     cavitation energy         =       0.02441359 Ry
     electrolyte free energy   =      -0.00220445 Ry
     correction to one-el term =     -13.64721622 Ry

     iteration #  9     ecut=    80.00 Ry     beta= 0.20
     Davidson diagonalization with overlap

---- Real-time Memory Report at c_bands before calling an iterative solver
           458 MiB given to the printing process from OS
             0 MiB allocation reported by mallinfo(arena+hblkhd)
        213667 MiB available memory on the node where the printing process lives
------------------
     ethr =  6.23E-07,  avg # of iterations = 10.7

     negative rho (up, down):  1.034E-03 0.000E+00

     add environment contribution to local potential

     total cpu time spent up to now is      247.3 secs

     total energy              =    -360.80435966 Ry
     estimated scf accuracy    <       0.00192825 Ry

     total charge of GC-SCF    =       0.82740867 e
     the Fermi energy          =      -2.81760354 eV
                        (error :       0.58639646 eV)
     electrostatic embedding   =      -0.10374646 Ry
     cavitation energy         =       0.02441359 Ry
     electrolyte free energy   =      -0.00243278 Ry
     correction to one-el term =     -17.63310798 Ry

     iteration # 10     ecut=    80.00 Ry     beta= 0.20
     Davidson diagonalization with overlap

---- Real-time Memory Report at c_bands before calling an iterative solver
           458 MiB given to the printing process from OS
             0 MiB allocation reported by mallinfo(arena+hblkhd)
        213636 MiB available memory on the node where the printing process lives
------------------
     ethr =  6.23E-07,  avg # of iterations = 11.9

     negative rho (up, down):  8.944E-04 0.000E+00

     add environment contribution to local potential

     total cpu time spent up to now is      264.9 secs

     total energy              =    -360.80414100 Ry
     estimated scf accuracy    <       0.00064199 Ry

     total charge of GC-SCF    =       0.96179285 e
     the Fermi energy          =      -2.93881659 eV
                        (error :       0.46518341 eV)
     electrostatic embedding   =      -0.13771940 Ry
     cavitation energy         =       0.02441359 Ry
     electrolyte free energy   =      -0.00309439 Ry
     correction to one-el term =     -21.26854087 Ry

     iteration # 11     ecut=    80.00 Ry     beta= 0.20
     Davidson diagonalization with overlap

---- Real-time Memory Report at c_bands before calling an iterative solver
           458 MiB given to the printing process from OS
             0 MiB allocation reported by mallinfo(arena+hblkhd)
        213633 MiB available memory on the node where the printing process lives
------------------
     ethr =  6.23E-07,  avg # of iterations = 10.8

     negative rho (up, down):  4.806E-04 0.000E+00

     add environment contribution to local potential

     total cpu time spent up to now is      281.5 secs

     total energy              =    -360.80877999 Ry
     estimated scf accuracy    <       0.00011963 Ry

     total charge of GC-SCF    =       1.12383088 e
     the Fermi energy          =      -3.08234069 eV
                        (error :       0.32165931 eV)
     electrostatic embedding   =      -0.18126473 Ry
     cavitation energy         =       0.02441359 Ry
     electrolyte free energy   =      -0.00397243 Ry
     correction to one-el term =     -25.40815563 Ry

     iteration # 12     ecut=    80.00 Ry     beta= 0.20
     Davidson diagonalization with overlap

---- Real-time Memory Report at c_bands before calling an iterative solver
           458 MiB given to the printing process from OS
             0 MiB allocation reported by mallinfo(arena+hblkhd)
        213648 MiB available memory on the node where the printing process lives
------------------
     ethr =  1.69E-07,  avg # of iterations = 19.3

     negative rho (up, down):  4.509E-04 0.000E+00

     add environment contribution to local potential

     total cpu time spent up to now is      303.5 secs

     total energy              =    -360.81900022 Ry
     estimated scf accuracy    <       0.00011330 Ry

     total charge of GC-SCF    =       1.14187628 e
     the Fermi energy          =      -3.22937458 eV
                        (error :       0.17462542 eV)
     electrostatic embedding   =      -0.24689220 Ry
     cavitation energy         =       0.02441359 Ry
     electrolyte free energy   =      -0.00501255 Ry
     correction to one-el term =     -30.45189147 Ry

     iteration # 13     ecut=    80.00 Ry     beta= 0.20
     Davidson diagonalization with overlap

---- Real-time Memory Report at c_bands before calling an iterative solver
           458 MiB given to the printing process from OS
             0 MiB allocation reported by mallinfo(arena+hblkhd)
        213652 MiB available memory on the node where the printing process lives
------------------
     ethr =  1.60E-07,  avg # of iterations =  9.3

     negative rho (up, down):  1.381E-03 0.000E+00

     add environment contribution to local potential

     total cpu time spent up to now is      317.6 secs

     total energy              =    -360.81904063 Ry
     estimated scf accuracy    <       0.00008743 Ry

     total charge of GC-SCF    =       1.35262385 e
     the Fermi energy          =      -3.22849661 eV
                        (error :       0.17550339 eV)
     electrostatic embedding   =      -0.25431355 Ry
     cavitation energy         =       0.02441359 Ry
     electrolyte free energy   =      -0.00507652 Ry
     correction to one-el term =     -30.93707088 Ry

     iteration # 14     ecut=    80.00 Ry     beta= 0.20
     Davidson diagonalization with overlap

---- Real-time Memory Report at c_bands before calling an iterative solver
           458 MiB given to the printing process from OS
             0 MiB allocation reported by mallinfo(arena+hblkhd)
        213665 MiB available memory on the node where the printing process lives
------------------
     ethr =  1.24E-07,  avg # of iterations = 18.5

     negative rho (up, down):  7.476E-04 0.000E+00

     add environment contribution to local potential

     total cpu time spent up to now is      337.5 secs

     total energy              =    -360.82029269 Ry
     estimated scf accuracy    <       0.00001269 Ry

     total charge of GC-SCF    =       1.43371928 e
     the Fermi energy          =      -3.29459646 eV
                        (error :       0.10940354 eV)
     electrostatic embedding   =      -0.35272555 Ry
     cavitation energy         =       0.02441359 Ry
     electrolyte free energy   =      -0.00617349 Ry
     correction to one-el term =     -36.89684707 Ry

     iteration # 15     ecut=    80.00 Ry     beta= 0.20
     Davidson diagonalization with overlap

---- Real-time Memory Report at c_bands before calling an iterative solver
           458 MiB given to the printing process from OS
             0 MiB allocation reported by mallinfo(arena+hblkhd)
        213655 MiB available memory on the node where the printing process lives
------------------
     ethr =  1.80E-08,  avg # of iterations = 23.4

     negative rho (up, down):  4.808E-04 0.000E+00

     add environment contribution to local potential

     total cpu time spent up to now is      361.3 secs

     total energy              =    -360.82164220 Ry
     estimated scf accuracy    <       0.00002122 Ry

     total charge of GC-SCF    =       1.50980909 e
     the Fermi energy          =      -3.34657471 eV
                        (error :       0.05742529 eV)
     electrostatic embedding   =      -0.39748466 Ry
     cavitation energy         =       0.02441359 Ry
     electrolyte free energy   =      -0.00671637 Ry
     correction to one-el term =     -39.30004402 Ry

     iteration # 16     ecut=    80.00 Ry     beta= 0.20
     Davidson diagonalization with overlap

---- Real-time Memory Report at c_bands before calling an iterative solver
           458 MiB given to the printing process from OS
             0 MiB allocation reported by mallinfo(arena+hblkhd)
        213664 MiB available memory on the node where the printing process lives
------------------
     ethr =  1.80E-08,  avg # of iterations = 20.4

     negative rho (up, down):  4.190E-04 0.000E+00

     add environment contribution to local potential

     total cpu time spent up to now is      382.7 secs

     total energy              =    -360.82173584 Ry
     estimated scf accuracy    <       0.00000575 Ry

     total charge of GC-SCF    =       1.54238743 e
     the Fermi energy          =      -3.37999436 eV
                        (error :       0.02400564 eV)
     electrostatic embedding   =      -0.44295152 Ry
     cavitation energy         =       0.02441359 Ry
     electrolyte free energy   =      -0.00723029 Ry
     correction to one-el term =     -41.59783975 Ry

     iteration # 17     ecut=    80.00 Ry     beta= 0.20
     Davidson diagonalization with overlap

---- Real-time Memory Report at c_bands before calling an iterative solver
           458 MiB given to the printing process from OS
             0 MiB allocation reported by mallinfo(arena+hblkhd)
        213663 MiB available memory on the node where the printing process lives
------------------
     ethr =  8.17E-09,  avg # of iterations = 24.2

     negative rho (up, down):  3.974E-04 0.000E+00

     add environment contribution to local potential

     total cpu time spent up to now is      406.8 secs

     total energy              =    -360.82171143 Ry
     estimated scf accuracy    <       0.00000161 Ry

     total charge of GC-SCF    =       1.54633591 e
     the Fermi energy          =      -3.39119463 eV
                        (error :       0.01280537 eV)
     electrostatic embedding   =      -0.46358363 Ry
     cavitation energy         =       0.02441359 Ry
     electrolyte free energy   =      -0.00743977 Ry
     correction to one-el term =     -42.55516758 Ry

     iteration # 18     ecut=    80.00 Ry     beta= 0.20
     Davidson diagonalization with overlap

---- Real-time Memory Report at c_bands before calling an iterative solver
           458 MiB given to the printing process from OS
             0 MiB allocation reported by mallinfo(arena+hblkhd)
        213664 MiB available memory on the node where the printing process lives
------------------
     ethr =  2.29E-09,  avg # of iterations = 12.0

     negative rho (up, down):  3.816E-04 0.000E+00

     add environment contribution to local potential

     total cpu time spent up to now is      423.5 secs

     total energy              =    -360.82171394 Ry
     estimated scf accuracy    <       0.00000120 Ry

     total charge of GC-SCF    =       1.54556145 e
     the Fermi energy          =      -3.39481570 eV
                        (error :       0.00918430 eV)
     electrostatic embedding   =      -0.46624844 Ry
     cavitation energy         =       0.02441359 Ry
     electrolyte free energy   =      -0.00747447 Ry
     correction to one-el term =     -42.68665223 Ry

     iteration # 19     ecut=    80.00 Ry     beta= 0.20
     Davidson diagonalization with overlap

---- Real-time Memory Report at c_bands before calling an iterative solver
           458 MiB given to the printing process from OS
             0 MiB allocation reported by mallinfo(arena+hblkhd)
        213663 MiB available memory on the node where the printing process lives
------------------
     ethr =  1.70E-09,  avg # of iterations = 10.3

     negative rho (up, down):  3.669E-04 0.000E+00

     add environment contribution to local potential

     total cpu time spent up to now is      438.6 secs

     total energy              =    -360.82171107 Ry
     estimated scf accuracy    <       0.00000110 Ry

     total charge of GC-SCF    =       1.55140778 e
     the Fermi energy          =      -3.39555001 eV
                        (error :       0.00844999 eV)
     electrostatic embedding   =      -0.46594733 Ry
     cavitation energy         =       0.02441359 Ry
     electrolyte free energy   =      -0.00747499 Ry
     correction to one-el term =     -42.67809406 Ry

     iteration # 20     ecut=    80.00 Ry     beta= 0.20
     Davidson diagonalization with overlap

---- Real-time Memory Report at c_bands before calling an iterative solver
           458 MiB given to the printing process from OS
             0 MiB allocation reported by mallinfo(arena+hblkhd)
        213669 MiB available memory on the node where the printing process lives
------------------
     ethr =  1.56E-09,  avg # of iterations = 14.0

     negative rho (up, down):  3.944E-04 0.000E+00

     add environment contribution to local potential

     total cpu time spent up to now is      456.4 secs

     total energy              =    -360.82172681 Ry
     estimated scf accuracy    <       0.00000084 Ry

     total charge of GC-SCF    =       1.56336423 e
     the Fermi energy          =      -3.39707948 eV
                        (error :       0.00692052 eV)
     electrostatic embedding   =      -0.46916100 Ry
     cavitation energy         =       0.02441359 Ry
     electrolyte free energy   =      -0.00750773 Ry
     correction to one-el term =     -42.82199888 Ry

     iteration # 21     ecut=    80.00 Ry     beta= 0.20
     Davidson diagonalization with overlap

---- Real-time Memory Report at c_bands before calling an iterative solver
           458 MiB given to the printing process from OS
             0 MiB allocation reported by mallinfo(arena+hblkhd)
        213636 MiB available memory on the node where the printing process lives
------------------
     ethr =  1.19E-09,  avg # of iterations = 23.9

     negative rho (up, down):  3.892E-04 0.000E+00

     add environment contribution to local potential

     total cpu time spent up to now is      479.4 secs

     total energy              =    -360.82170866 Ry
     estimated scf accuracy    <       0.00000063 Ry

     total charge of GC-SCF    =       1.56216478 e
     the Fermi energy          =      -3.40232623 eV
                        (error :       0.00167377 eV)
     electrostatic embedding   =      -0.47585763 Ry
     cavitation energy         =       0.02441359 Ry
     electrolyte free energy   =      -0.00758410 Ry
     correction to one-el term =     -43.13249582 Ry

     iteration # 22     ecut=    80.00 Ry     beta= 0.20
     Davidson diagonalization with overlap

---- Real-time Memory Report at c_bands before calling an iterative solver
           458 MiB given to the printing process from OS
             0 MiB allocation reported by mallinfo(arena+hblkhd)
        213638 MiB available memory on the node where the printing process lives
------------------
     ethr =  8.95E-10,  avg # of iterations =  8.4

     negative rho (up, down):  3.968E-04 0.000E+00

     add environment contribution to local potential

     total cpu time spent up to now is      493.5 secs

     total energy              =    -360.82171347 Ry
     estimated scf accuracy    <       0.00000051 Ry

     total charge of GC-SCF    =       1.56815500 e
     the Fermi energy          =      -3.40257598 eV
                        (error :       0.00142402 eV)
     electrostatic embedding   =      -0.47517799 Ry
     cavitation energy         =       0.02441359 Ry
     electrolyte free energy   =      -0.00757886 Ry
     correction to one-el term =     -43.10282074 Ry

     iteration # 23     ecut=    80.00 Ry     beta= 0.20
     Davidson diagonalization with overlap

---- Real-time Memory Report at c_bands before calling an iterative solver
           458 MiB given to the printing process from OS
             0 MiB allocation reported by mallinfo(arena+hblkhd)
        213649 MiB available memory on the node where the printing process lives
------------------
     ethr =  7.18E-10,  avg # of iterations = 13.1

     negative rho (up, down):  3.881E-04 0.000E+00

     add environment contribution to local potential

     total cpu time spent up to now is      511.6 secs

     total energy              =    -360.82173395 Ry
     estimated scf accuracy    <       0.00000022 Ry

     total charge of GC-SCF    =       1.57928854 e
     the Fermi energy          =      -3.40507832 eV
                        (error :       0.00107832 eV)
     electrostatic embedding   =      -0.47887967 Ry
     cavitation energy         =       0.02441359 Ry
     electrolyte free energy   =      -0.00761935 Ry
     correction to one-el term =     -43.27460534 Ry

     iteration # 24     ecut=    80.00 Ry     beta= 0.20
     Davidson diagonalization with overlap

---- Real-time Memory Report at c_bands before calling an iterative solver
           458 MiB given to the printing process from OS
             0 MiB allocation reported by mallinfo(arena+hblkhd)
        213651 MiB available memory on the node where the printing process lives
------------------
     ethr =  3.19E-10,  avg # of iterations = 18.4

     negative rho (up, down):  3.753E-04 0.000E+00

     add environment contribution to local potential

     total cpu time spent up to now is      533.2 secs

     total energy              =    -360.82168337 Ry
     estimated scf accuracy    <       0.00000013 Ry

     total charge of GC-SCF    =       1.57180346 e
     the Fermi energy          =      -3.41092202 eV
                        (error :       0.00692202 eV)
     electrostatic embedding   =      -0.48589033 Ry
     cavitation energy         =       0.02441359 Ry
     electrolyte free energy   =      -0.00769909 Ry
     correction to one-el term =     -43.60230040 Ry

     iteration # 25     ecut=    80.00 Ry     beta= 0.20
     Davidson diagonalization with overlap

---- Real-time Memory Report at c_bands before calling an iterative solver
           458 MiB given to the printing process from OS
             0 MiB allocation reported by mallinfo(arena+hblkhd)
        213654 MiB available memory on the node where the printing process lives
------------------
     ethr =  1.78E-10,  avg # of iterations = 22.9

     negative rho (up, down):  3.693E-04 0.000E+00

     add environment contribution to local potential

     total cpu time spent up to now is      556.0 secs

     total energy              =    -360.82169670 Ry
     estimated scf accuracy    <       0.00000008 Ry

     total charge of GC-SCF    =       1.56448607 e
     the Fermi energy          =      -3.40785979 eV
                        (error :       0.00385979 eV)
     electrostatic embedding   =      -0.48137848 Ry
     cavitation energy         =       0.02441359 Ry
     electrolyte free energy   =      -0.00764929 Ry
     correction to one-el term =     -43.39319237 Ry

     iteration # 26     ecut=    80.00 Ry     beta= 0.20
     Davidson diagonalization with overlap

---- Real-time Memory Report at c_bands before calling an iterative solver
           458 MiB given to the printing process from OS
             0 MiB allocation reported by mallinfo(arena+hblkhd)
        213654 MiB available memory on the node where the printing process lives
------------------
     ethr =  1.14E-10,  avg # of iterations = 20.0

     negative rho (up, down):  3.858E-04 0.000E+00

     total cpu time spent up to now is      571.0 secs

     End of self-consistent calculation

          k = 0.0000 0.0000 0.0000 (221585 PWs)   bands (ev):

   -50.8483 -50.8482 -50.8482 -50.8481 -50.8404 -50.8403 -50.8403 -50.8403
   -50.0924 -50.0922 -50.0922 -50.0921 -50.0842 -50.0841 -50.0840 -50.0840
   -49.8512 -49.8471 -49.8471 -49.8426 -49.8419 -49.8390 -49.8389 -49.8359
    -6.7231  -5.8698  -5.5555  -5.5555  -4.7023  -4.7023  -4.4358  -3.6437
    -3.6105  -3.2779  -3.2779  -3.0194  -2.9860  -2.9860  -2.8795  -2.8729
    -2.7524  -2.4840  -2.4840  -1.8374  -1.7686  -1.7686  -1.6488  -1.6030
    -1.4727  -1.4726  -0.5336  -0.1635  -0.0971  -0.0185

     occupation numbers 
     1.0000   1.0000   1.0000   1.0000   1.0000   1.0000   1.0000   1.0000
     1.0000   1.0000   1.0000   1.0000   1.0000   1.0000   1.0000   1.0000
     1.0000   1.0000   1.0000   1.0000   1.0000   1.0000   1.0000   1.0000
     1.0000   1.0000   1.0000   1.0000   1.0000   1.0000   1.0000   1.0635
     1.0811   0.0377   0.0377   0.0000   0.0000   0.0000   0.0000   0.0000
     0.0000   0.0000   0.0000   0.0000   0.0000   0.0000   0.0000   0.0000
     0.0000   0.0000   0.0000   0.0000   0.0000   0.0000

          k = 0.0000 0.0875 0.0000 (221558 PWs)   bands (ev):

   -50.8483 -50.8482 -50.8482 -50.8481 -50.8404 -50.8403 -50.8403 -50.8403
   -50.0924 -50.0922 -50.0922 -50.0921 -50.0842 -50.0841 -50.0840 -50.0840
   -49.8511 -49.8480 -49.8461 -49.8427 -49.8418 -49.8396 -49.8383 -49.8360
    -6.6992  -5.8615  -5.8463  -5.2376  -4.9616  -4.4135  -4.3790  -3.6210
    -3.5895  -3.5259  -3.0502  -3.0411  -3.0243  -3.0097  -3.0003  -2.8544
    -2.7430  -2.5552  -2.4581  -2.0993  -1.9097  -1.6360  -1.6046  -1.5123
    -1.4694  -1.2973  -0.5572  -0.1282  -0.0842  -0.0602

     occupation numbers 
     1.0000   1.0000   1.0000   1.0000   1.0000   1.0000   1.0000   1.0000
     1.0000   1.0000   1.0000   1.0000   1.0000   1.0000   1.0000   1.0000
     1.0000   1.0000   1.0000   1.0000   1.0000   1.0000   1.0000   1.0000
     1.0000   1.0000   1.0000   1.0000   1.0000   1.0000   1.0000   1.0769
     1.0826   0.9892   0.0000   0.0000   0.0000   0.0000   0.0000   0.0000
     0.0000   0.0000   0.0000   0.0000   0.0000   0.0000   0.0000   0.0000
     0.0000   0.0000   0.0000   0.0000   0.0000   0.0000

          k = 0.0000 0.1750 0.0000 (221554 PWs)   bands (ev):

   -50.8483 -50.8482 -50.8482 -50.8481 -50.8404 -50.8403 -50.8403 -50.8403
   -50.0924 -50.0922 -50.0922 -50.0921 -50.0842 -50.0841 -50.0841 -50.0840
   -49.8508 -49.8489 -49.8452 -49.8431 -49.8416 -49.8402 -49.8376 -49.8362
    -6.6272  -6.1239  -5.7759  -5.2977  -4.7580  -4.3474  -4.1009  -3.6530
    -3.5547  -3.5273  -3.4195  -3.1741  -3.1487  -2.9432  -2.8066  -2.7930
    -2.7165  -2.5990  -2.5702  -2.5255  -1.8474  -1.6905  -1.6153  -1.3814
    -1.1920  -1.1019  -0.8277  -0.1521  -0.0539  -0.0282

     occupation numbers 
     1.0000   1.0000   1.0000   1.0000   1.0000   1.0000   1.0000   1.0000
     1.0000   1.0000   1.0000   1.0000   1.0000   1.0000   1.0000   1.0000
     1.0000   1.0000   1.0000   1.0000   1.0000   1.0000   1.0000   1.0000
     1.0000   1.0000   1.0000   1.0000   1.0000   1.0000   1.0000   1.0572
     1.0537   0.9934   0.4795   0.0016   0.0006   0.0000   0.0000   0.0000
     0.0000   0.0000   0.0000   0.0000   0.0000   0.0000   0.0000   0.0000
     0.0000   0.0000   0.0000   0.0000   0.0000   0.0000

          k = 0.0000 0.2624 0.0000 (221568 PWs)   bands (ev):

   -50.8483 -50.8482 -50.8482 -50.8481 -50.8404 -50.8403 -50.8403 -50.8403
   -50.0924 -50.0923 -50.0922 -50.0921 -50.0842 -50.0841 -50.0841 -50.0840
   -49.8504 -49.8497 -49.8443 -49.8436 -49.8412 -49.8408 -49.8371 -49.8366
    -6.5073  -6.3394  -5.6590  -5.4971  -4.3327  -4.2418  -4.1153  -3.8741
    -3.4499  -3.4271  -3.4098  -3.3169  -3.2956  -2.9831  -2.8490  -2.7444
    -2.7205  -2.7120  -2.6785  -2.6372  -1.7320  -1.6518  -1.5411  -1.2738
    -1.2147  -1.1957  -0.7166  -0.3742   0.0915   0.1322

     occupation numbers 
     1.0000   1.0000   1.0000   1.0000   1.0000   1.0000   1.0000   1.0000
     1.0000   1.0000   1.0000   1.0000   1.0000   1.0000   1.0000   1.0000
     1.0000   1.0000   1.0000   1.0000   1.0000   1.0000   1.0000   1.0000
     1.0000   1.0000   1.0000   1.0000   1.0000   1.0000   1.0000   1.0002
     0.6463   0.5205   0.4283   0.0926   0.0578   0.0000   0.0000   0.0000
     0.0000   0.0000   0.0000   0.0000   0.0000   0.0000   0.0000   0.0000
     0.0000   0.0000   0.0000   0.0000   0.0000   0.0000

          k = 0.0909 0.0000 0.0000 (221718 PWs)   bands (ev):

   -50.8481 -50.8480 -50.8480 -50.8480 -50.8406 -50.8405 -50.8404 -50.8404
   -50.0923 -50.0921 -50.0920 -50.0919 -50.0844 -50.0843 -50.0842 -50.0841
   -49.8511 -49.8469 -49.8469 -49.8425 -49.8421 -49.8391 -49.8391 -49.8360
    -6.6971  -5.8435  -5.5286  -5.5286  -4.6749  -4.6749  -4.4082  -4.1420
    -3.4314  -3.2468  -3.2467  -3.1681  -3.1681  -2.9765  -2.8451  -2.8425
    -2.5481  -2.5481  -2.5422  -1.8032  -1.6785  -1.6785  -1.6218  -1.6147
    -1.4457  -1.4457  -0.5044  -0.1285  -0.0661   0.0163

     occupation numbers 
     1.0000   1.0000   1.0000   1.0000   1.0000   1.0000   1.0000   1.0000
     1.0000   1.0000   1.0000   1.0000   1.0000   1.0000   1.0000   1.0000
     1.0000   1.0000   1.0000   1.0000   1.0000   1.0000   1.0000   1.0000
     1.0000   1.0000   1.0000   1.0000   1.0000   1.0000   1.0000   1.0000
     0.5442   0.0165   0.0165   0.0013   0.0013   0.0000   0.0000   0.0000
     0.0000   0.0000   0.0000   0.0000   0.0000   0.0000   0.0000   0.0000
     0.0000   0.0000   0.0000   0.0000   0.0000   0.0000

          k = 0.0909 0.0875 0.0000 (221669 PWs)   bands (ev):

   -50.8481 -50.8480 -50.8480 -50.8480 -50.8406 -50.8405 -50.8404 -50.8404
   -50.0923 -50.0921 -50.0920 -50.0919 -50.0844 -50.0843 -50.0842 -50.0841
   -49.8510 -49.8479 -49.8460 -49.8426 -49.8420 -49.8398 -49.8384 -49.8361
    -6.6731  -5.8348  -5.8200  -5.2106  -4.9344  -4.3859  -4.3514  -4.1194
    -3.4958  -3.4087  -3.3889  -3.0081  -2.9856  -2.9770  -2.9606  -2.8238
    -2.6864  -2.5315  -2.4374  -2.0656  -1.8758  -1.6304  -1.6111  -1.4791
    -1.4063  -1.2683  -0.5247  -0.0931  -0.0509  -0.0334

     occupation numbers 
     1.0000   1.0000   1.0000   1.0000   1.0000   1.0000   1.0000   1.0000
     1.0000   1.0000   1.0000   1.0000   1.0000   1.0000   1.0000   1.0000
     1.0000   1.0000   1.0000   1.0000   1.0000   1.0000   1.0000   1.0000
     1.0000   1.0000   1.0000   1.0000   1.0000   1.0000   1.0000   1.0000
     0.8786   0.4229   0.3263   0.0000   0.0000   0.0000   0.0000   0.0000
     0.0000   0.0000   0.0000   0.0000   0.0000   0.0000   0.0000   0.0000
     0.0000   0.0000   0.0000   0.0000   0.0000   0.0000

          k = 0.0909 0.1750 0.0000 (221668 PWs)   bands (ev):

   -50.8481 -50.8480 -50.8480 -50.8480 -50.8406 -50.8405 -50.8405 -50.8404
   -50.0922 -50.0921 -50.0920 -50.0919 -50.0844 -50.0843 -50.0842 -50.0841
   -49.8507 -49.8487 -49.8450 -49.8429 -49.8418 -49.8404 -49.8378 -49.8363
    -6.6011  -6.0974  -5.7496  -5.2710  -4.7302  -4.3197  -4.0730  -4.0519
    -3.6234  -3.6024  -3.3885  -3.3419  -2.9641  -2.9153  -2.7753  -2.7630
    -2.7587  -2.5014  -2.4934  -2.3908  -1.9383  -1.6672  -1.6641  -1.3493
    -1.1614  -1.1037  -0.7966  -0.2698  -0.0216   0.0069

     occupation numbers 
     1.0000   1.0000   1.0000   1.0000   1.0000   1.0000   1.0000   1.0000
     1.0000   1.0000   1.0000   1.0000   1.0000   1.0000   1.0000   1.0000
     1.0000   1.0000   1.0000   1.0000   1.0000   1.0000   1.0000   1.0000
     1.0000   1.0000   1.0000   1.0000   1.0000   1.0000   1.0000   1.0000
     1.0758   1.0829   0.3245   0.1520   0.0000   0.0000   0.0000   0.0000
     0.0000   0.0000   0.0000   0.0000   0.0000   0.0000   0.0000   0.0000
     0.0000   0.0000   0.0000   0.0000   0.0000   0.0000

          k = 0.0909 0.2624 0.0000 (221625 PWs)   bands (ev):

   -50.8481 -50.8480 -50.8480 -50.8480 -50.8406 -50.8405 -50.8405 -50.8404
   -50.0922 -50.0921 -50.0920 -50.0919 -50.0844 -50.0843 -50.0842 -50.0841
   -49.8502 -49.8495 -49.8442 -49.8435 -49.8414 -49.8410 -49.8372 -49.8367
    -6.4811  -6.3131  -5.6326  -5.4705  -4.3042  -4.2139  -4.0872  -3.9410
    -3.8447  -3.7895  -3.3800  -3.2349  -3.0975  -2.9524  -2.8502  -2.7889
    -2.7120  -2.6780  -2.4583  -2.4131  -1.8565  -1.7406  -1.5168  -1.2425
    -1.1870  -1.1644  -0.8112  -0.5396   0.1241   0.1672

     occupation numbers 
     1.0000   1.0000   1.0000   1.0000   1.0000   1.0000   1.0000   1.0000
     1.0000   1.0000   1.0000   1.0000   1.0000   1.0000   1.0000   1.0000
     1.0000   1.0000   1.0000   1.0000   1.0000   1.0000   1.0000   1.0000
     1.0000   1.0000   1.0000   1.0000   1.0000   1.0000   1.0000   1.0000
     1.0005   1.0031   0.2869   0.0117   0.0001   0.0000   0.0000   0.0000
     0.0000   0.0000   0.0000   0.0000   0.0000   0.0000   0.0000   0.0000
     0.0000   0.0000   0.0000   0.0000   0.0000   0.0000

          k = 0.1818 0.0000 0.0000 (221744 PWs)   bands (ev):

   -50.8477 -50.8476 -50.8475 -50.8475 -50.8410 -50.8409 -50.8409 -50.8409
   -50.0918 -50.0916 -50.0915 -50.0914 -50.0849 -50.0848 -50.0847 -50.0846
   -49.8505 -49.8465 -49.8464 -49.8426 -49.8421 -49.8396 -49.8396 -49.8364
    -6.6189  -5.7648  -5.4482  -5.4482  -4.6248  -4.5931  -4.5931  -4.3258
    -3.8279  -3.5277  -3.5277  -3.1537  -3.1537  -2.7804  -2.7804  -2.7520
    -2.7420  -2.5998  -2.3680  -1.7006  -1.5559  -1.5559  -1.5123  -1.4887
    -1.3655  -1.3654  -0.4194  -0.1207  -0.0235   0.0247

     occupation numbers 
     1.0000   1.0000   1.0000   1.0000   1.0000   1.0000   1.0000   1.0000
     1.0000   1.0000   1.0000   1.0000   1.0000   1.0000   1.0000   1.0000
     1.0000   1.0000   1.0000   1.0000   1.0000   1.0000   1.0000   1.0000
     1.0000   1.0000   1.0000   1.0000   1.0000   1.0000   1.0000   1.0000
     1.0009   0.9944   0.9944   0.0008   0.0008   0.0000   0.0000   0.0000
     0.0000   0.0000   0.0000   0.0000   0.0000   0.0000   0.0000   0.0000
     0.0000   0.0000   0.0000   0.0000   0.0000   0.0000

          k = 0.1818 0.0875 0.0000 (221735 PWs)   bands (ev):

   -50.8477 -50.8476 -50.8475 -50.8475 -50.8410 -50.8409 -50.8409 -50.8409
   -50.0918 -50.0916 -50.0915 -50.0914 -50.0849 -50.0848 -50.0847 -50.0846
   -49.8504 -49.8474 -49.8455 -49.8426 -49.8422 -49.8403 -49.8389 -49.8365
    -6.5949  -5.7551  -5.7412  -5.1297  -4.8529  -4.6014  -4.3033  -4.2686
    -3.8053  -3.8046  -3.4059  -3.2586  -2.9816  -2.9093  -2.8791  -2.7322
    -2.5760  -2.5418  -2.3650  -1.9649  -1.7860  -1.5374  -1.5328  -1.3797
    -1.3477  -1.1818  -0.4278  -0.3375  -0.0275   0.0121

     occupation numbers 
     1.0000   1.0000   1.0000   1.0000   1.0000   1.0000   1.0000   1.0000
     1.0000   1.0000   1.0000   1.0000   1.0000   1.0000   1.0000   1.0000
     1.0000   1.0000   1.0000   1.0000   1.0000   1.0000   1.0000   1.0000
     1.0000   1.0000   1.0000   1.0000   1.0000   1.0000   1.0000   1.0000
     1.0019   1.0019   0.4082   0.0228   0.0000   0.0000   0.0000   0.0000
     0.0000   0.0000   0.0000   0.0000   0.0000   0.0000   0.0000   0.0000
     0.0000   0.0000   0.0000   0.0000   0.0000   0.0000

          k = 0.1818 0.1750 0.0000 (221735 PWs)   bands (ev):

   -50.8477 -50.8476 -50.8475 -50.8475 -50.8410 -50.8409 -50.8409 -50.8409
   -50.0918 -50.0916 -50.0915 -50.0914 -50.0849 -50.0848 -50.0847 -50.0846
   -49.8501 -49.8482 -49.8446 -49.8425 -49.8423 -49.8409 -49.8382 -49.8367
    -6.5228  -6.0182  -5.6706  -5.1910  -4.6470  -4.5313  -4.2368  -4.0492
    -3.9894  -3.7379  -3.5348  -3.3006  -3.2959  -2.8415  -2.6820  -2.6558
    -2.5067  -2.3973  -2.3635  -2.3232  -2.0109  -1.6764  -1.5984  -1.2534
    -1.1686  -1.0701  -0.7044  -0.5895  -0.0337   0.0741

     occupation numbers 
     1.0000   1.0000   1.0000   1.0000   1.0000   1.0000   1.0000   1.0000
     1.0000   1.0000   1.0000   1.0000   1.0000   1.0000   1.0000   1.0000
     1.0000   1.0000   1.0000   1.0000   1.0000   1.0000   1.0000   1.0000
     1.0000   1.0000   1.0000   1.0000   1.0000   1.0000   1.0000   1.0000
     1.0000   1.0122   1.0135   0.0649   0.0581   0.0000   0.0000   0.0000
     0.0000   0.0000   0.0000   0.0000   0.0000   0.0000   0.0000   0.0000
     0.0000   0.0000   0.0000   0.0000   0.0000   0.0000

          k = 0.1818 0.2624 0.0000 (221799 PWs)   bands (ev):

   -50.8477 -50.8476 -50.8476 -50.8475 -50.8410 -50.8409 -50.8409 -50.8409
   -50.0917 -50.0916 -50.0915 -50.0914 -50.0848 -50.0848 -50.0847 -50.0846
   -49.8496 -49.8490 -49.8438 -49.8431 -49.8420 -49.8415 -49.8376 -49.8371
    -6.4026  -6.2343  -5.5534  -5.3909  -4.4151  -4.2538  -4.2191  -4.1305
    -4.0033  -3.7566  -3.6272  -3.4771  -3.2910  -2.8606  -2.6151  -2.5766
    -2.5763  -2.4398  -2.3540  -2.2096  -2.1279  -1.9038  -1.4450  -1.1501
    -1.1041  -1.0709  -0.9884  -0.7956  -0.0400   0.0379

     occupation numbers 
     1.0000   1.0000   1.0000   1.0000   1.0000   1.0000   1.0000   1.0000
     1.0000   1.0000   1.0000   1.0000   1.0000   1.0000   1.0000   1.0000
     1.0000   1.0000   1.0000   1.0000   1.0000   1.0000   1.0000   1.0000
     1.0000   1.0000   1.0000   1.0000   1.0000   1.0000   1.0000   1.0000
     1.0000   1.0077   1.0737   0.7910   0.0519   0.0000   0.0000   0.0000
     0.0000   0.0000   0.0000   0.0000   0.0000   0.0000   0.0000   0.0000
     0.0000   0.0000   0.0000   0.0000   0.0000   0.0000

          k = 0.2727 0.0000 0.0000 (221756 PWs)   bands (ev):

   -50.8469 -50.8468 -50.8468 -50.8468 -50.8418 -50.8417 -50.8416 -50.8416
   -50.0910 -50.0908 -50.0908 -50.0907 -50.0856 -50.0855 -50.0854 -50.0854
   -49.8497 -49.8457 -49.8457 -49.8435 -49.8414 -49.8404 -49.8403 -49.8370
    -6.4887  -5.6339  -5.3147  -5.3147  -5.0617  -4.4577  -4.4577  -4.2338
    -4.1894  -3.9131  -3.9131  -3.1014  -3.1014  -3.0001  -3.0001  -2.8418
    -2.6030  -2.5703  -1.8397  -1.6365  -1.6365  -1.5297  -1.3421  -1.2610
    -1.2336  -1.2336  -0.6937  -0.2889  -0.1369  -0.1369

     occupation numbers 
     1.0000   1.0000   1.0000   1.0000   1.0000   1.0000   1.0000   1.0000
     1.0000   1.0000   1.0000   1.0000   1.0000   1.0000   1.0000   1.0000
     1.0000   1.0000   1.0000   1.0000   1.0000   1.0000   1.0000   1.0000
     1.0000   1.0000   1.0000   1.0000   1.0000   1.0000   1.0000   1.0000
     1.0000   1.0000   1.0000   0.0001   0.0001   0.0000   0.0000   0.0000
     0.0000   0.0000   0.0000   0.0000   0.0000   0.0000   0.0000   0.0000
     0.0000   0.0000   0.0000   0.0000   0.0000   0.0000

          k = 0.2727 0.0875 0.0000 (221778 PWs)   bands (ev):

   -50.8469 -50.8468 -50.8468 -50.8468 -50.8418 -50.8417 -50.8416 -50.8416
   -50.0910 -50.0908 -50.0908 -50.0907 -50.0856 -50.0855 -50.0855 -50.0854
   -49.8496 -49.8466 -49.8448 -49.8434 -49.8415 -49.8411 -49.8396 -49.8371
    -6.4646  -5.6225  -5.6102  -5.0378  -4.9955  -4.7178  -4.2109  -4.2105
    -4.1667  -4.1319  -3.6137  -3.3350  -3.2574  -2.8190  -2.8058  -2.7456
    -2.7170  -2.5811  -1.8966  -1.8357  -1.7977  -1.4173  -1.4122  -1.3598
    -1.2153  -1.0392  -0.7776  -0.4150  -0.2705   0.0049

     occupation numbers 
     1.0000   1.0000   1.0000   1.0000   1.0000   1.0000   1.0000   1.0000
     1.0000   1.0000   1.0000   1.0000   1.0000   1.0000   1.0000   1.0000
     1.0000   1.0000   1.0000   1.0000   1.0000   1.0000   1.0000   1.0000
     1.0000   1.0000   1.0000   1.0000   1.0000   1.0000   1.0000   1.0000
     1.0000   1.0000   1.0800   0.1333   0.0221   0.0000   0.0000   0.0000
     0.0000   0.0000   0.0000   0.0000   0.0000   0.0000   0.0000   0.0000
     0.0000   0.0000   0.0000   0.0000   0.0000   0.0000

          k = 0.2727 0.1750 0.0000 (221876 PWs)   bands (ev):

   -50.8469 -50.8468 -50.8468 -50.8468 -50.8418 -50.8417 -50.8417 -50.8416
   -50.0910 -50.0908 -50.0908 -50.0907 -50.0856 -50.0855 -50.0855 -50.0854
   -49.8493 -49.8474 -49.8439 -49.8432 -49.8419 -49.8418 -49.8389 -49.8374
    -6.3923  -5.8864  -5.5394  -5.0583  -4.9663  -4.5094  -4.4684  -4.1411
    -4.0998  -3.8516  -3.6768  -3.3886  -3.1427  -3.1324  -2.7525  -2.5420
    -2.5279  -2.4846  -2.2388  -2.0724  -1.8953  -1.7144  -1.4881  -1.1477
    -1.0957  -0.9190  -0.9101  -0.5628  -0.5541  -0.1979

     occupation numbers 
     1.0000   1.0000   1.0000   1.0000   1.0000   1.0000   1.0000   1.0000
     1.0000   1.0000   1.0000   1.0000   1.0000   1.0000   1.0000   1.0000
     1.0000   1.0000   1.0000   1.0000   1.0000   1.0000   1.0000   1.0000
     1.0000   1.0000   1.0000   1.0000   1.0000   1.0000   1.0000   1.0000
     1.0000   1.0004   1.0410   0.3247   0.0005   0.0003   0.0000   0.0000
     0.0000   0.0000   0.0000   0.0000   0.0000   0.0000   0.0000   0.0000
     0.0000   0.0000   0.0000   0.0000   0.0000   0.0000

          k = 0.2727 0.2624 0.0000 (221844 PWs)   bands (ev):

   -50.8469 -50.8468 -50.8468 -50.8468 -50.8418 -50.8417 -50.8417 -50.8416
   -50.0910 -50.0909 -50.0908 -50.0907 -50.0856 -50.0855 -50.0855 -50.0854
   -49.8488 -49.8482 -49.8431 -49.8428 -49.8424 -49.8424 -49.8383 -49.8378
    -6.2718  -6.1031  -5.4218  -5.2589  -4.8472  -4.6810  -4.0785  -4.0262
    -3.9927  -3.8682  -3.8647  -3.6111  -3.1442  -2.7405  -2.7094  -2.6534
    -2.4960  -2.4548  -2.4072  -2.2647  -1.9969  -1.8281  -1.3305  -1.0976
    -1.0501  -1.0043  -0.9641  -0.9163  -0.4937  -0.3579

     occupation numbers 
     1.0000   1.0000   1.0000   1.0000   1.0000   1.0000   1.0000   1.0000
     1.0000   1.0000   1.0000   1.0000   1.0000   1.0000   1.0000   1.0000
     1.0000   1.0000   1.0000   1.0000   1.0000   1.0000   1.0000   1.0000
     1.0000   1.0000   1.0000   1.0000   1.0000   1.0000   1.0000   1.0000
     1.0000   1.0002   1.0002   1.0809   0.0005   0.0000   0.0000   0.0000
     0.0000   0.0000   0.0000   0.0000   0.0000   0.0000   0.0000   0.0000
     0.0000   0.0000   0.0000   0.0000   0.0000   0.0000

          k = 0.3636 0.0000 0.0000 (221758 PWs)   bands (ev):

   -50.8460 -50.8459 -50.8459 -50.8458 -50.8427 -50.8426 -50.8426 -50.8426
   -50.0900 -50.0899 -50.0898 -50.0897 -50.0866 -50.0865 -50.0864 -50.0863
   -49.8485 -49.8447 -49.8447 -49.8447 -49.8414 -49.8413 -49.8406 -49.8378
    -6.3064  -5.4514  -5.4494  -5.1289  -5.1289  -4.6061  -4.2786  -4.2786
    -4.2704  -4.2704  -4.0007  -3.4372  -3.4372  -3.1656  -2.7886  -2.7886
    -2.3995  -2.3301  -1.9012  -1.9012  -1.6659  -1.2908  -1.2027  -1.1054
    -1.0538  -1.0538  -0.9143  -0.3379  -0.3379  -0.1729

     occupation numbers 
     1.0000   1.0000   1.0000   1.0000   1.0000   1.0000   1.0000   1.0000
     1.0000   1.0000   1.0000   1.0000   1.0000   1.0000   1.0000   1.0000
     1.0000   1.0000   1.0000   1.0000   1.0000   1.0000   1.0000   1.0000
     1.0000   1.0000   1.0000   1.0000   1.0000   1.0000   1.0000   1.0000
     1.0000   1.0000   1.0000   0.5762   0.5761   0.0012   0.0000   0.0000
     0.0000   0.0000   0.0000   0.0000   0.0000   0.0000   0.0000   0.0000
     0.0000   0.0000   0.0000   0.0000   0.0000   0.0000

          k = 0.3636 0.0875 0.0000 (221868 PWs)   bands (ev):

   -50.8460 -50.8459 -50.8459 -50.8458 -50.8427 -50.8426 -50.8426 -50.8426
   -50.0900 -50.0899 -50.0898 -50.0897 -50.0866 -50.0865 -50.0864 -50.0863
   -49.8485 -49.8456 -49.8446 -49.8438 -49.8421 -49.8407 -49.8406 -49.8379
    -6.2823  -5.4378  -5.4277  -5.4253  -4.8093  -4.5848  -4.5825  -4.5306
    -3.9779  -3.9666  -3.9434  -3.6863  -3.1425  -3.1197  -3.0529  -2.5191
    -2.4932  -2.3736  -2.1814  -1.6548  -1.5657  -1.5657  -1.5167  -1.2561
    -0.9895  -0.8967  -0.8430  -0.6520  -0.3501  -0.0671

     occupation numbers 
     1.0000   1.0000   1.0000   1.0000   1.0000   1.0000   1.0000   1.0000
     1.0000   1.0000   1.0000   1.0000   1.0000   1.0000   1.0000   1.0000
     1.0000   1.0000   1.0000   1.0000   1.0000   1.0000   1.0000   1.0000
     1.0000   1.0000   1.0000   1.0000   1.0000   1.0000   1.0000   1.0000
     1.0000   1.0000   1.0000   1.0351   0.0005   0.0002   0.0000   0.0000
     0.0000   0.0000   0.0000   0.0000   0.0000   0.0000   0.0000   0.0000
     0.0000   0.0000   0.0000   0.0000   0.0000   0.0000

          k = 0.3636 0.1750 0.0000 (221891 PWs)   bands (ev):

   -50.8460 -50.8459 -50.8459 -50.8458 -50.8427 -50.8426 -50.8426 -50.8426
   -50.0900 -50.0899 -50.0898 -50.0897 -50.0866 -50.0865 -50.0864 -50.0863
   -49.8482 -49.8464 -49.8443 -49.8430 -49.8428 -49.8410 -49.8398 -49.8382
    -6.2098  -5.7025  -5.3566  -5.3530  -4.8739  -4.8477  -4.5119  -4.3188
    -4.0348  -3.9103  -3.6618  -3.4693  -3.1871  -3.0744  -2.9315  -2.8431
    -2.3317  -2.3165  -2.2457  -2.0422  -2.0209  -1.5823  -1.3448  -1.1980
    -1.1881  -0.9339  -0.8815  -0.7107  -0.4197  -0.3547

     occupation numbers 
     1.0000   1.0000   1.0000   1.0000   1.0000   1.0000   1.0000   1.0000
     1.0000   1.0000   1.0000   1.0000   1.0000   1.0000   1.0000   1.0000
     1.0000   1.0000   1.0000   1.0000   1.0000   1.0000   1.0000   1.0000
     1.0000   1.0000   1.0000   1.0000   1.0000   1.0000   1.0000   1.0000
     1.0000   1.0000   1.0511   0.7511   0.0025   0.0000   0.0000   0.0000
     0.0000   0.0000   0.0000   0.0000   0.0000   0.0000   0.0000   0.0000
     0.0000   0.0000   0.0000   0.0000   0.0000   0.0000

          k = 0.3636 0.2624 0.0000 (221911 PWs)   bands (ev):

   -50.8460 -50.8459 -50.8459 -50.8458 -50.8427 -50.8426 -50.8426 -50.8426
   -50.0900 -50.0899 -50.0898 -50.0897 -50.0866 -50.0865 -50.0864 -50.0863
   -49.8477 -49.8471 -49.8440 -49.8434 -49.8422 -49.8415 -49.8392 -49.8386
    -6.0890  -5.9198  -5.2387  -5.2325  -5.0752  -5.0640  -4.3948  -4.2329
    -3.8842  -3.8023  -3.6735  -3.4104  -3.0390  -2.9675  -2.9427  -2.8333
    -2.5482  -2.5022  -2.2337  -2.1716  -2.1307  -1.7496  -1.3291  -1.1832
    -1.1718  -0.8294  -0.8217  -0.7568  -0.7035  -0.5269

     occupation numbers 
     1.0000   1.0000   1.0000   1.0000   1.0000   1.0000   1.0000   1.0000
     1.0000   1.0000   1.0000   1.0000   1.0000   1.0000   1.0000   1.0000
     1.0000   1.0000   1.0000   1.0000   1.0000   1.0000   1.0000   1.0000
     1.0000   1.0000   1.0000   1.0000   1.0000   1.0000   1.0000   1.0000
     1.0001   1.0021   1.0432   0.4314   0.0000   0.0000   0.0000   0.0000
     0.0000   0.0000   0.0000   0.0000   0.0000   0.0000   0.0000   0.0000
     0.0000   0.0000   0.0000   0.0000   0.0000   0.0000

          k = 0.4545 0.0000 0.0000 (221854 PWs)   bands (ev):

   -50.8449 -50.8448 -50.8448 -50.8448 -50.8438 -50.8437 -50.8437 -50.8436
   -50.0889 -50.0887 -50.0887 -50.0886 -50.0877 -50.0876 -50.0875 -50.0874
   -49.8473 -49.8459 -49.8436 -49.8436 -49.8425 -49.8424 -49.8397 -49.8387
    -6.0723  -5.7865  -5.2182  -4.9357  -4.8925  -4.8924  -4.6076  -4.6076
    -4.0341  -4.0341  -3.7628  -3.7535  -3.7535  -3.4809  -2.5248  -2.5248
    -2.2200  -2.2200  -2.1501  -2.0218  -1.8778  -1.6458  -0.9844  -0.8329
    -0.8329  -0.8066  -0.6113  -0.5847  -0.5846  -0.5173

     occupation numbers 
     1.0000   1.0000   1.0000   1.0000   1.0000   1.0000   1.0000   1.0000
     1.0000   1.0000   1.0000   1.0000   1.0000   1.0000   1.0000   1.0000
     1.0000   1.0000   1.0000   1.0000   1.0000   1.0000   1.0000   1.0000
     1.0000   1.0000   1.0000   1.0000   1.0000   1.0000   1.0000   1.0000
     1.0000   1.0000   1.0065   1.0083   1.0083   0.8097   0.0000   0.0000
     0.0000   0.0000   0.0000   0.0000   0.0000   0.0000   0.0000   0.0000
     0.0000   0.0000   0.0000   0.0000   0.0000   0.0000

          k = 0.4545 0.0875 0.0000 (221817 PWs)   bands (ev):

   -50.8449 -50.8448 -50.8448 -50.8448 -50.8438 -50.8437 -50.8437 -50.8436
   -50.0889 -50.0887 -50.0887 -50.0886 -50.0877 -50.0876 -50.0875 -50.0874
   -49.8472 -49.8459 -49.8444 -49.8432 -49.8427 -49.8416 -49.8398 -49.8388
    -6.0481  -5.7623  -5.2020  -5.1944  -4.9167  -4.9119  -4.5731  -4.2933
    -4.2902  -4.0098  -3.7397  -3.7066  -3.4577  -3.4281  -2.7972  -2.4998
    -2.2355  -2.2129  -2.1152  -1.9158  -1.8899  -1.8164  -1.2742  -1.0632
    -0.9533  -0.8554  -0.7151  -0.5987  -0.4809  -0.3183

     occupation numbers 
     1.0000   1.0000   1.0000   1.0000   1.0000   1.0000   1.0000   1.0000
     1.0000   1.0000   1.0000   1.0000   1.0000   1.0000   1.0000   1.0000
     1.0000   1.0000   1.0000   1.0000   1.0000   1.0000   1.0000   1.0000
     1.0000   1.0000   1.0000   1.0000   1.0000   1.0000   1.0000   1.0000
     1.0000   1.0000   1.0117   1.0241   0.6893   0.5261   0.0000   0.0000
     0.0000   0.0000   0.0000   0.0000   0.0000   0.0000   0.0000   0.0000
     0.0000   0.0000   0.0000   0.0000   0.0000   0.0000

          k = 0.4545 0.1750 0.0000 (221898 PWs)   bands (ev):

   -50.8449 -50.8448 -50.8448 -50.8448 -50.8438 -50.8437 -50.8437 -50.8436
   -50.0889 -50.0888 -50.0887 -50.0886 -50.0877 -50.0876 -50.0875 -50.0874
   -49.8469 -49.8456 -49.8452 -49.8440 -49.8419 -49.8409 -49.8401 -49.8391
    -5.9755  -5.6897  -5.4673  -5.1817  -5.1232  -4.8408  -4.6397  -4.3585
    -4.0779  -3.7916  -3.6716  -3.4244  -3.3893  -3.1468  -2.9351  -2.6671
    -2.6422  -2.3607  -2.0554  -1.9405  -1.7689  -1.7517  -1.5743  -1.4551
    -1.1853  -1.0423  -0.6293  -0.4503  -0.4301  -0.1505

     occupation numbers 
     1.0000   1.0000   1.0000   1.0000   1.0000   1.0000   1.0000   1.0000
     1.0000   1.0000   1.0000   1.0000   1.0000   1.0000   1.0000   1.0000
     1.0000   1.0000   1.0000   1.0000   1.0000   1.0000   1.0000   1.0000
     1.0000   1.0000   1.0000   1.0000   1.0000   1.0000   1.0000   1.0000
     1.0000   1.0029   1.0444   0.5059   0.3280   0.0006   0.0000   0.0000
     0.0000   0.0000   0.0000   0.0000   0.0000   0.0000   0.0000   0.0000
     0.0000   0.0000   0.0000   0.0000   0.0000   0.0000

          k = 0.4545 0.2624 0.0000 (221919 PWs)   bands (ev):

   -50.8449 -50.8448 -50.8448 -50.8448 -50.8438 -50.8437 -50.8437 -50.8436
   -50.0889 -50.0888 -50.0887 -50.0886 -50.0877 -50.0876 -50.0875 -50.0874
   -49.8465 -49.8459 -49.8452 -49.8447 -49.8412 -49.8406 -49.8401 -49.8396
    -5.8545  -5.6850  -5.5687  -5.3993  -5.0050  -4.8412  -4.7228  -4.5593
    -3.6399  -3.5629  -3.4333  -3.3529  -3.2805  -3.1589  -3.1501  -2.8651
    -2.6927  -2.4085  -2.2472  -1.9670  -1.9578  -1.8722  -1.6425  -1.5174
    -1.0244  -0.8975  -0.6538  -0.5395  -0.4876  -0.4393

     occupation numbers 
     1.0000   1.0000   1.0000   1.0000   1.0000   1.0000   1.0000   1.0000
     1.0000   1.0000   1.0000   1.0000   1.0000   1.0000   1.0000   1.0000
     1.0000   1.0000   1.0000   1.0000   1.0000   1.0000   1.0000   1.0000
     1.0000   1.0000   1.0000   1.0000   1.0000   1.0000   1.0000   1.0000
     1.0660   1.0648   0.5548   0.1852   0.0402   0.0009   0.0007   0.0000
     0.0000   0.0000   0.0000   0.0000   0.0000   0.0000   0.0000   0.0000
     0.0000   0.0000   0.0000   0.0000   0.0000   0.0000

     the Fermi energy is    -3.4044 ev

!    total energy              =    -360.82170309 Ry
     total all-electron energy =      -360.821898 Ry
     estimated scf accuracy    <       0.00000005 Ry

!    total charge of GC-SCF    =       1.56425582 e
     smearing contrib. (-TS)   =      -0.00107066 Ry
     internal energy E=F+TS    =    -360.82063243 Ry

     The total energy is F=E-TS. E is the sum of the following terms:
     one-electron contribution =   -3344.99442614 Ry
     hartree contribution      =    1631.33227542 Ry
     xc contribution           =     -85.43018283 Ry
     ewald contribution        =    1480.19070246 Ry
     one-center paw contrib.   =       2.11658269 Ry
      -> PAW hartree energy AE =       7.29288889 Ry
      -> PAW hartree energy PS =      -7.07014031 Ry
      -> PAW xc energy AE      =      -3.46224516 Ry
      -> PAW xc energy PS      =       3.32772444 Ry
      -> total E_H with PAW    =    1631.55502400 Ry
      -> total E_XC with PAW   =     -85.56470355 Ry
     pot.stat. contrib. (-muN) =      -0.39136020 Ry
     electrostatic embedding   =      -0.47689329 Ry
     cavitation energy         =       0.02441359 Ry
     electrolyte free energy   =      -0.00759915 Ry
     correction to one-el term =     -43.18414498 Ry

     WARNING: you are using the parabolic pbc correction;
              the potential shift above must be added to 
              band and Fermi energies.

     convergence has been achieved in  26 iterations
     The dielectric solvent contribution to forces
     atom    1 type  1   force =    -0.00000750    0.00000008    0.01519526
     atom    2 type  1   force =     0.00000718    0.00000363   -0.01518796
     atom    3 type  1   force =     0.00001308   -0.00000003   -0.02232473
     atom    4 type  1   force =    -0.00000520    0.00000096   -0.00730419
     atom    5 type  1   force =     0.00000530    0.00000000    0.00731455
     atom    6 type  1   force =    -0.00001298   -0.00000024    0.02233322
     atom    7 type  1   force =    -0.00000715    0.00000006    0.01519796
     atom    8 type  1   force =     0.00000718   -0.00000348   -0.01518795
     atom    9 type  1   force =     0.00001278   -0.00000002   -0.02232040
     atom   10 type  1   force =    -0.00000520   -0.00000095   -0.00730418
     atom   11 type  1   force =     0.00000513    0.00000000    0.00731600
     atom   12 type  1   force =    -0.00001298    0.00000020    0.02233324
     atom   13 type  1   force =    -0.00000590    0.00000008    0.01519596
     atom   14 type  1   force =     0.00000622    0.00000367   -0.01518811
     atom   15 type  1   force =     0.00001280   -0.00000003   -0.02232391
     atom   16 type  1   force =    -0.00000518    0.00000083   -0.00730398
     atom   17 type  1   force =     0.00000511    0.00000000    0.00731471
     atom   18 type  1   force =    -0.00001290   -0.00000036    0.02233293
     atom   19 type  1   force =    -0.00000620    0.00000006    0.01519738
     atom   20 type  1   force =     0.00000622   -0.00000353   -0.01518809
     atom   21 type  1   force =     0.00001304   -0.00000002   -0.02232082
     atom   22 type  1   force =    -0.00000518   -0.00000083   -0.00730397
     atom   23 type  1   force =     0.00000526    0.00000000    0.00731535
     atom   24 type  1   force =    -0.00001290    0.00000032    0.02233294


     Forces acting on atoms (cartesian axes, Ry/au):

     atom    1 type  1   force =     0.00021821    0.00000000    0.00294314
     atom    2 type  1   force =    -0.00021828   -0.00001508   -0.00293684
     atom    3 type  1   force =     0.00015604    0.00000000    0.00250136
     atom    4 type  1   force =     0.00010739   -0.00000458   -0.00122560
     atom    5 type  1   force =    -0.00010386    0.00000000    0.00121789
     atom    6 type  1   force =    -0.00015445    0.00002127   -0.00248688
     atom    7 type  1   force =     0.00021757    0.00000000    0.00296431
     atom    8 type  1   force =    -0.00021828    0.00001508   -0.00293684
     atom    9 type  1   force =     0.00015118    0.00000000    0.00248150
     atom   10 type  1   force =     0.00010739    0.00000458   -0.00122560
     atom   11 type  1   force =    -0.00010617    0.00000000    0.00118554
     atom   12 type  1   force =    -0.00015445   -0.00002127   -0.00248688
     atom   13 type  1   force =     0.00022726    0.00000000    0.00294034
     atom   14 type  1   force =    -0.00022325   -0.00001578   -0.00293980
     atom   15 type  1   force =     0.00015288    0.00000000    0.00249669
     atom   16 type  1   force =     0.00010850   -0.00001121   -0.00122568
     atom   17 type  1   force =    -0.00010845    0.00000000    0.00122269
     atom   18 type  1   force =    -0.00016250    0.00001830   -0.00248580
     atom   19 type  1   force =     0.00022809    0.00000000    0.00296539
     atom   20 type  1   force =    -0.00022325    0.00001578   -0.00293980
     atom   21 type  1   force =     0.00015853    0.00000000    0.00248957
     atom   22 type  1   force =     0.00010850    0.00001121   -0.00122568
     atom   23 type  1   force =    -0.00010613    0.00000000    0.00119275
     atom   24 type  1   force =    -0.00016250   -0.00001830   -0.00248580
     The non-local contrib.  to forces
     atom    1 type  1   force =     0.00055974    0.00000000    0.10033316
     atom    2 type  1   force =    -0.00056114   -0.00001668   -0.10033762
     atom    3 type  1   force =     0.00157159    0.00000000   -0.02353627
     atom    4 type  1   force =    -0.00063964   -0.00000539    0.00079057
     atom    5 type  1   force =     0.00064195    0.00000000   -0.00080368
     atom    6 type  1   force =    -0.00156893    0.00001967    0.02353391
     atom    7 type  1   force =     0.00056321    0.00000000    0.10035203
     atom    8 type  1   force =    -0.00056114    0.00001668   -0.10033762
     atom    9 type  1   force =     0.00156704    0.00000000   -0.02354509
     atom   10 type  1   force =    -0.00063964    0.00000539    0.00079057
     atom   11 type  1   force =     0.00063734    0.00000000   -0.00083475
     atom   12 type  1   force =    -0.00156893   -0.00001967    0.02353391
     atom   13 type  1   force =     0.00057095    0.00000000    0.10033212
     atom   14 type  1   force =    -0.00056854   -0.00001571   -0.10033832
     atom   15 type  1   force =     0.00156817    0.00000000   -0.02353287
     atom   16 type  1   force =    -0.00064092   -0.00000814    0.00079012
     atom   17 type  1   force =     0.00063776    0.00000000   -0.00080650
     atom   18 type  1   force =    -0.00157132    0.00001880    0.02353088
     atom   19 type  1   force =     0.00056879    0.00000000    0.10035400
     atom   20 type  1   force =    -0.00056854    0.00001571   -0.10033832
     atom   21 type  1   force =     0.00157216    0.00000000   -0.02354336
     atom   22 type  1   force =    -0.00064092    0.00000814    0.00079012
     atom   23 type  1   force =     0.00064304    0.00000000   -0.00083354
     atom   24 type  1   force =    -0.00157132   -0.00001880    0.02353088
     The ionic contribution  to forces
     atom    1 type  1   force =    -0.00153159   -0.00000002    8.49878512
     atom    2 type  1   force =     0.00151508   -0.00001693   -8.49871844
     atom    3 type  1   force =    -0.00423639    0.00000001   -5.49644454
     atom    4 type  1   force =     0.00174073    0.00008426   -1.82064483
     atom    5 type  1   force =    -0.00170591   -0.00000001    1.82064824
     atom    6 type  1   force =     0.00427801    0.00009146    5.49635194
     atom    7 type  1   force =    -0.00153251    0.00000004    8.49875435
[...]
     atom   12 type  1   force =    -0.00004223   -0.00000205    0.02470389
     atom   13 type  1   force =    -0.00000447    0.00000009    0.01505619
     atom   14 type  1   force =     0.00000771    0.00003845   -0.01503687
     atom   15 type  1   force =     0.00004130   -0.00000003   -0.02469154
     atom   16 type  1   force =    -0.00007242    0.00000622   -0.00914429
     atom   17 type  1   force =     0.00007177    0.00000001    0.00916427
     atom   18 type  1   force =    -0.00004352    0.00000159    0.02470179
     atom   19 type  1   force =    -0.00000501    0.00000007    0.01505701
     atom   20 type  1   force =     0.00000771   -0.00003828   -0.01503686
     atom   21 type  1   force =     0.00004526   -0.00000002   -0.02466075
     atom   22 type  1   force =    -0.00007242   -0.00000621   -0.00914429
     atom   23 type  1   force =     0.00007251    0.00000000    0.00917221
     atom   24 type  1   force =    -0.00004352   -0.00000163    0.02470181


     Forces acting on atoms (cartesian axes, Ry/au):

     atom    1 type  1   force =     0.00019222    0.00000000    0.00004680
     atom    2 type  1   force =    -0.00020522    0.00000915   -0.00007296
     atom    3 type  1   force =     0.00004482    0.00000000   -0.00022850
     atom    4 type  1   force =    -0.00001114   -0.00002709    0.00001428
     atom    5 type  1   force =     0.00000245    0.00000000    0.00004614
     atom    6 type  1   force =    -0.00002086    0.00000715    0.00019235
     atom    7 type  1   force =     0.00018201    0.00000000    0.00006146
     atom    8 type  1   force =    -0.00020522   -0.00000915   -0.00007296
     atom    9 type  1   force =     0.00002202    0.00000000   -0.00015556
     atom   10 type  1   force =    -0.00001114    0.00002709    0.00001428
     atom   11 type  1   force =    -0.00000395    0.00000000   -0.00003330
     atom   12 type  1   force =    -0.00002086   -0.00000715    0.00019235
     atom   13 type  1   force =     0.00025496    0.00000000    0.00004771
     atom   14 type  1   force =    -0.00023389    0.00001246   -0.00007462
     atom   15 type  1   force =     0.00003525    0.00000000   -0.00022261
     atom   16 type  1   force =    -0.00001816   -0.00003763    0.00000995
     atom   17 type  1   force =     0.00001644    0.00000000    0.00004102
     atom   18 type  1   force =    -0.00006452    0.00000153    0.00017730
     atom   19 type  1   force =     0.00025627    0.00000000    0.00006683
     atom   20 type  1   force =    -0.00023389   -0.00001246   -0.00007462
     atom   21 type  1   force =     0.00007734    0.00000000   -0.00015107
     atom   22 type  1   force =    -0.00001816    0.00003763    0.00000995
     atom   23 type  1   force =     0.00002772    0.00000000   -0.00001154
     atom   24 type  1   force =    -0.00006452   -0.00000153    0.00017730
     The non-local contrib.  to forces
     atom    1 type  1   force =     0.00041184    0.00000000    0.10251924
     atom    2 type  1   force =    -0.00043498    0.00003463   -0.10253785
     atom    3 type  1   force =     0.00095682    0.00000000   -0.02374687
     atom    4 type  1   force =     0.00013188   -0.00003052    0.00038148
     atom    5 type  1   force =    -0.00012083    0.00000000   -0.00030177
     atom    6 type  1   force =    -0.00092938    0.00001698    0.02368842
     atom    7 type  1   force =     0.00042212    0.00000000    0.10253301
     atom    8 type  1   force =    -0.00043498   -0.00003463   -0.10253785
     atom    9 type  1   force =     0.00090671    0.00000000   -0.02363295
     atom   10 type  1   force =     0.00013188    0.00003052    0.00038148
     atom   11 type  1   force =    -0.00013623    0.00000000   -0.00041108
     atom   12 type  1   force =    -0.00092938   -0.00001698    0.02368842
     atom   13 type  1   force =     0.00046979    0.00000000    0.10252581
     atom   14 type  1   force =    -0.00045697    0.00005472   -0.10254330
     atom   15 type  1   force =     0.00093691    0.00000000   -0.02373513
     atom   16 type  1   force =     0.00012111   -0.00005127    0.00036945
     atom   17 type  1   force =    -0.00011792    0.00000000   -0.00030531
     atom   18 type  1   force =    -0.00095658    0.00001230    0.02366512
     atom   19 type  1   force =     0.00046885    0.00000000    0.10253912
     atom   20 type  1   force =    -0.00045697   -0.00005472   -0.10254330
     atom   21 type  1   force =     0.00096337    0.00000000   -0.02361900
     atom   22 type  1   force =     0.00012111    0.00005127    0.00036945
     atom   23 type  1   force =    -0.00010916    0.00000000   -0.00038574
     atom   24 type  1   force =    -0.00095658   -0.00001230    0.02366512
     The ionic contribution  to forces
     atom    1 type  1   force =    -0.00134507   -0.00000002    8.56387125
     atom    2 type  1   force =     0.00110284    0.00041758   -8.56395115
     atom    3 type  1   force =    -0.00211567    0.00000001   -5.24292489
     atom    4 type  1   force =    -0.00236227   -0.00083239   -2.03259648
     atom    5 type  1   force =     0.00239327   -0.00000002    2.03252524
     atom    6 type  1   force =     0.00255948   -0.00004804    5.24320656
     atom    7 type  1   force =    -0.00139913    0.00000004    8.56389467
     atom    8 type  1   force =     0.00110284   -0.00041759   -8.56395108
     atom    9 type  1   force =    -0.00271139    0.00000002   -5.24353175
     atom   10 type  1   force =    -0.00236226    0.00083236   -2.03259639
     atom   11 type  1   force =     0.00219272    0.00000004    2.03278501
     atom   12 type  1   force =     0.00255948    0.00004802    5.24320675
     atom   13 type  1   force =    -0.00038662   -0.00000002    8.56386126
     atom   14 type  1   force =     0.00070863    0.00056994   -8.56402094
     atom   15 type  1   force =    -0.00242449    0.00000001   -5.24297472
     atom   16 type  1   force =    -0.00250464   -0.00114479   -2.03255295
     atom   17 type  1   force =     0.00237848   -0.00000002    2.03261690
     atom   18 type  1   force =     0.00193054   -0.00015554    5.24327314
     atom   19 type  1   force =    -0.00041495    0.00000004    8.56393156
     atom   20 type  1   force =     0.00070864   -0.00056995   -8.56402086
     atom   21 type  1   force =    -0.00165250    0.00000002   -5.24331709
     atom   22 type  1   force =    -0.00250464    0.00114477   -2.03255287
     atom   23 type  1   force =     0.00261614    0.00000004    2.03254548
     atom   24 type  1   force =     0.00193055    0.00015552    5.24327334
     The local contribution  to forces
     atom    1 type  1   force =     0.00114107   -0.00004249   -8.68139895
     atom    2 type  1   force =    -0.00088655   -0.00052325    8.68145589
     atom    3 type  1   force =     0.00115914   -0.00004367    5.29114202
     atom    4 type  1   force =     0.00228733    0.00078398    2.04137672
     atom    5 type  1   force =    -0.00234391   -0.00004496   -2.04134283
     atom    6 type  1   force =    -0.00161071   -0.00000746   -5.29141006
     atom    7 type  1   force =     0.00117413   -0.00004390   -8.68142362
     atom    8 type  1   force =    -0.00088423    0.00043240    8.68145230
     atom    9 type  1   force =     0.00178617   -0.00004447    5.29167748
     atom   10 type  1   force =     0.00229778   -0.00087274    2.04137429
     atom   11 type  1   force =    -0.00213383   -0.00004170   -2.04158298
     atom   12 type  1   force =    -0.00160665   -0.00007929   -5.29141492
     atom   13 type  1   force =     0.00017658   -0.00004249   -8.68139607
     atom   14 type  1   force =    -0.00049509   -0.00069594    8.68152924
     atom   15 type  1   force =     0.00148143   -0.00004367    5.29118480
     atom   16 type  1   force =     0.00243329    0.00110765    2.04134025
     atom   17 type  1   force =    -0.00231660   -0.00004496   -2.04143605
     atom   18 type  1   force =    -0.00099695    0.00009951   -5.29146632
     atom   19 type  1   force =     0.00020769   -0.00004390   -8.68146155
     atom   20 type  1   force =    -0.00049218    0.00060509    8.68152505
     atom   21 type  1   force =     0.00072114   -0.00004447    5.29145184
     atom   22 type  1   force =     0.00244375   -0.00119641    2.04133782
     atom   23 type  1   force =    -0.00255250   -0.00004170   -2.04134463
     atom   24 type  1   force =    -0.00099288   -0.00018627   -5.29147119
     The core correction contribution to forces
     atom    1 type  1   force =     0.00000000    0.00000000    0.00000000
     atom    2 type  1   force =     0.00000000    0.00000000    0.00000000
     atom    3 type  1   force =     0.00000000    0.00000000    0.00000000
     atom    4 type  1   force =     0.00000000    0.00000000    0.00000000
     atom    5 type  1   force =     0.00000000    0.00000000    0.00000000
     atom    6 type  1   force =     0.00000000    0.00000000    0.00000000
     atom    7 type  1   force =     0.00000000    0.00000000    0.00000000
     atom    8 type  1   force =     0.00000000    0.00000000    0.00000000
     atom    9 type  1   force =     0.00000000    0.00000000    0.00000000
     atom   10 type  1   force =     0.00000000    0.00000000    0.00000000
     atom   11 type  1   force =     0.00000000    0.00000000    0.00000000
     atom   12 type  1   force =     0.00000000    0.00000000    0.00000000
     atom   13 type  1   force =     0.00000000    0.00000000    0.00000000
     atom   14 type  1   force =     0.00000000    0.00000000    0.00000000
     atom   15 type  1   force =     0.00000000    0.00000000    0.00000000
     atom   16 type  1   force =     0.00000000    0.00000000    0.00000000
     atom   17 type  1   force =     0.00000000    0.00000000    0.00000000
     atom   18 type  1   force =     0.00000000    0.00000000    0.00000000
     atom   19 type  1   force =     0.00000000    0.00000000    0.00000000
     atom   20 type  1   force =     0.00000000    0.00000000    0.00000000
     atom   21 type  1   force =     0.00000000    0.00000000    0.00000000
     atom   22 type  1   force =     0.00000000    0.00000000    0.00000000
     atom   23 type  1   force =     0.00000000    0.00000000    0.00000000
     atom   24 type  1   force =     0.00000000    0.00000000    0.00000000
     The Hubbard contrib.    to forces
     atom    1 type  1   force =     0.00000000    0.00000000    0.00000000
     atom    2 type  1   force =     0.00000000    0.00000000    0.00000000
     atom    3 type  1   force =     0.00000000    0.00000000    0.00000000
     atom    4 type  1   force =     0.00000000    0.00000000    0.00000000
     atom    5 type  1   force =     0.00000000    0.00000000    0.00000000
     atom    6 type  1   force =     0.00000000    0.00000000    0.00000000
     atom    7 type  1   force =     0.00000000    0.00000000    0.00000000
     atom    8 type  1   force =     0.00000000    0.00000000    0.00000000
     atom    9 type  1   force =     0.00000000    0.00000000    0.00000000
     atom   10 type  1   force =     0.00000000    0.00000000    0.00000000
     atom   11 type  1   force =     0.00000000    0.00000000    0.00000000
     atom   12 type  1   force =     0.00000000    0.00000000    0.00000000
     atom   13 type  1   force =     0.00000000    0.00000000    0.00000000
     atom   14 type  1   force =     0.00000000    0.00000000    0.00000000
     atom   15 type  1   force =     0.00000000    0.00000000    0.00000000
     atom   16 type  1   force =     0.00000000    0.00000000    0.00000000
     atom   17 type  1   force =     0.00000000    0.00000000    0.00000000
     atom   18 type  1   force =     0.00000000    0.00000000    0.00000000
     atom   19 type  1   force =     0.00000000    0.00000000    0.00000000
     atom   20 type  1   force =     0.00000000    0.00000000    0.00000000
     atom   21 type  1   force =     0.00000000    0.00000000    0.00000000
     atom   22 type  1   force =     0.00000000    0.00000000    0.00000000
     atom   23 type  1   force =     0.00000000    0.00000000    0.00000000
     atom   24 type  1   force =     0.00000000    0.00000000    0.00000000
     The SCF correction term to forces
     atom    1 type  1   force =    -0.00000027    0.00000000    0.00000053
     atom    2 type  1   force =     0.00000027    0.00000006   -0.00000065
     atom    3 type  1   force =     0.00000004    0.00000000   -0.00000605
     atom    4 type  1   force =    -0.00000070    0.00000018   -0.00000138
     atom    5 type  1   force =     0.00000069   -0.00000000    0.00000122
     atom    6 type  1   force =    -0.00000005    0.00000026    0.00000586
     atom    7 type  1   force =    -0.00000033   -0.00000000    0.00000092
     atom    8 type  1   force =     0.00000027   -0.00000006   -0.00000065
     atom    9 type  1   force =     0.00000001   -0.00000000   -0.00000616
     atom   10 type  1   force =    -0.00000070   -0.00000018   -0.00000138
     atom   11 type  1   force =     0.00000070    0.00000000    0.00000114
     atom   12 type  1   force =    -0.00000005   -0.00000026    0.00000586
     atom   13 type  1   force =    -0.00000032   -0.00000000    0.00000049
     atom   14 type  1   force =     0.00000036   -0.00000007   -0.00000074
     atom   15 type  1   force =     0.00000008    0.00000000   -0.00000605
     atom   16 type  1   force =    -0.00000072    0.00000018   -0.00000136
     atom   17 type  1   force =     0.00000069   -0.00000000    0.00000117
     atom   18 type  1   force =    -0.00000006    0.00000026    0.00000586
     atom   19 type  1   force =    -0.00000031    0.00000000    0.00000066
     atom   20 type  1   force =     0.00000036    0.00000007   -0.00000074
     atom   21 type  1   force =     0.00000006   -0.00000000   -0.00000610
     atom   22 type  1   force =    -0.00000072   -0.00000018   -0.00000136
     atom   23 type  1   force =     0.00000071   -0.00000000    0.00000111
     atom   24 type  1   force =    -0.00000006   -0.00000026    0.00000586

     Total force =     0.000864     Total SCF correction =     0.000018
     Energy error            =      5.1E-06 Ry
     Gradient error          =      2.6E-04 Ry/Bohr

     bfgs converged in  35 scf cycles and  34 bfgs steps
     (criteria: energy <  1.0E-05 Ry, force <  3.9E-04 Ry/Bohr)

     End of BFGS Geometry Optimization

     Final energy             =    -360.8272837303 Ry

     File ./Li/Lithium.bfgs deleted, as requested
Begin final coordinates

ATOMIC_POSITIONS (angstrom)
Li               3.1161907491        4.8580445300       27.1129496197
Li               0.8505205531        2.4287392597       19.9336913199
Li               2.0012751254        4.8580445600       21.5424594817
Li               3.1167166759        2.4292951685       22.7121610203
Li               0.8499557274        4.8580445800       24.3333343895
Li               1.9650326126        2.4290645610       25.5042938217
Li               3.1162667235        9.7160883600       27.1128252191
Li               0.8505205131        7.2873499003       19.9336913799
Li               2.0015354546        9.7160883800       21.5413030919
Li               3.1167164959        7.2867939715       22.7121610603
Li               0.8500128580        9.7160883300       24.3341870484
Li               1.9650325426        7.2870245490       25.5042939016
Li               6.0905571834        4.8580445300       27.1128843597
Li               3.8257197282        2.4286833731       19.9336794421
Li               4.9763225382        4.8580445600       21.5423761488
Li               6.0917137296        2.4293435448       22.7122159876
Li               3.8247810457        4.8580445800       24.3334266772
Li               4.9403682008        2.4291130082       25.5044551030
Li               6.0905287863        9.7160883600       27.1127852115
Li               3.8257196782        7.2874057869       19.9336795121
Li               4.9759065057        9.7160883800       21.5413131122
Li               6.0917135496        7.2867455952       22.7122160276
Li               3.8246367040        9.7160883300       24.3339797732
Li               4.9403681308        7.2869761018       25.5044551830
End final coordinates



     Writing all to output data dir ./Li/Lithium.save/ :
     XML data file
     init_run     :     16.00s CPU     23.04s WALL (       1 calls)
     electrons    :  10339.65s CPU  12698.26s WALL (      35 calls)
     update_pot   :      4.07s CPU      5.03s WALL (      34 calls)
     forces       :    292.04s CPU    297.17s WALL (      35 calls)

     Called by init_run:
     wfcinit      :      1.19s CPU      1.58s WALL (       1 calls)
     wfcinit:wfcr :      1.09s CPU      1.49s WALL (      12 calls)
     potinit      :      0.66s CPU      0.74s WALL (       1 calls)
     hinit0       :      2.72s CPU      3.04s WALL (       1 calls)

     Called by electrons:
     c_bands      :   6150.75s CPU   7591.01s WALL (     700 calls)
     sum_band     :    393.05s CPU    534.95s WALL (     700 calls)
     v_of_rho     :     65.05s CPU     78.63s WALL (     702 calls)
     v_h          :      5.62s CPU      7.05s WALL (     702 calls)
     v_xc         :     59.42s CPU     71.56s WALL (     702 calls)
     newd         :     24.54s CPU     30.24s WALL (     702 calls)
     PAW_pot      :      5.80s CPU      7.99s WALL (     736 calls)
     mix_rho      :    148.66s CPU    193.50s WALL (     700 calls)

     Called by c_bands:
     init_us_2    :     56.84s CPU     59.18s WALL (   17640 calls)
     cegterg      :   6034.84s CPU   7399.10s WALL (   11105 calls)

     Called by sum_band:
     sum_band:wei :      0.77s CPU      0.92s WALL (     700 calls)
     sum_band:loo :    353.45s CPU    479.82s WALL (     700 calls)
     sum_band:buf :      5.58s CPU      6.02s WALL (    8400 calls)
     sum_band:ini :     26.52s CPU     26.78s WALL (    8400 calls)
     sum_band:cal :     55.55s CPU     65.02s WALL (    8808 calls)
     sum_band:bec :      0.70s CPU      0.77s WALL (    8808 calls)
     addusdens    :     22.40s CPU     23.55s WALL (     700 calls)
                                        0.00s GPU  (     700 calls)
     addusd:skk   :      4.15s CPU      4.19s WALL (     700 calls)
                                        0.00s GPU  (     700 calls)

     Called by *egterg:
     cdiaghg      :   1418.75s CPU   1479.06s WALL (  166045 calls)
     cegterg:over :    449.24s CPU    493.46s WALL (  155868 calls)
     cegterg:upda :    421.08s CPU    430.50s WALL (  155868 calls)
     cegterg:last :     86.16s CPU     86.90s WALL (   14403 calls)
     h_psi        :   3242.48s CPU   4472.41s WALL (  166985 calls)
     s_psi        :    271.84s CPU    277.61s WALL (  166985 calls)
     g_psi        :      5.39s CPU      5.56s WALL (  155868 calls)

     Called by h_psi:
     h_psi:calbec :    448.51s CPU    539.08s WALL (  166985 calls)
     vloc_psi     :   2463.80s CPU   3583.56s WALL (  166985 calls)
                                        0.00s GPU  (  166985 calls)
     add_vuspsi   :    312.06s CPU    330.59s WALL (  166985 calls)

     General routines
     calbec       :    512.37s CPU    613.24s WALL (  177473 calls)
     fft          :     42.09s CPU     62.28s WALL (    9193 calls)
     ffts         :     91.43s CPU    121.01s WALL (   79138 calls)
     fftw         :   2583.12s CPU   3770.04s WALL ( 4679364 calls)
     interpolate  :      5.32s CPU      6.89s WALL (     702 calls)

     Parallel routines

     PAW routines
     PAW_pot      :      5.80s CPU      7.99s WALL (     736 calls)
     PAW_symme    :      0.24s CPU      0.31s WALL (    1436 calls)

     Environ routines

     PWSCF        :      3h 1m CPU      3h42m WALL


   This run was terminated on:  23:19: 2   1Jan2025            

=------------------------------------------------------------------------------=
   JOB DONE.
=------------------------------------------------------------------------------=
