
     Program PWSCF v.7.4 starts on  5Jan2025 at 21:38: 3 

     This program is part of the open-source Quantum ESPRESSO suite
     for quantum simulation of materials; please cite
         "P. Giannozzi et al., J. Phys.:Condens. Matter 21 395502 (2009);
         "P. Giannozzi et al., J. Phys.:Condens. Matter 29 465901 (2017);
         "P. Giannozzi et al., J. Chem. Phys. 152 154105 (2020);
          URL http://www.quantum-espresso.org", 
     in publications or presentations arising from this work. More details at
     http://www.quantum-espresso.org/quote

     Parallel version (MPI & OpenMP), running on     512 processor cores
     Number of MPI processes:               512
     Threads/MPI process:                     1

     MPI processes distributed on     4 nodes
     229316 MiB available memory on the printing compute node when the environment starts

     Reading input from espresso.pwi
Warning: card &CELL ignored
Warning: card    PRESS_CONV_THR   = 0.1 ignored
Warning: card    CELL_DOFREE      = 'ALL' ignored
Warning: card / ignored
Warning: card &FCP ignored
Warning: card / ignored
Warning: card &RISM ignored
Warning: card / ignored

     Current dimensions of program PWSCF are:
     Max number of different atomic species (ntypx) = 10
     Max number of k-points (npk) =  40000
     Max angular momentum in pseudopotentials (lmaxx) =  4

     IMPORTANT: XC functional enforced from input :
     Exchange-correlation= PBE
                           (   1   4   3   4   0   0   0)
     Any further DFT definition will be discarded
     Please, verify this is what you really want


     Reading input from environ.in:
     * using ionic solvent mode
     * setting boundary derivatives method to SSCS default
     * setting electrolyte-boundary derivatives method to SSCS default

Environ Warning (1001): card EOF ignored

     

     K-points division:     npool     =       2
     R & G space division:  proc/nbgrp/npool/nimage =     256
     Subspace diagonalization in iterative solution of the eigenvalue problem:
     a serial algorithm will be used


     Parallelization info
     --------------------
     sticks:   dense  smooth     PW     G-vecs:    dense   smooth      PW
     Min          49      19      5                30863     7773    1061
     Max          50      20      6                30904     7852    1116
     Sum       12597    5037   1349              7904519  1999739  278317

     Using Slab Decomposition



     bravais-lattice index     =            8
     lattice parameter (alat)  =      18.3607  a.u.
     unit-cell volume          =   20684.8735 (a.u.)^3
     number of atoms/cell      =           44
     number of atomic types    =            1
     number of electrons       =       132.00
     number of Kohn-Sham states=           99
     kinetic-energy cutoff     =      80.0000  Ry
     charge density cutoff     =     800.0000  Ry
     scf convergence threshold =      1.0E-14
     mixing beta               =       0.2000
     number of iterations used =            8  local-TF  mixing
     Exchange-correlation= PBE
                           (   1   4   3   4   0   0   0)

     ================================================================================

                                  Environ Setup Summary

     ================================================================================

     Please cite

          O. Andreussi, I. Dabo and N. Marzari, J. Chem. Phys. 136, 064102 (2012)
          F. Nattino, M. Truscott, N. Marzari, and O. Andreussi, J. Chem. Phys. 150, 041722 (2019)

     in publications or presentations arising from this work.

     ================================================================================

     Parameters
     ==========

     compensation onset threshold      =               0.1000E+00
     static permittivity               =                    89.90
     surface tension in input (dyn/cm) =                    37.30
     surface tension in internal units =               0.4792E-04

     Solvent Boundary
     ================

     solvent mode                      =                    ionic
     derivatives method                =                   lowmem
     electrolyte derivatives method    =                   lowmem
     numerical core for derivatives    =                      fft
     switching function adopted        =                     SCCS
     density limit for vacuum region   =               0.5000E-02
     density limit for bulk solvent    =               0.1000E-03
     soft-sphere radius mode           =                    bondi
     soft-sphere softness              =                     0.50
     alpha                             =                     1.32

     Electrostatic Setup
     ===================

     electrostatic problem to solve    =                    modpb
     numerical solver adopted          =                   newton
     type of auxiliary density adopted =                     none
     numerical core for poisson        =                      fft
     adopting a nested solver scheme
     inner solver                      =                       cg
     inner core                        =                      fft
     type of pbc corrections           =                parabolic
     numerical core for corrections    =                      1da

     ================================================================================


     >>>>> Grand-Canonical SCF is activated <<<<<
     Initial Total Charge  =     0.000000 e
     Target Fermi Energy   =    -1.404000 eV
     Thr. of Fermi Energy  =     0.001000 eV
     Wave-shift of Kerker  =     0.400000 bohr^-1
     Wave-shift of Hartree =     1.500000 bohr^-1
     Mixing Rate of Fermi  =     0.050000

     celldm(1)=  18.360747  celldm(2)=   0.586302  celldm(3)=   5.699811
     celldm(4)=   0.000000  celldm(5)=   0.000000  celldm(6)=   0.000000

     crystal axes: (cart. coord. in units of alat)
               a(1) = (   1.000000   0.000000   0.000000 )  
               a(2) = (   0.000000   0.586302   0.000000 )  
               a(3) = (   0.000000   0.000000   5.699811 )  

     reciprocal axes: (cart. coord. in units 2 pi/alat)
               b(1) = (  1.000000  0.000000  0.000000 )  
               b(2) = (  0.000000  1.705606  0.000000 )  
               b(3) = (  0.000000  0.000000  0.175444 )  


     PseudoPot. # 1 for Li read from file:
     /work/e89/e89/ba3g18/Repos/Pseudopotentials/Pslibrary/Li.pbe-sl-kjpaw_psl.1.0.0.UPF
     MD5 check sum: 3f4d2cafebb47c6c3aa8ed472e6f074d
     Pseudo is Projector augmented-wave, Zval =  3.0
     Generated using 'atomic' code by A. Dal Corso  v.7.4
     Shape of augmentation charge: PSQ
     Using radial grid of 1017 points,  4 beta functions with: 
                l(1) =   0
                l(2) =   0
                l(3) =   1
                l(4) =   1
     Q(r) pseudized with 0 coefficients 


     atomic species   valence    mass     pseudopotential
     Li                3.00     6.94000     Li( 1.00)

      2 Sym. Ops. (no inversion) found


                                    s                        frac. trans.

      isym =  1     identity                                     

 cryst.   s( 1) = (     1          0          0      )
                  (     0          1          0      )
                  (     0          0          1      )

 cart.    s( 1) = (  1.0000000  0.0000000  0.0000000 )
                  (  0.0000000  1.0000000  0.0000000 )
                  (  0.0000000  0.0000000  1.0000000 )


      isym =  2     inv. 180 deg rotation - cart. axis [1,0,0]   

 cryst.   s( 2) = (    -1          0          0      )
                  (     0          1          0      )
                  (     0          0          1      )

 cart.    s( 2) = ( -1.0000000  0.0000000  0.0000000 )
                  (  0.0000000  1.0000000  0.0000000 )
                  (  0.0000000  0.0000000  1.0000000 )


     point group C_s (m)    
     there are  2 classes
     the character table:

       E     s    
A'     1.00  1.00
A''    1.00 -1.00

     the symmetry operations in each class and the name of the first element:

     E        1
          identity                                               
     s        2
          inv. 180 deg rotation - cart. axis [1,0,0]             

   Cartesian axes

     site n.     atom                  positions (alat units)
         1        Li     tau(   1) = (   0.5000000   0.5927854   3.6201990  )
         2        Li     tau(   2) = (   0.2499878   0.4199293   2.0795495  )
         3        Li     tau(   3) = (   0.2500012   0.1105679   2.2211291  )
         4        Li     tau(   4) = (   0.5000000   0.2354230   2.1063350  )
         5        Li     tau(   5) = (   0.0000000   0.5114276   2.2648713  )
         6        Li     tau(   6) = (   0.5000000   0.1999203   2.4158162  )
         7        Li     tau(   7) = (   0.2499999   0.3191744   2.6780313  )
         8        Li     tau(   8) = (   0.2500014   0.5914425   2.8216541  )
         9        Li     tau(   9) = (   0.2500034   0.3719083   2.3779931  )
        10        Li     tau(  10) = (   0.2500050   0.0535818   2.5178971  )
        11        Li     tau(  11) = (   0.0000000   0.4663890   2.5767119  )
        12        Li     tau(  12) = (   0.5000000   0.1529774   2.7196997  )
        13        Li     tau(  13) = (   0.5000000   0.4212386   2.8781864  )
        14        Li     tau(  14) = (   0.5000000   0.1071783   3.0217898  )
        15        Li     tau(  15) = (   0.2500114   0.5462659   3.1231442  )
        16        Li     tau(  16) = (   0.2499829   0.2264733   3.2840012  )
        17        Li     tau(  17) = (   0.2500035   0.2733885   2.9801112  )
        18        Li     tau(  18) = (   0.0000000   0.3727576   3.1819498  )
        19        Li     tau(  19) = (   0.5000000   0.0544595   3.3217986  )
        20        Li     tau(  20) = (   0.5000000   0.3158632   3.4786253  )
        21        Li     tau(  21) = (   0.2500055   0.5012683   3.4349630  )
        22        Li     tau(  22) = (   0.2500313   0.1910209   3.5934386  )
        23        Li     tau(  23) = (   1.0000000   0.5928665   3.6202101  )
        24        Li     tau(  24) = (   0.7500121   0.4199293   2.0795495  )
        25        Li     tau(  25) = (   0.7499988   0.1105679   2.2211291  )
        26        Li     tau(  26) = (   1.0000000   0.2354139   2.1063224  )
        27        Li     tau(  27) = (   0.5000000   0.5114426   2.2648414  )
        28        Li     tau(  28) = (   1.0000000   0.1999520   2.4158057  )
        29        Li     tau(  29) = (   0.7500001   0.3191744   2.6780313  )
        30        Li     tau(  30) = (   0.7499986   0.5914425   2.8216541  )
        31        Li     tau(  31) = (   0.7499966   0.3719083   2.3779931  )
        32        Li     tau(  32) = (   0.7499950   0.0535818   2.5178971  )
        33        Li     tau(  33) = (   0.5000000   0.4664207   2.5766709  )
        34        Li     tau(  34) = (   1.0000000   0.1530214   2.7197053  )
        35        Li     tau(  35) = (   1.0000000   0.4212125   2.8782329  )
        36        Li     tau(  36) = (   1.0000000   0.1072464   3.0217963  )
        37        Li     tau(  37) = (   0.7499886   0.5462659   3.1231442  )
        38        Li     tau(  38) = (   0.7500170   0.2264733   3.2840012  )
        39        Li     tau(  39) = (   0.7499965   0.2733885   2.9801112  )
        40        Li     tau(  40) = (   0.5000000   0.3728263   3.1818753  )
        41        Li     tau(  41) = (   1.0000000   0.0545791   3.3218093  )
        42        Li     tau(  42) = (   1.0000000   0.3158048   3.4786903  )
        43        Li     tau(  43) = (   0.7499945   0.5012683   3.4349630  )
        44        Li     tau(  44) = (   0.7499687   0.1910209   3.5934386  )

   Crystallographic axes

     site n.     atom                  positions (cryst. coord.)
         1        Li     tau(   1) = (  0.5000000  1.0110581  0.6351437  )
         2        Li     tau(   2) = (  0.2499878  0.7162337  0.3648454  )
         3        Li     tau(   3) = (  0.2500012  0.1885852  0.3896847  )
         4        Li     tau(   4) = (  0.5000000  0.4015388  0.3695447  )
         5        Li     tau(   5) = (  0.0000000  0.8722939  0.3973590  )
         6        Li     tau(   6) = (  0.5000000  0.3409853  0.4238415  )
         7        Li     tau(   7) = (  0.2499999  0.5443857  0.4698456  )
         8        Li     tau(   8) = (  0.2500014  1.0087676  0.4950434  )
         9        Li     tau(   9) = (  0.2500034  0.6343288  0.4172056  )
        10        Li     tau(  10) = (  0.2500050  0.0913893  0.4417510  )
        11        Li     tau(  11) = (  0.0000000  0.7954757  0.4520697  )
        12        Li     tau(  12) = (  0.5000000  0.2609191  0.4771561  )
        13        Li     tau(  13) = (  0.5000000  0.7184669  0.5049617  )
        14        Li     tau(  14) = (  0.5000000  0.1828040  0.5301561  )
        15        Li     tau(  15) = (  0.2500114  0.9317142  0.5479382  )
        16        Li     tau(  16) = (  0.2499829  0.3862741  0.5761597  )
        17        Li     tau(  17) = (  0.2500035  0.4662929  0.5228439  )
        18        Li     tau(  18) = (  0.0000000  0.6357775  0.5582553  )
        19        Li     tau(  19) = (  0.5000000  0.0928864  0.5827910  )
        20        Li     tau(  20) = (  0.5000000  0.5387380  0.6103054  )
        21        Li     tau(  21) = (  0.2500055  0.8549660  0.6026451  )
        22        Li     tau(  22) = (  0.2500313  0.3258064  0.6304487  )
        23        Li     tau(  23) = (  1.0000000  1.0111964  0.6351456  )
        24        Li     tau(  24) = (  0.7500121  0.7162337  0.3648454  )
        25        Li     tau(  25) = (  0.7499988  0.1885852  0.3896847  )
        26        Li     tau(  26) = (  1.0000000  0.4015232  0.3695425  )
        27        Li     tau(  27) = (  0.5000000  0.8723195  0.3973538  )
        28        Li     tau(  28) = (  1.0000000  0.3410392  0.4238396  )
        29        Li     tau(  29) = (  0.7500001  0.5443857  0.4698456  )
        30        Li     tau(  30) = (  0.7499986  1.0087676  0.4950434  )
        31        Li     tau(  31) = (  0.7499966  0.6343288  0.4172056  )
        32        Li     tau(  32) = (  0.7499950  0.0913893  0.4417510  )
        33        Li     tau(  33) = (  0.5000000  0.7955298  0.4520625  )
        34        Li     tau(  34) = (  1.0000000  0.2609942  0.4771571  )
        35        Li     tau(  35) = (  1.0000000  0.7184225  0.5049699  )
        36        Li     tau(  36) = (  1.0000000  0.1829201  0.5301573  )
        37        Li     tau(  37) = (  0.7499886  0.9317142  0.5479382  )
        38        Li     tau(  38) = (  0.7500170  0.3862741  0.5761597  )
        39        Li     tau(  39) = (  0.7499965  0.4662929  0.5228439  )
        40        Li     tau(  40) = (  0.5000000  0.6358946  0.5582423  )
        41        Li     tau(  41) = (  1.0000000  0.0930904  0.5827929  )
        42        Li     tau(  42) = (  1.0000000  0.5386384  0.6103168  )
        43        Li     tau(  43) = (  0.7499945  0.8549660  0.6026451  )
        44        Li     tau(  44) = (  0.7499687  0.3258064  0.6304487  )

     number of k points=    28  Marzari-Vanderbilt smearing, width (Ry)=  0.0100
                       cart. coord. in units 2pi/alat
        k(    1) = (   0.0000000   0.0000000   0.0000000), wk =   0.0238095
        k(    2) = (   0.0000000   0.1421338   0.0000000), wk =   0.0476190
        k(    3) = (   0.0000000   0.2842676   0.0000000), wk =   0.0476190
        k(    4) = (   0.0000000   0.4264014   0.0000000), wk =   0.0476190
        k(    5) = (   0.0000000   0.5685352   0.0000000), wk =   0.0476190
        k(    6) = (   0.0000000   0.7106690   0.0000000), wk =   0.0476190
        k(    7) = (   0.0000000  -0.8528028   0.0000000), wk =   0.0238095
        k(    8) = (   0.1428571   0.0000000   0.0000000), wk =   0.0476190
        k(    9) = (   0.1428571   0.1421338   0.0000000), wk =   0.0952381
        k(   10) = (   0.1428571   0.2842676   0.0000000), wk =   0.0952381
        k(   11) = (   0.1428571   0.4264014   0.0000000), wk =   0.0952381
        k(   12) = (   0.1428571   0.5685352   0.0000000), wk =   0.0952381
        k(   13) = (   0.1428571   0.7106690   0.0000000), wk =   0.0952381
        k(   14) = (   0.1428571  -0.8528028   0.0000000), wk =   0.0476190
        k(   15) = (   0.2857143   0.0000000   0.0000000), wk =   0.0476190
        k(   16) = (   0.2857143   0.1421338   0.0000000), wk =   0.0952381
        k(   17) = (   0.2857143   0.2842676   0.0000000), wk =   0.0952381
        k(   18) = (   0.2857143   0.4264014   0.0000000), wk =   0.0952381
        k(   19) = (   0.2857143   0.5685352   0.0000000), wk =   0.0952381
        k(   20) = (   0.2857143   0.7106690   0.0000000), wk =   0.0952381
        k(   21) = (   0.2857143  -0.8528028   0.0000000), wk =   0.0476190
        k(   22) = (   0.4285714   0.0000000   0.0000000), wk =   0.0476190
        k(   23) = (   0.4285714   0.1421338   0.0000000), wk =   0.0952381
        k(   24) = (   0.4285714   0.2842676   0.0000000), wk =   0.0952381
        k(   25) = (   0.4285714   0.4264014   0.0000000), wk =   0.0952381
        k(   26) = (   0.4285714   0.5685352   0.0000000), wk =   0.0952381
        k(   27) = (   0.4285714   0.7106690   0.0000000), wk =   0.0952381
        k(   28) = (   0.4285714  -0.8528028   0.0000000), wk =   0.0476190

                       cryst. coord.
        k(    1) = (   0.0000000   0.0000000   0.0000000), wk =   0.0238095
        k(    2) = (   0.0000000   0.0833333   0.0000000), wk =   0.0476190
        k(    3) = (   0.0000000   0.1666667   0.0000000), wk =   0.0476190
        k(    4) = (   0.0000000   0.2500000   0.0000000), wk =   0.0476190
        k(    5) = (   0.0000000   0.3333333   0.0000000), wk =   0.0476190
        k(    6) = (   0.0000000   0.4166667   0.0000000), wk =   0.0476190
        k(    7) = (   0.0000000  -0.5000000   0.0000000), wk =   0.0238095
        k(    8) = (   0.1428571   0.0000000   0.0000000), wk =   0.0476190
        k(    9) = (   0.1428571   0.0833333   0.0000000), wk =   0.0952381
        k(   10) = (   0.1428571   0.1666667   0.0000000), wk =   0.0952381
        k(   11) = (   0.1428571   0.2500000   0.0000000), wk =   0.0952381
        k(   12) = (   0.1428571   0.3333333   0.0000000), wk =   0.0952381
        k(   13) = (   0.1428571   0.4166667   0.0000000), wk =   0.0952381
        k(   14) = (   0.1428571  -0.5000000   0.0000000), wk =   0.0476190
        k(   15) = (   0.2857143   0.0000000   0.0000000), wk =   0.0476190
        k(   16) = (   0.2857143   0.0833333   0.0000000), wk =   0.0952381
        k(   17) = (   0.2857143   0.1666667   0.0000000), wk =   0.0952381
        k(   18) = (   0.2857143   0.2500000   0.0000000), wk =   0.0952381
        k(   19) = (   0.2857143   0.3333333   0.0000000), wk =   0.0952381
        k(   20) = (   0.2857143   0.4166667   0.0000000), wk =   0.0952381
        k(   21) = (   0.2857143  -0.5000000   0.0000000), wk =   0.0476190
        k(   22) = (   0.4285714   0.0000000   0.0000000), wk =   0.0476190
        k(   23) = (   0.4285714   0.0833333   0.0000000), wk =   0.0952381
        k(   24) = (   0.4285714   0.1666667   0.0000000), wk =   0.0952381
        k(   25) = (   0.4285714   0.2500000   0.0000000), wk =   0.0952381
        k(   26) = (   0.4285714   0.3333333   0.0000000), wk =   0.0952381
        k(   27) = (   0.4285714   0.4166667   0.0000000), wk =   0.0952381
        k(   28) = (   0.4285714  -0.5000000   0.0000000), wk =   0.0476190

     Dense  grid:  7904519 G-vectors     FFT dimensions: ( 180, 100, 960)

     Smooth grid:  1999739 G-vectors     FFT dimensions: ( 108,  64, 600)

     Dynamical RAM for                 wfc:       1.47 MB

     Dynamical RAM for     wfc (w. buffer):      22.12 MB

     Dynamical RAM for           str. fact:       0.47 MB

     Dynamical RAM for           local pot:       0.00 MB

     Dynamical RAM for          nlocal pot:       5.24 MB

     Dynamical RAM for                qrad:       0.65 MB

     Dynamical RAM for          rho,v,vnew:       3.06 MB

     Dynamical RAM for               rhoin:       1.02 MB

     Dynamical RAM for            rho*nmix:       7.54 MB

     Dynamical RAM for           G-vectors:       1.83 MB

     Dynamical RAM for          h,s,v(r/c):       7.18 MB

     Dynamical RAM for          <psi|beta>:       0.53 MB

     Dynamical RAM for                 psi:       5.90 MB

     Dynamical RAM for                hpsi:       5.90 MB

     Dynamical RAM for                spsi:       5.90 MB

     Dynamical RAM for      wfcinit/wfcrot:       3.17 MB

     Dynamical RAM for           addusdens:      20.73 MB

     Dynamical RAM for          addusforce:      41.02 MB

     Estimated static dynamical RAM per process >      38.07 MB

     Estimated max dynamical RAM per process >     120.61 MB

     Estimated total dynamical RAM >      41.43 GB

     Initial potential from superposition of free atoms

     starting charge     131.7972, renormalised to     132.0000

     negative rho (up, down):  3.452E-03 0.000E+00
     Starting wfcs are random
     Checking if some PAW data can be deallocated... 

     total cpu time spent up to now is       27.5 secs

     Self-consistent Calculation

     iteration #  1     ecut=    80.00 Ry     beta= 0.20
     Davidson diagonalization with overlap

---- Real-time Memory Report at c_bands before calling an iterative solver
           541 MiB given to the printing process from OS
             0 MiB allocation reported by mallinfo(arena+hblkhd)
        214408 MiB available memory on the node where the printing process lives
------------------
     c_bands:  1 eigenvalues not converged
     ethr =  1.00E-12,  avg # of iterations =115.1

     negative rho (up, down):  2.586E-03 0.000E+00

     total cpu time spent up to now is      276.6 secs

     total energy              =    -661.46105532 Ry
     estimated scf accuracy    <       0.13907204 Ry

     total charge of GC-SCF    =      -0.06788843 e
     the Fermi energy          =      -4.05624209 eV
                        (error :       2.65224209 eV)
     electrostatic embedding   =       0.00000000 Ry
     cavitation energy         =       0.02366552 Ry
     electrolyte free energy   =       0.00890302 Ry
     correction to one-el term =      -0.00000000 Ry

     iteration #  2     ecut=    80.00 Ry     beta= 0.20
     Davidson diagonalization with overlap

---- Real-time Memory Report at c_bands before calling an iterative solver
           541 MiB given to the printing process from OS
             0 MiB allocation reported by mallinfo(arena+hblkhd)
        213048 MiB available memory on the node where the printing process lives
------------------
     ethr =  1.00E-05,  avg # of iterations = 14.9

     negative rho (up, down):  2.068E-03 0.000E+00

     total cpu time spent up to now is      307.5 secs

     total energy              =    -661.73171384 Ry
     estimated scf accuracy    <       0.11346098 Ry

     total charge of GC-SCF    =      -0.08432157 e
     the Fermi energy          =      -2.34550188 eV
                        (error :       0.94150188 eV)
     electrostatic embedding   =      -0.00068051 Ry
     cavitation energy         =       0.02366552 Ry
     electrolyte free energy   =       0.00890302 Ry
     correction to one-el term =      -0.00000000 Ry

     iteration #  3     ecut=    80.00 Ry     beta= 0.20
     Davidson diagonalization with overlap

---- Real-time Memory Report at c_bands before calling an iterative solver
           541 MiB given to the printing process from OS
             0 MiB allocation reported by mallinfo(arena+hblkhd)
        212920 MiB available memory on the node where the printing process lives
------------------
     ethr =  1.00E-05,  avg # of iterations = 12.4

     negative rho (up, down):  1.542E-03 0.000E+00

     add environment contribution to local potential

     total cpu time spent up to now is      338.9 secs

     total energy              =    -661.59104337 Ry
     estimated scf accuracy    <       0.04205548 Ry

     total charge of GC-SCF    =      -0.12971511 e
     the Fermi energy          =      -2.27368531 eV
                        (error :       0.86968531 eV)
     electrostatic embedding   =      -0.00084524 Ry
     cavitation energy         =       0.02366552 Ry
     electrolyte free energy   =       0.00890302 Ry
     correction to one-el term =      -0.00000000 Ry

     iteration #  4     ecut=    80.00 Ry     beta= 0.20
     Davidson diagonalization with overlap

---- Real-time Memory Report at c_bands before calling an iterative solver
           541 MiB given to the printing process from OS
             0 MiB allocation reported by mallinfo(arena+hblkhd)
        212877 MiB available memory on the node where the printing process lives
------------------
     ethr =  1.00E-05,  avg # of iterations = 28.1

     negative rho (up, down):  1.304E-03 0.000E+00

     add environment contribution to local potential

     total cpu time spent up to now is      388.4 secs

     total energy              =    -661.77069515 Ry
     estimated scf accuracy    <       0.01999850 Ry

     total charge of GC-SCF    =      -0.18660871 e
     the Fermi energy          =      -2.45331883 eV
                        (error :       1.04931883 eV)
     electrostatic embedding   =      -0.03049504 Ry
     cavitation energy         =       0.02366552 Ry
     electrolyte free energy   =      -0.00070558 Ry
     correction to one-el term =      10.25778473 Ry

     iteration #  5     ecut=    80.00 Ry     beta= 0.20
     Davidson diagonalization with overlap

---- Real-time Memory Report at c_bands before calling an iterative solver
           541 MiB given to the printing process from OS
             0 MiB allocation reported by mallinfo(arena+hblkhd)
        212918 MiB available memory on the node where the printing process lives
------------------
     ethr =  1.00E-05,  avg # of iterations =  5.7

     negative rho (up, down):  1.218E-03 0.000E+00

     add environment contribution to local potential

     total cpu time spent up to now is      405.8 secs

     total energy              =    -661.57093705 Ry
     estimated scf accuracy    <       0.01779519 Ry

     total charge of GC-SCF    =      -0.61258887 e
     the Fermi energy          =      -2.48700456 eV
                        (error :       1.08300456 eV)
     electrostatic embedding   =      -0.03716920 Ry
     cavitation energy         =       0.02366552 Ry
     electrolyte free energy   =      -0.00063936 Ry
     correction to one-el term =      12.25935938 Ry

     iteration #  6     ecut=    80.00 Ry     beta= 0.20
     Davidson diagonalization with overlap

---- Real-time Memory Report at c_bands before calling an iterative solver
           541 MiB given to the printing process from OS
             0 MiB allocation reported by mallinfo(arena+hblkhd)
        212890 MiB available memory on the node where the printing process lives
------------------
     ethr =  1.00E-05,  avg # of iterations = 10.0

     negative rho (up, down):  1.088E-03 0.000E+00

     add environment contribution to local potential

     total cpu time spent up to now is      434.2 secs

     total energy              =    -661.72121199 Ry
     estimated scf accuracy    <       0.00366006 Ry

     total charge of GC-SCF    =      -0.86186398 e
     the Fermi energy          =      -2.39962873 eV
                        (error :       0.99562873 eV)
     electrostatic embedding   =      -0.12764235 Ry
     cavitation energy         =       0.02366552 Ry
     electrolyte free energy   =      -0.00056341 Ry
     correction to one-el term =      30.25030720 Ry

     iteration #  7     ecut=    80.00 Ry     beta= 0.20
     Davidson diagonalization with overlap

---- Real-time Memory Report at c_bands before calling an iterative solver
           541 MiB given to the printing process from OS
             0 MiB allocation reported by mallinfo(arena+hblkhd)
        212867 MiB available memory on the node where the printing process lives
------------------
     ethr =  2.75E-06,  avg # of iterations = 19.8

     negative rho (up, down):  1.003E-03 0.000E+00

     add environment contribution to local potential

     total cpu time spent up to now is      481.0 secs

     total energy              =    -661.73486025 Ry
     estimated scf accuracy    <       0.00576480 Ry

     total charge of GC-SCF    =      -1.16650360 e
     the Fermi energy          =      -2.18957493 eV
                        (error :       0.78557493 eV)
     electrostatic embedding   =      -0.20859980 Ry
     cavitation energy         =       0.02366552 Ry
     electrolyte free energy   =      -0.00160858 Ry
     correction to one-el term =      41.23047020 Ry

     iteration #  8     ecut=    80.00 Ry     beta= 0.20
     Davidson diagonalization with overlap

---- Real-time Memory Report at c_bands before calling an iterative solver
           541 MiB given to the printing process from OS
             0 MiB allocation reported by mallinfo(arena+hblkhd)
        212800 MiB available memory on the node where the printing process lives
------------------
     ethr =  2.75E-06,  avg # of iterations = 13.6

     negative rho (up, down):  8.869E-04 0.000E+00

     add environment contribution to local potential

     total cpu time spent up to now is      514.4 secs

     total energy              =    -661.80087557 Ry
     estimated scf accuracy    <       0.01186022 Ry

     total charge of GC-SCF    =      -1.22895474 e
     the Fermi energy          =      -2.02016921 eV
                        (error :       0.61616921 eV)
     electrostatic embedding   =      -0.33443785 Ry
     cavitation energy         =       0.02366552 Ry
     electrolyte free energy   =      -0.00339882 Ry
     correction to one-el term =      52.71750636 Ry

     iteration #  9     ecut=    80.00 Ry     beta= 0.20
     Davidson diagonalization with overlap

---- Real-time Memory Report at c_bands before calling an iterative solver
           541 MiB given to the printing process from OS
             0 MiB allocation reported by mallinfo(arena+hblkhd)
        212787 MiB available memory on the node where the printing process lives
------------------
     ethr =  2.75E-06,  avg # of iterations = 10.4

     negative rho (up, down):  8.264E-04 0.000E+00

     add environment contribution to local potential

     total cpu time spent up to now is      539.2 secs

     total energy              =    -661.69154701 Ry
     estimated scf accuracy    <       0.00670836 Ry

     total charge of GC-SCF    =      -1.74813033 e
     the Fermi energy          =      -2.11607069 eV
                        (error :       0.71207069 eV)
     electrostatic embedding   =      -0.36465093 Ry
     cavitation energy         =       0.02366552 Ry
     electrolyte free energy   =      -0.00305216 Ry
     correction to one-el term =      54.55079624 Ry

     iteration # 10     ecut=    80.00 Ry     beta= 0.20
     Davidson diagonalization with overlap

---- Real-time Memory Report at c_bands before calling an iterative solver
           541 MiB given to the printing process from OS
             0 MiB allocation reported by mallinfo(arena+hblkhd)
        212760 MiB available memory on the node where the printing process lives
------------------
     ethr =  2.75E-06,  avg # of iterations = 11.2

     negative rho (up, down):  6.857E-04 0.000E+00

     add environment contribution to local potential

     total cpu time spent up to now is      570.3 secs

     total energy              =    -661.77672227 Ry
     estimated scf accuracy    <       0.00180067 Ry

     total charge of GC-SCF    =      -2.28839823 e
     the Fermi energy          =      -2.16243427 eV
                        (error :       0.75843427 eV)
     electrostatic embedding   =      -0.66565897 Ry
     cavitation energy         =       0.02366552 Ry
     electrolyte free energy   =      -0.00538040 Ry
     correction to one-el term =      72.63942369 Ry

     iteration # 11     ecut=    80.00 Ry     beta= 0.20
     Davidson diagonalization with overlap

---- Real-time Memory Report at c_bands before calling an iterative solver
           541 MiB given to the printing process from OS
             0 MiB allocation reported by mallinfo(arena+hblkhd)
        212707 MiB available memory on the node where the printing process lives
------------------
     ethr =  1.34E-06,  avg # of iterations = 12.6

     negative rho (up, down):  6.283E-04 0.000E+00

     add environment contribution to local potential

     total cpu time spent up to now is      606.8 secs

     total energy              =    -661.91769429 Ry
     estimated scf accuracy    <       0.00471381 Ry

     total charge of GC-SCF    =      -2.24147256 e
     the Fermi energy          =      -2.00885840 eV
                        (error :       0.60485840 eV)
     electrostatic embedding   =      -1.03983582 Ry
     cavitation energy         =       0.02366552 Ry
     electrolyte free energy   =      -0.01010199 Ry
     correction to one-el term =      89.83682035 Ry

     iteration # 12     ecut=    80.00 Ry     beta= 0.20
     Davidson diagonalization with overlap

---- Real-time Memory Report at c_bands before calling an iterative solver
           541 MiB given to the printing process from OS
             0 MiB allocation reported by mallinfo(arena+hblkhd)
        212743 MiB available memory on the node where the printing process lives
------------------
     ethr =  1.34E-06,  avg # of iterations = 10.4

     negative rho (up, down):  6.048E-04 0.000E+00

     add environment contribution to local potential

     total cpu time spent up to now is      632.6 secs

     total energy              =    -661.77292609 Ry
     estimated scf accuracy    <       0.00408961 Ry

     total charge of GC-SCF    =      -2.89047918 e
     the Fermi energy          =      -2.06173104 eV
                        (error :       0.65773104 eV)
     electrostatic embedding   =      -0.99960624 Ry
     cavitation energy         =       0.02366552 Ry
     electrolyte free energy   =      -0.00927313 Ry
     correction to one-el term =      87.71425315 Ry

     iteration # 13     ecut=    80.00 Ry     beta= 0.20
     Davidson diagonalization with overlap

---- Real-time Memory Report at c_bands before calling an iterative solver
           541 MiB given to the printing process from OS
             0 MiB allocation reported by mallinfo(arena+hblkhd)
        212753 MiB available memory on the node where the printing process lives
------------------
     ethr =  1.34E-06,  avg # of iterations =  9.4

     negative rho (up, down):  6.872E-04 0.000E+00

     add environment contribution to local potential

     total cpu time spent up to now is      663.4 secs

     total energy              =    -661.95352015 Ry
     estimated scf accuracy    <       0.00220960 Ry

     total charge of GC-SCF    =      -2.83460161 e
     the Fermi energy          =      -1.99084790 eV
                        (error :       0.58684790 eV)
     electrostatic embedding   =      -1.58217514 Ry
     cavitation energy         =       0.02366552 Ry
     electrolyte free energy   =      -0.01778369 Ry
     correction to one-el term =     109.70214261 Ry

     iteration # 14     ecut=    80.00 Ry     beta= 0.20
     Davidson diagonalization with overlap

---- Real-time Memory Report at c_bands before calling an iterative solver
           541 MiB given to the printing process from OS
             0 MiB allocation reported by mallinfo(arena+hblkhd)
        212738 MiB available memory on the node where the printing process lives
------------------
     ethr =  1.34E-06,  avg # of iterations = 12.2

     negative rho (up, down):  6.025E-04 0.000E+00

     add environment contribution to local potential

     total cpu time spent up to now is      696.0 secs

     total energy              =    -661.91628569 Ry
     estimated scf accuracy    <       0.00451324 Ry

     total charge of GC-SCF    =      -2.90028655 e
     the Fermi energy          =      -1.90331871 eV
                        (error :       0.49931871 eV)
     electrostatic embedding   =      -1.50644264 Ry
     cavitation energy         =       0.02366552 Ry
     electrolyte free energy   =      -0.01737593 Ry
     correction to one-el term =     107.14334861 Ry

     iteration # 15     ecut=    80.00 Ry     beta= 0.20
     Davidson diagonalization with overlap

---- Real-time Memory Report at c_bands before calling an iterative solver
           541 MiB given to the printing process from OS
             0 MiB allocation reported by mallinfo(arena+hblkhd)
        212744 MiB available memory on the node where the printing process lives
------------------
     ethr =  1.34E-06,  avg # of iterations =  9.1

     negative rho (up, down):  5.786E-04 0.000E+00

     add environment contribution to local potential

     total cpu time spent up to now is      722.5 secs

     total energy              =    -661.98138514 Ry
     estimated scf accuracy    <       0.00555839 Ry

     total charge of GC-SCF    =      -2.72621980 e
     the Fermi energy          =      -1.87397245 eV
                        (error :       0.46997245 eV)
     electrostatic embedding   =      -1.58166306 Ry
     cavitation energy         =       0.02366552 Ry
     electrolyte free energy   =      -0.01864575 Ry
     correction to one-el term =     110.03381829 Ry

     iteration # 16     ecut=    80.00 Ry     beta= 0.20
     Davidson diagonalization with overlap

---- Real-time Memory Report at c_bands before calling an iterative solver
           541 MiB given to the printing process from OS
             0 MiB allocation reported by mallinfo(arena+hblkhd)
        212744 MiB available memory on the node where the printing process lives
------------------
     ethr =  1.34E-06,  avg # of iterations =  6.6

     negative rho (up, down):  6.428E-04 0.000E+00

     add environment contribution to local potential

     total cpu time spent up to now is      746.3 secs

     total energy              =    -661.80340867 Ry
     estimated scf accuracy    <       0.00503632 Ry

     total charge of GC-SCF    =      -3.40879105 e
     the Fermi energy          =      -1.89723952 eV
                        (error :       0.49323952 eV)
     electrostatic embedding   =      -1.41683278 Ry
     cavitation energy         =       0.02366552 Ry
     electrolyte free energy   =      -0.01600161 Ry
     correction to one-el term =     104.64933691 Ry

     iteration # 17     ecut=    80.00 Ry     beta= 0.20
     Davidson diagonalization with overlap

---- Real-time Memory Report at c_bands before calling an iterative solver
           541 MiB given to the printing process from OS
             0 MiB allocation reported by mallinfo(arena+hblkhd)
        212741 MiB available memory on the node where the printing process lives
------------------
     ethr =  1.34E-06,  avg # of iterations = 11.5

     negative rho (up, down):  5.482E-04 0.000E+00

     add environment contribution to local potential

     total cpu time spent up to now is      781.8 secs

     total energy              =    -661.97142797 Ry
     estimated scf accuracy    <       0.00135676 Ry

     total charge of GC-SCF    =      -3.33216841 e
     the Fermi energy          =      -1.91871004 eV
                        (error :       0.51471004 eV)
     electrostatic embedding   =      -2.10012112 Ry
     cavitation energy         =       0.02366552 Ry
     electrolyte free energy   =      -0.02766981 Ry
     correction to one-el term =     124.58807417 Ry

     iteration # 18     ecut=    80.00 Ry     beta= 0.20
     Davidson diagonalization with overlap

---- Real-time Memory Report at c_bands before calling an iterative solver
           541 MiB given to the printing process from OS
             0 MiB allocation reported by mallinfo(arena+hblkhd)
        212736 MiB available memory on the node where the printing process lives
------------------
     ethr =  1.00E-06,  avg # of iterations =  9.6

     negative rho (up, down):  5.458E-04 0.000E+00

     add environment contribution to local potential

     total cpu time spent up to now is      806.4 secs

     total energy              =    -661.90661103 Ry
     estimated scf accuracy    <       0.00113650 Ry

     total charge of GC-SCF    =      -3.62293405 e
     the Fermi energy          =      -1.95834873 eV
                        (error :       0.55434873 eV)
     electrostatic embedding   =      -2.00938063 Ry
     cavitation energy         =       0.02366552 Ry
     electrolyte free energy   =      -0.02570000 Ry
     correction to one-el term =     121.52424796 Ry

     iteration # 19     ecut=    80.00 Ry     beta= 0.20
     Davidson diagonalization with overlap

---- Real-time Memory Report at c_bands before calling an iterative solver
           541 MiB given to the printing process from OS
             0 MiB allocation reported by mallinfo(arena+hblkhd)
        212716 MiB available memory on the node where the printing process lives
------------------
     ethr =  8.38E-07,  avg # of iterations =  6.8

     negative rho (up, down):  4.121E-04 0.000E+00

     add environment contribution to local potential

     total cpu time spent up to now is      832.2 secs

     total energy              =    -662.02514759 Ry
     estimated scf accuracy    <       0.00056686 Ry

     total charge of GC-SCF    =      -5.13465341 e
     the Fermi energy          =      -1.94984289 eV
                        (error :       0.54584289 eV)
     electrostatic embedding   =      -2.33844521 Ry
     cavitation energy         =       0.02366552 Ry
     electrolyte free energy   =      -0.03234646 Ry
     correction to one-el term =     130.23193127 Ry

     iteration # 20     ecut=    80.00 Ry     beta= 0.20
     Davidson diagonalization with overlap

---- Real-time Memory Report at c_bands before calling an iterative solver
           541 MiB given to the printing process from OS
             0 MiB allocation reported by mallinfo(arena+hblkhd)
        212730 MiB available memory on the node where the printing process lives
------------------
     ethr =  4.13E-07,  avg # of iterations = 26.6

     negative rho (up, down):  4.216E-04 0.000E+00

     add environment contribution to local potential

     total cpu time spent up to now is      891.5 secs

     total energy              =    -661.98820218 Ry
     estimated scf accuracy    <       0.00048014 Ry

     total charge of GC-SCF    =      -5.25402013 e
     the Fermi energy          =      -1.54246799 eV
                        (error :       0.13846799 eV)
     electrostatic embedding   =      -4.32861129 Ry
     cavitation energy         =       0.02366552 Ry
     electrolyte free energy   =      -0.09089395 Ry
     correction to one-el term =     172.59442326 Ry

     iteration # 21     ecut=    80.00 Ry     beta= 0.20
     Davidson diagonalization with overlap

---- Real-time Memory Report at c_bands before calling an iterative solver
           541 MiB given to the printing process from OS
             0 MiB allocation reported by mallinfo(arena+hblkhd)
        212715 MiB available memory on the node where the printing process lives
------------------
     ethr =  3.50E-07,  avg # of iterations =  8.9

     negative rho (up, down):  3.489E-04 0.000E+00

     add environment contribution to local potential

     total cpu time spent up to now is      920.2 secs

     total energy              =    -662.02893147 Ry
     estimated scf accuracy    <       0.00033678 Ry

     total charge of GC-SCF    =      -4.91587981 e
     the Fermi energy          =      -1.52904491 eV
                        (error :       0.12504491 eV)
     electrostatic embedding   =      -4.50147258 Ry
     cavitation energy         =       0.02366552 Ry
     electrolyte free energy   =      -0.09730427 Ry
     correction to one-el term =     175.19510469 Ry

     iteration # 22     ecut=    80.00 Ry     beta= 0.20
     Davidson diagonalization with overlap

---- Real-time Memory Report at c_bands before calling an iterative solver
           541 MiB given to the printing process from OS
             0 MiB allocation reported by mallinfo(arena+hblkhd)
        212685 MiB available memory on the node where the printing process lives
------------------
     ethr =  2.46E-07,  avg # of iterations = 14.9

     negative rho (up, down):  3.440E-04 0.000E+00

     add environment contribution to local potential

     total cpu time spent up to now is      962.4 secs

     total energy              =    -661.98823772 Ry
     estimated scf accuracy    <       0.00030029 Ry

     total charge of GC-SCF    =      -4.99613159 e
     the Fermi energy          =      -1.64616979 eV
                        (error :       0.24216979 eV)
     electrostatic embedding   =      -3.96576841 Ry
     cavitation energy         =       0.02366552 Ry
     electrolyte free energy   =      -0.07927831 Ry
     correction to one-el term =     164.24554967 Ry

     iteration # 23     ecut=    80.00 Ry     beta= 0.20
     Davidson diagonalization with overlap

---- Real-time Memory Report at c_bands before calling an iterative solver
           541 MiB given to the printing process from OS
             0 MiB allocation reported by mallinfo(arena+hblkhd)
        212675 MiB available memory on the node where the printing process lives
------------------
     ethr =  2.19E-07,  avg # of iterations =  8.1

     negative rho (up, down):  3.485E-04 0.000E+00

     add environment contribution to local potential

     total cpu time spent up to now is      988.5 secs

     total energy              =    -661.98586548 Ry
     estimated scf accuracy    <       0.00027556 Ry

     total charge of GC-SCF    =      -5.15974817 e
     the Fermi energy          =      -1.63051961 eV
                        (error :       0.22651961 eV)
     electrostatic embedding   =      -4.07700419 Ry
     cavitation energy         =       0.02366552 Ry
     electrolyte free energy   =      -0.08317924 Ry
     correction to one-el term =     166.08048323 Ry

     iteration # 24     ecut=    80.00 Ry     beta= 0.20
     Davidson diagonalization with overlap

---- Real-time Memory Report at c_bands before calling an iterative solver
           541 MiB given to the printing process from OS
             0 MiB allocation reported by mallinfo(arena+hblkhd)
        212702 MiB available memory on the node where the printing process lives
------------------
     ethr =  2.01E-07,  avg # of iterations = 10.2

     negative rho (up, down):  3.608E-04 0.000E+00

     add environment contribution to local potential

     total cpu time spent up to now is     1020.9 secs

     total energy              =    -661.99196135 Ry
     estimated scf accuracy    <       0.00015625 Ry

     total charge of GC-SCF    =      -5.52723550 e
     the Fermi energy          =      -1.60873738 eV
                        (error :       0.20473738 eV)
     electrostatic embedding   =      -4.30439059 Ry
     cavitation energy         =       0.02366552 Ry
     electrolyte free energy   =      -0.09151139 Ry
     correction to one-el term =     169.52681314 Ry

     iteration # 25     ecut=    80.00 Ry     beta= 0.20
     Davidson diagonalization with overlap

---- Real-time Memory Report at c_bands before calling an iterative solver
           541 MiB given to the printing process from OS
             0 MiB allocation reported by mallinfo(arena+hblkhd)
        212714 MiB available memory on the node where the printing process lives
------------------
     ethr =  1.14E-07,  avg # of iterations = 14.4

     negative rho (up, down):  3.602E-04 0.000E+00

     add environment contribution to local potential

     total cpu time spent up to now is     1060.5 secs

     total energy              =    -662.00012870 Ry
     estimated scf accuracy    <       0.00011959 Ry

     total charge of GC-SCF    =      -5.53828679 e
     the Fermi energy          =      -1.50424583 eV
                        (error :       0.10024583 eV)
     electrostatic embedding   =      -4.84705111 Ry
     cavitation energy         =       0.02366552 Ry
     electrolyte free energy   =      -0.11314950 Ry
     correction to one-el term =     178.25106804 Ry

     iteration # 26     ecut=    80.00 Ry     beta= 0.20
     Davidson diagonalization with overlap

---- Real-time Memory Report at c_bands before calling an iterative solver
           541 MiB given to the printing process from OS
             0 MiB allocation reported by mallinfo(arena+hblkhd)
        212705 MiB available memory on the node where the printing process lives
------------------
     ethr =  8.70E-08,  avg # of iterations =  6.6

     negative rho (up, down):  3.305E-04 0.000E+00

     add environment contribution to local potential

     total cpu time spent up to now is     1083.8 secs

     total energy              =    -661.99895460 Ry
     estimated scf accuracy    <       0.00009575 Ry

     total charge of GC-SCF    =      -5.75661475 e
     the Fermi energy          =      -1.50900335 eV
                        (error :       0.10500335 eV)
     electrostatic embedding   =      -4.86028060 Ry
     cavitation energy         =       0.02366552 Ry
     electrolyte free energy   =      -0.11380919 Ry
     correction to one-el term =     178.25876468 Ry

     iteration # 27     ecut=    80.00 Ry     beta= 0.20
     Davidson diagonalization with overlap

---- Real-time Memory Report at c_bands before calling an iterative solver
           541 MiB given to the printing process from OS
             0 MiB allocation reported by mallinfo(arena+hblkhd)
        212667 MiB available memory on the node where the printing process lives
------------------
     ethr =  6.95E-08,  avg # of iterations = 15.9

     negative rho (up, down):  3.389E-04 0.000E+00

     add environment contribution to local potential

     total cpu time spent up to now is     1126.4 secs

     total energy              =    -662.00114070 Ry
     estimated scf accuracy    <       0.00003363 Ry

     total charge of GC-SCF    =      -5.83316267 e
     the Fermi energy          =      -1.45966674 eV
                        (error :       0.05566674 eV)
     electrostatic embedding   =      -5.16834969 Ry
     cavitation energy         =       0.02366552 Ry
     electrolyte free energy   =      -0.12875453 Ry
     correction to one-el term =     181.98208715 Ry

     iteration # 28     ecut=    80.00 Ry     beta= 0.20
     Davidson diagonalization with overlap

---- Real-time Memory Report at c_bands before calling an iterative solver
           541 MiB given to the printing process from OS
             0 MiB allocation reported by mallinfo(arena+hblkhd)
        212651 MiB available memory on the node where the printing process lives
------------------
     ethr =  2.44E-08,  avg # of iterations = 16.2

     negative rho (up, down):  3.191E-04 0.000E+00

     add environment contribution to local potential

     total cpu time spent up to now is     1172.8 secs

     total energy              =    -662.00178221 Ry
     estimated scf accuracy    <       0.00002170 Ry

     total charge of GC-SCF    =      -5.89765302 e
     the Fermi energy          =      -1.45260750 eV
                        (error :       0.04860750 eV)
     electrostatic embedding   =      -5.27087221 Ry
     cavitation energy         =       0.02366552 Ry
     electrolyte free energy   =      -0.13449207 Ry
     correction to one-el term =     182.74387629 Ry

     iteration # 29     ecut=    80.00 Ry     beta= 0.20
     Davidson diagonalization with overlap

---- Real-time Memory Report at c_bands before calling an iterative solver
           541 MiB given to the printing process from OS
             0 MiB allocation reported by mallinfo(arena+hblkhd)
        212701 MiB available memory on the node where the printing process lives
------------------
     ethr =  1.57E-08,  avg # of iterations = 12.0

     negative rho (up, down):  2.989E-04 0.000E+00

     add environment contribution to local potential

     total cpu time spent up to now is     1211.6 secs

     total energy              =    -662.00236288 Ry
     estimated scf accuracy    <       0.00001610 Ry

     total charge of GC-SCF    =      -5.85258454 e
     the Fermi energy          =      -1.42292490 eV
                        (error :       0.01892490 eV)
     electrostatic embedding   =      -5.38674836 Ry
     cavitation energy         =       0.02366552 Ry
     electrolyte free energy   =      -0.13988189 Ry
     correction to one-el term =     184.98689936 Ry

     iteration # 30     ecut=    80.00 Ry     beta= 0.20
     Davidson diagonalization with overlap

---- Real-time Memory Report at c_bands before calling an iterative solver
           541 MiB given to the printing process from OS
             0 MiB allocation reported by mallinfo(arena+hblkhd)
        212717 MiB available memory on the node where the printing process lives
------------------
     ethr =  1.17E-08,  avg # of iterations = 12.4

     negative rho (up, down):  2.903E-04 0.000E+00

     add environment contribution to local potential

     total cpu time spent up to now is     1249.5 secs

     total energy              =    -662.00172970 Ry
     estimated scf accuracy    <       0.00001357 Ry

     total charge of GC-SCF    =      -5.90552255 e
     the Fermi energy          =      -1.44247360 eV
                        (error :       0.03847360 eV)
     electrostatic embedding   =      -5.30896566 Ry
     cavitation energy         =       0.02366552 Ry
     electrolyte free energy   =      -0.13610135 Ry
     correction to one-el term =     183.63954922 Ry

     iteration # 31     ecut=    80.00 Ry     beta= 0.20
     Davidson diagonalization with overlap

---- Real-time Memory Report at c_bands before calling an iterative solver
           541 MiB given to the printing process from OS
             0 MiB allocation reported by mallinfo(arena+hblkhd)
        212756 MiB available memory on the node where the printing process lives
------------------
     ethr =  9.84E-09,  avg # of iterations = 11.1

     negative rho (up, down):  3.031E-04 0.000E+00

     add environment contribution to local potential

     total cpu time spent up to now is     1284.8 secs

     total energy              =    -662.00184482 Ry
     estimated scf accuracy    <       0.00001063 Ry

     total charge of GC-SCF    =      -5.95965486 e
     the Fermi energy          =      -1.42349878 eV
                        (error :       0.01949878 eV)
     electrostatic embedding   =      -5.39345151 Ry
     cavitation energy         =       0.02366552 Ry
     electrolyte free energy   =      -0.14051431 Ry
     correction to one-el term =     184.88263554 Ry

     iteration # 32     ecut=    80.00 Ry     beta= 0.20
     Davidson diagonalization with overlap

---- Real-time Memory Report at c_bands before calling an iterative solver
           541 MiB given to the printing process from OS
             0 MiB allocation reported by mallinfo(arena+hblkhd)
        212721 MiB available memory on the node where the printing process lives
------------------
     ethr =  7.71E-09,  avg # of iterations = 12.1

     negative rho (up, down):  3.037E-04 0.000E+00

     add environment contribution to local potential

     total cpu time spent up to now is     1324.4 secs

     total energy              =    -662.00182127 Ry
     estimated scf accuracy    <       0.00000675 Ry

     total charge of GC-SCF    =      -5.94504875 e
     the Fermi energy          =      -1.41090858 eV
                        (error :       0.00690858 eV)
     electrostatic embedding   =      -5.47331850 Ry
     cavitation energy         =       0.02366552 Ry
     electrolyte free energy   =      -0.14526368 Ry
     correction to one-el term =     185.72083485 Ry

     iteration # 33     ecut=    80.00 Ry     beta= 0.20
     Davidson diagonalization with overlap

---- Real-time Memory Report at c_bands before calling an iterative solver
           541 MiB given to the printing process from OS
             0 MiB allocation reported by mallinfo(arena+hblkhd)
        212710 MiB available memory on the node where the printing process lives
------------------
     ethr =  4.90E-09,  avg # of iterations =  8.9

     negative rho (up, down):  2.969E-04 0.000E+00

     add environment contribution to local potential

     total cpu time spent up to now is     1354.1 secs

     total energy              =    -662.00179982 Ry
     estimated scf accuracy    <       0.00000447 Ry

     total charge of GC-SCF    =      -5.96264385 e
     the Fermi energy          =      -1.41409340 eV
                        (error :       0.01009340 eV)
     electrostatic embedding   =      -5.44871306 Ry
     cavitation energy         =       0.02366552 Ry
     electrolyte free energy   =      -0.14393672 Ry
     correction to one-el term =     185.35011281 Ry

     iteration # 34     ecut=    80.00 Ry     beta= 0.20
     Davidson diagonalization with overlap

---- Real-time Memory Report at c_bands before calling an iterative solver
           541 MiB given to the printing process from OS
             0 MiB allocation reported by mallinfo(arena+hblkhd)
        212688 MiB available memory on the node where the printing process lives
------------------
     ethr =  3.24E-09,  avg # of iterations = 10.4

     negative rho (up, down):  2.919E-04 0.000E+00

     add environment contribution to local potential

     total cpu time spent up to now is     1387.6 secs

     total energy              =    -662.00177839 Ry
     estimated scf accuracy    <       0.00000287 Ry

     total charge of GC-SCF    =      -5.97927665 e
     the Fermi energy          =      -1.40749309 eV
                        (error :       0.00349309 eV)
     electrostatic embedding   =      -5.47390366 Ry
     cavitation energy         =       0.02366552 Ry
     electrolyte free energy   =      -0.14553324 Ry
     correction to one-el term =     185.63307628 Ry

     iteration # 35     ecut=    80.00 Ry     beta= 0.20
     Davidson diagonalization with overlap

---- Real-time Memory Report at c_bands before calling an iterative solver
           541 MiB given to the printing process from OS
             0 MiB allocation reported by mallinfo(arena+hblkhd)
        212696 MiB available memory on the node where the printing process lives
------------------
     ethr =  2.08E-09,  avg # of iterations = 10.4

     negative rho (up, down):  2.892E-04 0.000E+00

     add environment contribution to local potential

     total cpu time spent up to now is     1422.7 secs

     total energy              =    -662.00175239 Ry
     estimated scf accuracy    <       0.00000190 Ry

     total charge of GC-SCF    =      -5.99631550 e
     the Fermi energy          =      -1.40210726 eV
                        (error :       0.00189274 eV)
     electrostatic embedding   =      -5.49777540 Ry
     cavitation energy         =       0.02366552 Ry
     electrolyte free energy   =      -0.14708012 Ry
     correction to one-el term =     185.90981739 Ry

     iteration # 36     ecut=    80.00 Ry     beta= 0.20
     Davidson diagonalization with overlap

---- Real-time Memory Report at c_bands before calling an iterative solver
           541 MiB given to the printing process from OS
             0 MiB allocation reported by mallinfo(arena+hblkhd)
        212726 MiB available memory on the node where the printing process lives
------------------
     ethr =  1.38E-09,  avg # of iterations = 13.8

     negative rho (up, down):  2.886E-04 0.000E+00

     add environment contribution to local potential

     total cpu time spent up to now is     1466.1 secs

     total energy              =    -662.00167211 Ry
     estimated scf accuracy    <       0.00000088 Ry

     total charge of GC-SCF    =      -5.99652324 e
     the Fermi energy          =      -1.39726367 eV
                        (error :       0.00673633 eV)
     electrostatic embedding   =      -5.52003991 Ry
     cavitation energy         =       0.02366552 Ry
     electrolyte free energy   =      -0.14870062 Ry
     correction to one-el term =     186.10309898 Ry

     iteration # 37     ecut=    80.00 Ry     beta= 0.20
     Davidson diagonalization with overlap

---- Real-time Memory Report at c_bands before calling an iterative solver
           541 MiB given to the printing process from OS
             0 MiB allocation reported by mallinfo(arena+hblkhd)
        212721 MiB available memory on the node where the printing process lives
------------------
     ethr =  6.41E-10,  avg # of iterations = 10.5

     negative rho (up, down):  2.894E-04 0.000E+00

     add environment contribution to local potential

     total cpu time spent up to now is     1499.4 secs

     total energy              =    -662.00167127 Ry
     estimated scf accuracy    <       0.00000074 Ry

     total charge of GC-SCF    =      -5.99452646 e
     the Fermi energy          =      -1.39762074 eV
                        (error :       0.00637926 eV)
     electrostatic embedding   =      -5.51893302 Ry
     cavitation energy         =       0.02366552 Ry
     electrolyte free energy   =      -0.14871506 Ry
     correction to one-el term =     186.05513873 Ry

     iteration # 38     ecut=    80.00 Ry     beta= 0.20
     Davidson diagonalization with overlap

---- Real-time Memory Report at c_bands before calling an iterative solver
           541 MiB given to the printing process from OS
             0 MiB allocation reported by mallinfo(arena+hblkhd)
        212695 MiB available memory on the node where the printing process lives
------------------
     ethr =  5.33E-10,  avg # of iterations =  9.1

     negative rho (up, down):  2.938E-04 0.000E+00

     add environment contribution to local potential

     total cpu time spent up to now is     1530.3 secs

     total energy              =    -662.00167575 Ry
     estimated scf accuracy    <       0.00000041 Ry

     total charge of GC-SCF    =      -5.98722943 e
     the Fermi energy          =      -1.39844800 eV
                        (error :       0.00555200 eV)
     electrostatic embedding   =      -5.51510343 Ry
     cavitation energy         =       0.02366552 Ry
     electrolyte free energy   =      -0.14851872 Ry
     correction to one-el term =     185.99253563 Ry

     iteration # 39     ecut=    80.00 Ry     beta= 0.20
     Davidson diagonalization with overlap

---- Real-time Memory Report at c_bands before calling an iterative solver
           541 MiB given to the printing process from OS
             0 MiB allocation reported by mallinfo(arena+hblkhd)
        212686 MiB available memory on the node where the printing process lives
------------------
     ethr =  2.94E-10,  avg # of iterations = 11.3

     negative rho (up, down):  2.876E-04 0.000E+00

     add environment contribution to local potential

     total cpu time spent up to now is     1568.8 secs

     total energy              =    -662.00171176 Ry
     estimated scf accuracy    <       0.00000024 Ry

     total charge of GC-SCF    =      -5.98027209 e
     the Fermi energy          =      -1.40141687 eV
                        (error :       0.00258313 eV)
     electrostatic embedding   =      -5.50210831 Ry
     cavitation energy         =       0.02366552 Ry
     electrolyte free energy   =      -0.14780705 Ry
     correction to one-el term =     185.77286224 Ry

     iteration # 40     ecut=    80.00 Ry     beta= 0.20
     Davidson diagonalization with overlap

---- Real-time Memory Report at c_bands before calling an iterative solver
           541 MiB given to the printing process from OS
             0 MiB allocation reported by mallinfo(arena+hblkhd)
        212673 MiB available memory on the node where the printing process lives
------------------
     ethr =  1.72E-10,  avg # of iterations = 13.4

     negative rho (up, down):  2.869E-04 0.000E+00

     add environment contribution to local potential

     total cpu time spent up to now is     1610.6 secs

     total energy              =    -662.00174307 Ry
     estimated scf accuracy    <       0.00000009 Ry

     total charge of GC-SCF    =      -5.98375548 e
     the Fermi energy          =      -1.40434967 eV
                        (error :       0.00034967 eV)
     electrostatic embedding   =      -5.48941560 Ry
     cavitation energy         =       0.02366552 Ry
     electrolyte free energy   =      -0.14713291 Ry
     correction to one-el term =     185.52447218 Ry

     iteration # 41     ecut=    80.00 Ry     beta= 0.20
     Davidson diagonalization with overlap

---- Real-time Memory Report at c_bands before calling an iterative solver
           541 MiB given to the printing process from OS
             0 MiB allocation reported by mallinfo(arena+hblkhd)
        212676 MiB available memory on the node where the printing process lives
------------------
     ethr =  6.21E-11,  avg # of iterations = 13.2

     negative rho (up, down):  2.867E-04 0.000E+00

     add environment contribution to local potential

     total cpu time spent up to now is     1653.1 secs

     total energy              =    -662.00173537 Ry
     estimated scf accuracy    <       0.00000005 Ry

     total charge of GC-SCF    =      -5.98451178 e
     the Fermi energy          =      -1.40356645 eV
                        (error :       0.00043355 eV)
     electrostatic embedding   =      -5.49398280 Ry
     cavitation energy         =       0.02366552 Ry
     electrolyte free energy   =      -0.14745954 Ry
     correction to one-el term =     185.55028183 Ry

     iteration # 42     ecut=    80.00 Ry     beta= 0.20
     Davidson diagonalization with overlap

---- Real-time Memory Report at c_bands before calling an iterative solver
           541 MiB given to the printing process from OS
             0 MiB allocation reported by mallinfo(arena+hblkhd)
        212674 MiB available memory on the node where the printing process lives
------------------
     ethr =  3.90E-11,  avg # of iterations =  9.5

     negative rho (up, down):  2.864E-04 0.000E+00

     add environment contribution to local potential

     total cpu time spent up to now is     1684.5 secs

     total energy              =    -662.00173345 Ry
     estimated scf accuracy    <       0.00000004 Ry

     total charge of GC-SCF    =      -5.98517873 e
     the Fermi energy          =      -1.40327646 eV
                        (error :       0.00072354 eV)
     electrostatic embedding   =      -5.49494037 Ry
     cavitation energy         =       0.02366552 Ry
     electrolyte free energy   =      -0.14753097 Ry
     correction to one-el term =     185.55329946 Ry

     iteration # 43     ecut=    80.00 Ry     beta= 0.20
     Davidson diagonalization with overlap

---- Real-time Memory Report at c_bands before calling an iterative solver
           541 MiB given to the printing process from OS
             0 MiB allocation reported by mallinfo(arena+hblkhd)
        212653 MiB available memory on the node where the printing process lives
------------------
     ethr =  3.05E-11,  avg # of iterations =  8.0

     negative rho (up, down):  2.870E-04 0.000E+00

     add environment contribution to local potential

     total cpu time spent up to now is     1714.8 secs

     total energy              =    -662.00173105 Ry
     estimated scf accuracy    <       0.00000003 Ry

     total charge of GC-SCF    =      -5.98227606 e
     the Fermi energy          =      -1.40315257 eV
                        (error :       0.00084743 eV)
     electrostatic embedding   =      -5.49622327 Ry
     cavitation energy         =       0.02366552 Ry
     electrolyte free energy   =      -0.14759553 Ry
     correction to one-el term =     185.57732217 Ry

     iteration # 44     ecut=    80.00 Ry     beta= 0.20
     Davidson diagonalization with overlap

---- Real-time Memory Report at c_bands before calling an iterative solver
           541 MiB given to the printing process from OS
             0 MiB allocation reported by mallinfo(arena+hblkhd)
        212620 MiB available memory on the node where the printing process lives
------------------
     ethr =  2.10E-11,  avg # of iterations = 11.7

     negative rho (up, down):  2.871E-04 0.000E+00

     add environment contribution to local potential

     total cpu time spent up to now is     1753.9 secs

     total energy              =    -662.00173858 Ry
     estimated scf accuracy    <       0.00000001 Ry

     total charge of GC-SCF    =      -5.98215113 e
     the Fermi energy          =      -1.40390429 eV
                        (error :       0.00009571 eV)
     electrostatic embedding   =      -5.49190702 Ry
     cavitation energy         =       0.02366552 Ry
     electrolyte free energy   =      -0.14732024 Ry
     correction to one-el term =     185.52682260 Ry

     iteration # 45     ecut=    80.00 Ry     beta= 0.20
     Davidson diagonalization with overlap

---- Real-time Memory Report at c_bands before calling an iterative solver
           541 MiB given to the printing process from OS
             0 MiB allocation reported by mallinfo(arena+hblkhd)
        212629 MiB available memory on the node where the printing process lives
------------------
     ethr =  1.04E-11,  avg # of iterations = 10.1

     negative rho (up, down):  2.869E-04 0.000E+00

     add environment contribution to local potential

     total cpu time spent up to now is     1788.0 secs

     total energy              =    -662.00173809 Ry
     estimated scf accuracy    <          8.4E-09 Ry

     total charge of GC-SCF    =      -5.98216780 e
     the Fermi energy          =      -1.40384908 eV
                        (error :       0.00015092 eV)
     electrostatic embedding   =      -5.49193424 Ry
     cavitation energy         =       0.02366552 Ry
     electrolyte free energy   =      -0.14730970 Ry
     correction to one-el term =     185.53513822 Ry

     iteration # 46     ecut=    80.00 Ry     beta= 0.20
     Davidson diagonalization with overlap

---- Real-time Memory Report at c_bands before calling an iterative solver
           541 MiB given to the printing process from OS
             0 MiB allocation reported by mallinfo(arena+hblkhd)
        212633 MiB available memory on the node where the printing process lives
------------------
     ethr =  6.10E-12,  avg # of iterations = 11.4

     negative rho (up, down):  2.867E-04 0.000E+00

     add environment contribution to local potential

     total cpu time spent up to now is     1823.8 secs

     total energy              =    -662.00173762 Ry
     estimated scf accuracy    <          6.3E-09 Ry

     total charge of GC-SCF    =      -5.98157564 e
     the Fermi energy          =      -1.40381885 eV
                        (error :       0.00018115 eV)
     electrostatic embedding   =      -5.49212139 Ry
     cavitation energy         =       0.02366552 Ry
     electrolyte free energy   =      -0.14731197 Ry
     correction to one-el term =     185.54266545 Ry

     iteration # 47     ecut=    80.00 Ry     beta= 0.20
     Davidson diagonalization with overlap

---- Real-time Memory Report at c_bands before calling an iterative solver
           541 MiB given to the printing process from OS
             0 MiB allocation reported by mallinfo(arena+hblkhd)
        212645 MiB available memory on the node where the printing process lives
------------------
     ethr =  4.53E-12,  avg # of iterations = 12.2

     negative rho (up, down):  2.866E-04 0.000E+00

     add environment contribution to local potential

     total cpu time spent up to now is     1862.9 secs

     total energy              =    -662.00173894 Ry
     estimated scf accuracy    <          3.3E-09 Ry

     total charge of GC-SCF    =      -5.98131851 e
     the Fermi energy          =      -1.40397726 eV
                        (error :       0.00002274 eV)
     electrostatic embedding   =      -5.49137071 Ry
     cavitation energy         =       0.02366552 Ry
     electrolyte free energy   =      -0.14725643 Ry
     correction to one-el term =     185.53827389 Ry

     iteration # 48     ecut=    80.00 Ry     beta= 0.20
     Davidson diagonalization with overlap

---- Real-time Memory Report at c_bands before calling an iterative solver
           541 MiB given to the printing process from OS
             0 MiB allocation reported by mallinfo(arena+hblkhd)
        212652 MiB available memory on the node where the printing process lives
------------------
     ethr =  2.41E-12,  avg # of iterations =  8.8

     negative rho (up, down):  2.866E-04 0.000E+00

     add environment contribution to local potential

     total cpu time spent up to now is     1892.9 secs

     total energy              =    -662.00173954 Ry
     estimated scf accuracy    <          2.3E-09 Ry

     total charge of GC-SCF    =      -5.98174240 e
     the Fermi energy          =      -1.40404813 eV
                        (error :       0.00004813 eV)
     electrostatic embedding   =      -5.49097750 Ry
     cavitation energy         =       0.02366552 Ry
     electrolyte free energy   =      -0.14723212 Ry
     correction to one-el term =     185.53367402 Ry

     iteration # 49     ecut=    80.00 Ry     beta= 0.20
     Davidson diagonalization with overlap

---- Real-time Memory Report at c_bands before calling an iterative solver
           541 MiB given to the printing process from OS
             0 MiB allocation reported by mallinfo(arena+hblkhd)
        212631 MiB available memory on the node where the printing process lives
------------------
     ethr =  1.64E-12,  avg # of iterations = 10.1

     negative rho (up, down):  2.867E-04 0.000E+00

     add environment contribution to local potential

     total cpu time spent up to now is     1926.3 secs

     total energy              =    -662.00173794 Ry
     estimated scf accuracy    <          1.7E-09 Ry

     total charge of GC-SCF    =      -5.98211010 e
     the Fermi energy          =      -1.40387079 eV
                        (error :       0.00012921 eV)
     electrostatic embedding   =      -5.49170150 Ry
     cavitation energy         =       0.02366552 Ry
     electrolyte free energy   =      -0.14727278 Ry
     correction to one-el term =     185.54556626 Ry

     iteration # 50     ecut=    80.00 Ry     beta= 0.20
     Davidson diagonalization with overlap

---- Real-time Memory Report at c_bands before calling an iterative solver
           541 MiB given to the printing process from OS
             0 MiB allocation reported by mallinfo(arena+hblkhd)
        212644 MiB available memory on the node where the printing process lives
------------------
     ethr =  1.24E-12,  avg # of iterations = 10.7

     negative rho (up, down):  2.868E-04 0.000E+00

     add environment contribution to local potential

     total cpu time spent up to now is     1961.4 secs

     total energy              =    -662.00173651 Ry
     estimated scf accuracy    <          1.5E-09 Ry

     total charge of GC-SCF    =      -5.98160312 e
     the Fermi energy          =      -1.40372163 eV
                        (error :       0.00027837 eV)
     electrostatic embedding   =      -5.49239388 Ry
     cavitation energy         =       0.02366552 Ry
     electrolyte free energy   =      -0.14730827 Ry
     correction to one-el term =     185.55835120 Ry

     iteration # 51     ecut=    80.00 Ry     beta= 0.20
     Davidson diagonalization with overlap

---- Real-time Memory Report at c_bands before calling an iterative solver
           541 MiB given to the printing process from OS
             0 MiB allocation reported by mallinfo(arena+hblkhd)
        212645 MiB available memory on the node where the printing process lives
------------------
     ethr =  1.07E-12,  avg # of iterations = 12.6

     negative rho (up, down):  2.868E-04 0.000E+00

     add environment contribution to local potential

     total cpu time spent up to now is     2002.3 secs

     total energy              =    -662.00173788 Ry
     estimated scf accuracy    <          1.0E-09 Ry

     total charge of GC-SCF    =      -5.98087977 e
     the Fermi energy          =      -1.40387123 eV
                        (error :       0.00012877 eV)
     electrostatic embedding   =      -5.49175221 Ry
     cavitation energy         =       0.02366552 Ry
     electrolyte free energy   =      -0.14726063 Ry
     correction to one-el term =     185.55387577 Ry

     iteration # 52     ecut=    80.00 Ry     beta= 0.20
     Davidson diagonalization with overlap

---- Real-time Memory Report at c_bands before calling an iterative solver
           541 MiB given to the printing process from OS
             0 MiB allocation reported by mallinfo(arena+hblkhd)
        212595 MiB available memory on the node where the printing process lives
------------------
     ethr =  7.51E-13,  avg # of iterations = 11.8

     negative rho (up, down):  2.868E-04 0.000E+00

     add environment contribution to local potential

     total cpu time spent up to now is     2041.9 secs

     total energy              =    -662.00173980 Ry
     estimated scf accuracy    <          1.0E-09 Ry

     total charge of GC-SCF    =      -5.98082508 e
     the Fermi energy          =      -1.40406655 eV
                        (error :       0.00006655 eV)
     electrostatic embedding   =      -5.49068312 Ry
     cavitation energy         =       0.02366552 Ry
     electrolyte free energy   =      -0.14719223 Ry
     correction to one-el term =     185.54097723 Ry

     iteration # 53     ecut=    80.00 Ry     beta= 0.20
     Davidson diagonalization with overlap

---- Real-time Memory Report at c_bands before calling an iterative solver
           541 MiB given to the printing process from OS
             0 MiB allocation reported by mallinfo(arena+hblkhd)
        212602 MiB available memory on the node where the printing process lives
------------------
     ethr =  7.35E-13,  avg # of iterations = 10.2

     negative rho (up, down):  2.868E-04 0.000E+00

     add environment contribution to local potential

     total cpu time spent up to now is     2075.1 secs

     total energy              =    -662.00173998 Ry
     estimated scf accuracy    <          3.5E-10 Ry

     total charge of GC-SCF    =      -5.98081145 e
     the Fermi energy          =      -1.40408684 eV
                        (error :       0.00008684 eV)
     electrostatic embedding   =      -5.49063122 Ry
     cavitation energy         =       0.02366552 Ry
     electrolyte free energy   =      -0.14718712 Ry
     correction to one-el term =     185.54108389 Ry

     iteration # 54     ecut=    80.00 Ry     beta= 0.20
     Davidson diagonalization with overlap

---- Real-time Memory Report at c_bands before calling an iterative solver
           541 MiB given to the printing process from OS
             0 MiB allocation reported by mallinfo(arena+hblkhd)
        212587 MiB available memory on the node where the printing process lives
------------------
     ethr =  2.56E-13,  avg # of iterations = 10.0

     negative rho (up, down):  2.868E-04 0.000E+00

     add environment contribution to local potential

     total cpu time spent up to now is     2108.3 secs

     total energy              =    -662.00174016 Ry
     estimated scf accuracy    <          3.0E-10 Ry

     total charge of GC-SCF    =      -5.98052451 e
[...]
     atom   10 type  1   force =    -0.00029959   -0.01911337   -7.10196131
     atom   11 type  1   force =    -0.00000001    0.03180604   -5.87443534
     atom   12 type  1   force =    -0.00000001   -0.01527068   -2.79206678
     atom   13 type  1   force =    -0.00000001    0.00949364    0.61908639
     atom   14 type  1   force =    -0.00000001   -0.00986350    3.68642485
     atom   15 type  1   force =    -0.00053143   -0.03129418    5.87516317
     atom   16 type  1   force =     0.00051070    0.02671348    9.28015251
     atom   17 type  1   force =     0.00012555    0.01537149    2.79147031
     atom   18 type  1   force =     0.00000000    0.02022931    7.10259809
     atom   19 type  1   force =    -0.00000001   -0.03004723   10.07025484
     atom   20 type  1   force =    -0.00000001    0.09731451   13.50200718
     atom   21 type  1   force =    -0.00049090   -0.07717741   12.57929281
     atom   22 type  1   force =     0.00011595    0.15239522   15.50364942
     atom   23 type  1   force =     0.00000003   -0.16475687   15.86500241
     atom   24 type  1   force =    -0.00002227    0.16429982  -15.86494484
     atom   25 type  1   force =     0.00008785   -0.09760988  -13.50265636
     atom   26 type  1   force =     0.00000002   -0.15256293  -15.50341599
     atom   27 type  1   force =    -0.00000000    0.07716335  -12.57907456
     atom   28 type  1   force =     0.00000002   -0.02706108   -9.28032249
     atom   29 type  1   force =    -0.00007911    0.01028547   -3.68681382
     atom   30 type  1   force =     0.00031485   -0.00969399   -0.61965020
     atom   31 type  1   force =    -0.00001539    0.03053948  -10.07054635
     atom   32 type  1   force =     0.00029959   -0.01911339   -7.10196132
     atom   33 type  1   force =    -0.00000000    0.03118729   -5.87532087
     atom   34 type  1   force =     0.00000003   -0.01593709   -2.79209708
     atom   35 type  1   force =     0.00000003    0.01026982    0.62032063
     atom   36 type  1   force =     0.00000004   -0.01096920    3.68635934
     atom   37 type  1   force =     0.00053142   -0.03129420    5.87516318
     atom   38 type  1   force =    -0.00051071    0.02671350    9.28015250
     atom   39 type  1   force =    -0.00012557    0.01537149    2.79147033
     atom   40 type  1   force =    -0.00000001    0.01855733    7.10111754
     atom   41 type  1   force =     0.00000003   -0.03179520   10.07025843
     atom   42 type  1   force =     0.00000003    0.09865197   13.50367462
     atom   43 type  1   force =     0.00049087   -0.07717741   12.57929280
     atom   44 type  1   force =    -0.00011597    0.15239522   15.50364944
     The local contribution  to forces
     atom    1 type  1   force =     0.00000136    0.16238688  -15.68778757
     atom    2 type  1   force =    -0.00002232   -0.16251037   15.68733401
     atom    3 type  1   force =     0.00008989    0.09175308   13.26889448
     atom    4 type  1   force =     0.00000136    0.14112240   15.30040984
     atom    5 type  1   force =     0.00000000   -0.06728176   12.34921220
     atom    6 type  1   force =     0.00000136    0.02592541    9.10971427
     atom    7 type  1   force =    -0.00007844   -0.01108816    3.61549640
     atom    8 type  1   force =     0.00032093    0.01014609    0.60701398
     atom    9 type  1   force =    -0.00001480   -0.03012536    9.88627881
     atom   10 type  1   force =     0.00030363    0.02143855    6.97581083
     atom   11 type  1   force =    -0.00000000   -0.03226535    5.76880874
     atom   12 type  1   force =     0.00000136    0.01766833    2.74552758
     atom   13 type  1   force =     0.00000136   -0.00993947   -0.60674925
     atom   14 type  1   force =     0.00000136    0.01066110   -3.61541033
     atom   15 type  1   force =     0.00054273    0.03174517   -5.76984579
     atom   16 type  1   force =    -0.00051024   -0.02600875   -9.10997892
     atom   17 type  1   force =    -0.00012876   -0.01776459   -2.74522327
     atom   18 type  1   force =     0.00000000   -0.02256413   -6.97673638
     atom   19 type  1   force =     0.00000136    0.02962927   -9.88628028
     atom   20 type  1   force =     0.00000136   -0.09145054  -13.26854708
     atom   21 type  1   force =     0.00049659    0.06704541  -12.35049699
     atom   22 type  1   force =    -0.00012283   -0.14109427  -15.30102851
     atom   23 type  1   force =     0.00000273    0.16297663  -15.68766643
     atom   24 type  1   force =     0.00002505   -0.16251037   15.68733401
     atom   25 type  1   force =    -0.00008716    0.09175308   13.26889448
     atom   26 type  1   force =     0.00000272    0.14125624   15.30050071
     atom   27 type  1   force =     0.00000136   -0.06703075   12.34997930
     atom   28 type  1   force =     0.00000272    0.02636242    9.10985783
     atom   29 type  1   force =     0.00008115   -0.01108816    3.61549640
     atom   30 type  1   force =    -0.00031821    0.01014609    0.60701398
     atom   31 type  1   force =     0.00001752   -0.03012536    9.88627881
     atom   32 type  1   force =    -0.00030090    0.02143855    6.97581083
     atom   33 type  1   force =     0.00000136   -0.03163796    5.76969095
     atom   34 type  1   force =     0.00000272    0.01834469    2.74556595
     atom   35 type  1   force =     0.00000272   -0.01073004   -0.60798208
     atom   36 type  1   force =     0.00000272    0.01178637   -3.61533421
     atom   37 type  1   force =    -0.00054001    0.03174517   -5.76984579
     atom   38 type  1   force =     0.00051295   -0.02600875   -9.10997892
     atom   39 type  1   force =     0.00013149   -0.01776459   -2.74522327
     atom   40 type  1   force =     0.00000136   -0.02087004   -6.97528370
     atom   41 type  1   force =     0.00000272    0.03138880   -9.88629574
     atom   42 type  1   force =     0.00000272   -0.09280662  -13.27020288
     atom   43 type  1   force =    -0.00049388    0.06704541  -12.35049699
     atom   44 type  1   force =     0.00012555   -0.14109427  -15.30102851
     The core correction contribution to forces
     atom    1 type  1   force =     0.00000000    0.00000000    0.00000000
     atom    2 type  1   force =     0.00000000    0.00000000    0.00000000
     atom    3 type  1   force =     0.00000000    0.00000000    0.00000000
     atom    4 type  1   force =     0.00000000    0.00000000    0.00000000
     atom    5 type  1   force =     0.00000000    0.00000000    0.00000000
     atom    6 type  1   force =     0.00000000    0.00000000    0.00000000
     atom    7 type  1   force =     0.00000000    0.00000000    0.00000000
     atom    8 type  1   force =     0.00000000    0.00000000    0.00000000
     atom    9 type  1   force =     0.00000000    0.00000000    0.00000000
     atom   10 type  1   force =     0.00000000    0.00000000    0.00000000
     atom   11 type  1   force =     0.00000000    0.00000000    0.00000000
     atom   12 type  1   force =     0.00000000    0.00000000    0.00000000
     atom   13 type  1   force =     0.00000000    0.00000000    0.00000000
     atom   14 type  1   force =     0.00000000    0.00000000    0.00000000
     atom   15 type  1   force =     0.00000000    0.00000000    0.00000000
     atom   16 type  1   force =     0.00000000    0.00000000    0.00000000
     atom   17 type  1   force =     0.00000000    0.00000000    0.00000000
     atom   18 type  1   force =     0.00000000    0.00000000    0.00000000
     atom   19 type  1   force =     0.00000000    0.00000000    0.00000000
     atom   20 type  1   force =     0.00000000    0.00000000    0.00000000
     atom   21 type  1   force =     0.00000000    0.00000000    0.00000000
     atom   22 type  1   force =     0.00000000    0.00000000    0.00000000
     atom   23 type  1   force =     0.00000000    0.00000000    0.00000000
     atom   24 type  1   force =     0.00000000    0.00000000    0.00000000
     atom   25 type  1   force =     0.00000000    0.00000000    0.00000000
     atom   26 type  1   force =     0.00000000    0.00000000    0.00000000
     atom   27 type  1   force =     0.00000000    0.00000000    0.00000000
     atom   28 type  1   force =     0.00000000    0.00000000    0.00000000
     atom   29 type  1   force =     0.00000000    0.00000000    0.00000000
     atom   30 type  1   force =     0.00000000    0.00000000    0.00000000
     atom   31 type  1   force =     0.00000000    0.00000000    0.00000000
     atom   32 type  1   force =     0.00000000    0.00000000    0.00000000
     atom   33 type  1   force =     0.00000000    0.00000000    0.00000000
     atom   34 type  1   force =     0.00000000    0.00000000    0.00000000
     atom   35 type  1   force =     0.00000000    0.00000000    0.00000000
     atom   36 type  1   force =     0.00000000    0.00000000    0.00000000
     atom   37 type  1   force =     0.00000000    0.00000000    0.00000000
     atom   38 type  1   force =     0.00000000    0.00000000    0.00000000
     atom   39 type  1   force =     0.00000000    0.00000000    0.00000000
     atom   40 type  1   force =     0.00000000    0.00000000    0.00000000
     atom   41 type  1   force =     0.00000000    0.00000000    0.00000000
     atom   42 type  1   force =     0.00000000    0.00000000    0.00000000
     atom   43 type  1   force =     0.00000000    0.00000000    0.00000000
     atom   44 type  1   force =     0.00000000    0.00000000    0.00000000
     The Hubbard contrib.    to forces
     atom    1 type  1   force =     0.00000000    0.00000000    0.00000000
     atom    2 type  1   force =     0.00000000    0.00000000    0.00000000
     atom    3 type  1   force =     0.00000000    0.00000000    0.00000000
     atom    4 type  1   force =     0.00000000    0.00000000    0.00000000
     atom    5 type  1   force =     0.00000000    0.00000000    0.00000000
     atom    6 type  1   force =     0.00000000    0.00000000    0.00000000
     atom    7 type  1   force =     0.00000000    0.00000000    0.00000000
     atom    8 type  1   force =     0.00000000    0.00000000    0.00000000
     atom    9 type  1   force =     0.00000000    0.00000000    0.00000000
     atom   10 type  1   force =     0.00000000    0.00000000    0.00000000
     atom   11 type  1   force =     0.00000000    0.00000000    0.00000000
     atom   12 type  1   force =     0.00000000    0.00000000    0.00000000
     atom   13 type  1   force =     0.00000000    0.00000000    0.00000000
     atom   14 type  1   force =     0.00000000    0.00000000    0.00000000
     atom   15 type  1   force =     0.00000000    0.00000000    0.00000000
     atom   16 type  1   force =     0.00000000    0.00000000    0.00000000
     atom   17 type  1   force =     0.00000000    0.00000000    0.00000000
     atom   18 type  1   force =     0.00000000    0.00000000    0.00000000
     atom   19 type  1   force =     0.00000000    0.00000000    0.00000000
     atom   20 type  1   force =     0.00000000    0.00000000    0.00000000
     atom   21 type  1   force =     0.00000000    0.00000000    0.00000000
     atom   22 type  1   force =     0.00000000    0.00000000    0.00000000
     atom   23 type  1   force =     0.00000000    0.00000000    0.00000000
     atom   24 type  1   force =     0.00000000    0.00000000    0.00000000
     atom   25 type  1   force =     0.00000000    0.00000000    0.00000000
     atom   26 type  1   force =     0.00000000    0.00000000    0.00000000
     atom   27 type  1   force =     0.00000000    0.00000000    0.00000000
     atom   28 type  1   force =     0.00000000    0.00000000    0.00000000
     atom   29 type  1   force =     0.00000000    0.00000000    0.00000000
     atom   30 type  1   force =     0.00000000    0.00000000    0.00000000
     atom   31 type  1   force =     0.00000000    0.00000000    0.00000000
     atom   32 type  1   force =     0.00000000    0.00000000    0.00000000
     atom   33 type  1   force =     0.00000000    0.00000000    0.00000000
     atom   34 type  1   force =     0.00000000    0.00000000    0.00000000
     atom   35 type  1   force =     0.00000000    0.00000000    0.00000000
     atom   36 type  1   force =     0.00000000    0.00000000    0.00000000
     atom   37 type  1   force =     0.00000000    0.00000000    0.00000000
     atom   38 type  1   force =     0.00000000    0.00000000    0.00000000
     atom   39 type  1   force =     0.00000000    0.00000000    0.00000000
     atom   40 type  1   force =     0.00000000    0.00000000    0.00000000
     atom   41 type  1   force =     0.00000000    0.00000000    0.00000000
     atom   42 type  1   force =     0.00000000    0.00000000    0.00000000
     atom   43 type  1   force =     0.00000000    0.00000000    0.00000000
     atom   44 type  1   force =     0.00000000    0.00000000    0.00000000
     The SCF correction term to forces
     atom    1 type  1   force =     0.00000000   -0.00000000    0.00000002
     atom    2 type  1   force =    -0.00000000    0.00000001   -0.00000003
     atom    3 type  1   force =    -0.00000000   -0.00000000   -0.00000002
     atom    4 type  1   force =    -0.00000000    0.00000000   -0.00000003
     atom    5 type  1   force =    -0.00000000   -0.00000001   -0.00000001
     atom    6 type  1   force =     0.00000000    0.00000001    0.00000001
     atom    7 type  1   force =    -0.00000000    0.00000001    0.00000002
     atom    8 type  1   force =    -0.00000000   -0.00000001   -0.00000000
     atom    9 type  1   force =    -0.00000000    0.00000001    0.00000001
     atom   10 type  1   force =    -0.00000000   -0.00000001    0.00000003
     atom   11 type  1   force =    -0.00000000   -0.00000001    0.00000002
     atom   12 type  1   force =     0.00000000   -0.00000000    0.00000001
     atom   13 type  1   force =     0.00000000    0.00000001    0.00000000
     atom   14 type  1   force =     0.00000000   -0.00000001   -0.00000000
     atom   15 type  1   force =     0.00000000    0.00000001    0.00000000
     atom   16 type  1   force =    -0.00000000   -0.00000001    0.00000002
     atom   17 type  1   force =    -0.00000000   -0.00000000   -0.00000000
     atom   18 type  1   force =    -0.00000000    0.00000001    0.00000001
     atom   19 type  1   force =     0.00000000   -0.00000000    0.00000003
     atom   20 type  1   force =     0.00000000    0.00000000    0.00000003
     atom   21 type  1   force =    -0.00000000    0.00000001    0.00000003
     atom   22 type  1   force =    -0.00000000   -0.00000000    0.00000003
     atom   23 type  1   force =     0.00000000   -0.00000000    0.00000002
     atom   24 type  1   force =     0.00000000    0.00000001   -0.00000003
     atom   25 type  1   force =     0.00000000   -0.00000000   -0.00000002
     atom   26 type  1   force =     0.00000000    0.00000000   -0.00000003
     atom   27 type  1   force =    -0.00000000   -0.00000001   -0.00000001
     atom   28 type  1   force =    -0.00000000    0.00000001    0.00000001
     atom   29 type  1   force =     0.00000000    0.00000001    0.00000002
     atom   30 type  1   force =     0.00000000   -0.00000001   -0.00000000
     atom   31 type  1   force =     0.00000000    0.00000001    0.00000001
     atom   32 type  1   force =     0.00000000   -0.00000001    0.00000003
     atom   33 type  1   force =    -0.00000000   -0.00000000    0.00000002
     atom   34 type  1   force =    -0.00000000   -0.00000000    0.00000001
     atom   35 type  1   force =     0.00000000    0.00000001   -0.00000000
     atom   36 type  1   force =     0.00000000   -0.00000001   -0.00000000
     atom   37 type  1   force =    -0.00000000    0.00000001    0.00000000
     atom   38 type  1   force =     0.00000000   -0.00000001    0.00000002
     atom   39 type  1   force =     0.00000000   -0.00000000   -0.00000000
     atom   40 type  1   force =     0.00000000    0.00000001    0.00000001
     atom   41 type  1   force =    -0.00000000   -0.00000000    0.00000002
     atom   42 type  1   force =     0.00000000    0.00000000    0.00000003
     atom   43 type  1   force =     0.00000000    0.00000001    0.00000003
     atom   44 type  1   force =     0.00000000   -0.00000000    0.00000003

     Total force =     0.002740     Total SCF correction =     0.000000

     Writing all to output data dir ./Li/Lithium.save/ :
     XML data file
     init_run     :     19.05s CPU     27.32s WALL (       1 calls)
     electrons    :   2103.63s CPU   2668.02s WALL (       1 calls)
     forces       :     20.72s CPU     22.26s WALL (       1 calls)

     Called by init_run:
     wfcinit      :      2.80s CPU      3.87s WALL (       1 calls)
     wfcinit:wfcr :      2.58s CPU      3.63s WALL (      14 calls)
     potinit      :      0.95s CPU      1.00s WALL (       1 calls)
     hinit0       :      3.90s CPU      4.35s WALL (       1 calls)

     Called by electrons:
     c_bands      :   1460.34s CPU   1886.54s WALL (      79 calls)
     sum_band     :    102.36s CPU    142.74s WALL (      79 calls)
     v_of_rho     :      5.24s CPU      6.27s WALL (      80 calls)
     v_h          :      0.50s CPU      0.58s WALL (      80 calls)
     v_xc         :      4.74s CPU      5.68s WALL (      80 calls)
     newd         :      2.99s CPU      3.76s WALL (      80 calls)
     PAW_pot      :      0.61s CPU      0.92s WALL (      80 calls)
     mix_rho      :     15.23s CPU     19.25s WALL (      79 calls)

     Called by c_bands:
     init_us_2    :     20.59s CPU     20.90s WALL (    2240 calls)
     cegterg      :   1365.73s CPU   1666.24s WALL (    1241 calls)

     Called by sum_band:
     sum_band:wei :      0.15s CPU      0.18s WALL (      79 calls)
     sum_band:loo :     98.18s CPU    137.98s WALL (      79 calls)
     sum_band:buf :      1.71s CPU      1.86s WALL (    1106 calls)
     sum_band:ini :     10.36s CPU     10.42s WALL (    1106 calls)
     sum_band:cal :     17.82s CPU     19.73s WALL (    1106 calls)
     sum_band:bec :      0.23s CPU      0.27s WALL (    1106 calls)
     addusdens    :      2.82s CPU      2.92s WALL (      79 calls)
                                        0.00s GPU  (      79 calls)
     addusd:skk   :      0.75s CPU      0.76s WALL (      79 calls)
                                        0.00s GPU  (      79 calls)

     Called by *egterg:
     cdiaghg      :    456.44s CPU    470.59s WALL (   12487 calls)
     cegterg:over :     76.95s CPU     83.79s WALL (   11310 calls)
     cegterg:upda :     57.09s CPU     58.35s WALL (   11310 calls)
     cegterg:last :     19.88s CPU     20.03s WALL (    1421 calls)
     h_psi        :    658.86s CPU    933.66s WALL (   12565 calls)
     s_psi        :     68.23s CPU     68.70s WALL (   12565 calls)
     g_psi        :      0.86s CPU      0.92s WALL (   11310 calls)

     Called by h_psi:
     h_psi:calbec :     85.66s CPU     96.94s WALL (   12565 calls)
     vloc_psi     :    500.26s CPU    762.22s WALL (   12565 calls)
                                        0.00s GPU  (   12565 calls)
     add_vuspsi   :     70.26s CPU     71.52s WALL (   12565 calls)

     General routines
     calbec       :    104.22s CPU    117.52s WALL (   13727 calls)
     fft          :      5.26s CPU      6.51s WALL (    1040 calls)
     ffts         :     11.00s CPU     13.85s WALL (    9753 calls)
     fftw         :    547.48s CPU    837.35s WALL (  911628 calls)
     interpolate  :      1.29s CPU      1.40s WALL (      80 calls)

     Parallel routines

     PAW routines
     PAW_pot      :      0.61s CPU      0.92s WALL (      80 calls)
     PAW_symme    :      0.03s CPU      0.03s WALL (     159 calls)

     Environ routines

     PWSCF        :  35m43.52s CPU  45m17.90s WALL


   This run was terminated on:  22:23:21   5Jan2025            

=------------------------------------------------------------------------------=
   JOB DONE.
=------------------------------------------------------------------------------=
