
     Program PWSCF v.7.4 starts on 28Dec2024 at 11:26:48 

     This program is part of the open-source Quantum ESPRESSO suite
     for quantum simulation of materials; please cite
         "P. Giannozzi et al., J. Phys.:Condens. Matter 21 395502 (2009);
         "P. Giannozzi et al., J. Phys.:Condens. Matter 29 465901 (2017);
         "P. Giannozzi et al., J. Chem. Phys. 152 154105 (2020);
          URL http://www.quantum-espresso.org", 
     in publications or presentations arising from this work. More details at
     http://www.quantum-espresso.org/quote

     Parallel version (MPI & OpenMP), running on     192 processor cores
     Number of MPI processes:               192
     Threads/MPI process:                     1

     MPI processes distributed on     1 nodes
     653922 MiB available memory on the printing compute node when the environment starts
 
     Reading input from espresso.pwi
Warning: card &CELL ignored
Warning: card    PRESS_CONV_THR   = 0.1 ignored
Warning: card    CELL_DOFREE      = 'ALL' ignored
Warning: card / ignored
Warning: card &FCP ignored
Warning: card / ignored
Warning: card &RISM ignored
Warning: card / ignored

     Current dimensions of program PWSCF are:
     Max number of different atomic species (ntypx) = 10
     Max number of k-points (npk) =  40000
     Max angular momentum in pseudopotentials (lmaxx) =  4

     IMPORTANT: XC functional enforced from input :
     Exchange-correlation= PBE
                           (   1   4   3   4   0   0   0)
     Any further DFT definition will be discarded
     Please, verify this is what you really want

 
     Reading input from environ.in:
     * using ionic solvent mode
     * setting boundary derivatives method to SSCS default
     * setting electrolyte-boundary derivatives method to SSCS default

Environ Warning (1001): card EOF ignored

     
 
     R & G space division:  proc/nbgrp/npool/nimage =     192
     Subspace diagonalization in iterative solution of the eigenvalue problem:
     a serial algorithm will be used

 
     Parallelization info
     --------------------
     sticks:   dense  smooth     PW     G-vecs:    dense   smooth      PW
     Min          65      26      7                41139    10396    1401
     Max          66      27      8                41208    10441    1471
     Sum       12597    5037   1349              7904519  1999739  278317
 
     Using Slab Decomposition
 


     bravais-lattice index     =            8
     lattice parameter (alat)  =      18.3607  a.u.
     unit-cell volume          =   20684.8751 (a.u.)^3
     number of atoms/cell      =           44
     number of atomic types    =            1
     number of electrons       =       132.00
     number of Kohn-Sham states=           99
     kinetic-energy cutoff     =      80.0000  Ry
     charge density cutoff     =     800.0000  Ry
     scf convergence threshold =      1.0E-14
     mixing beta               =       0.2000
     number of iterations used =            8  local-TF  mixing
     Exchange-correlation= PBE
                           (   1   4   3   4   0   0   0)

     ================================================================================
 
                                  Environ Setup Summary

     ================================================================================
 
     Please cite

          O. Andreussi, I. Dabo and N. Marzari, J. Chem. Phys. 136, 064102 (2012)
          F. Nattino, M. Truscott, N. Marzari, and O. Andreussi, J. Chem. Phys. 150, 041722 (2019)

     in publications or presentations arising from this work.

     ================================================================================
 
     Parameters
     ==========

     compensation onset threshold      =               0.1000E+00
     static permittivity               =                    89.90
     surface tension in input (dyn/cm) =                    37.30
     surface tension in internal units =               0.4792E-04

     Solvent Boundary
     ================

     solvent mode                      =                    ionic
     derivatives method                =                   lowmem
     electrolyte derivatives method    =                   lowmem
     numerical core for derivatives    =                      fft
     switching function adopted        =                     SCCS
     density limit for vacuum region   =               0.5000E-02
     density limit for bulk solvent    =               0.1000E-03
     soft-sphere radius mode           =                    bondi
     soft-sphere softness              =                     0.50
     alpha                             =                     1.32

     Electrostatic Setup
     ===================

     electrostatic problem to solve    =                    modpb
     numerical solver adopted          =                   newton
     type of auxiliary density adopted =                     none
     numerical core for poisson        =                      fft
     adopting a nested solver scheme
     inner solver                      =                       cg
     inner core                        =                      fft
     type of pbc corrections           =                parabolic
     numerical core for corrections    =                      1da

     ================================================================================
 

     celldm(1)=  18.360747  celldm(2)=   0.586302  celldm(3)=   5.699811
     celldm(4)=   0.000000  celldm(5)=   0.000000  celldm(6)=   0.000000

     crystal axes: (cart. coord. in units of alat)
               a(1) = (   1.000000   0.000000   0.000000 )  
               a(2) = (   0.000000   0.586302   0.000000 )  
               a(3) = (   0.000000   0.000000   5.699811 )  

     reciprocal axes: (cart. coord. in units 2 pi/alat)
               b(1) = (  1.000000  0.000000  0.000000 )  
               b(2) = (  0.000000  1.705606  0.000000 )  
               b(3) = (  0.000000  0.000000  0.175444 )  


     PseudoPot. # 1 for Li read from file:
     /home/ba3g18/Repos/Pseudopotentials/pslibrary.1.0.0/pbe/PSEUDOPOTENTIALS/Li.pbe-sl-kjpaw_psl.1.0.0.UPF
     MD5 check sum: 3f4d2cafebb47c6c3aa8ed472e6f074d
     Pseudo is Projector augmented-wave, Zval =  3.0
     Generated using 'atomic' code by A. Dal Corso  v.7.4
     Shape of augmentation charge: PSQ
     Using radial grid of 1017 points,  4 beta functions with: 
                l(1) =   0
                l(2) =   0
                l(3) =   1
                l(4) =   1
     Q(r) pseudized with 0 coefficients 


     atomic species   valence    mass     pseudopotential
     Li                3.00     6.94000     Li( 1.00)

      2 Sym. Ops. (no inversion) found


                                    s                        frac. trans.

      isym =  1     identity                                     

 cryst.   s( 1) = (     1          0          0      )
                  (     0          1          0      )
                  (     0          0          1      )

 cart.    s( 1) = (  1.0000000  0.0000000  0.0000000 )
                  (  0.0000000  1.0000000  0.0000000 )
                  (  0.0000000  0.0000000  1.0000000 )


      isym =  2     inv. 180 deg rotation - cart. axis [1,0,0]   

 cryst.   s( 2) = (    -1          0          0      )
                  (     0          1          0      )
                  (     0          0          1      )

 cart.    s( 2) = ( -1.0000000  0.0000000  0.0000000 )
                  (  0.0000000  1.0000000  0.0000000 )
                  (  0.0000000  0.0000000  1.0000000 )


     point group C_s (m)    
     there are  2 classes
     the character table:

       E     s    
A'     1.00  1.00
A''    1.00 -1.00

     the symmetry operations in each class and the name of the first element:

     E        1
          identity                                               
     s        2
          inv. 180 deg rotation - cart. axis [1,0,0]             

   Cartesian axes

     site n.     atom                  positions (alat units)
         1        Li     tau(   1) = (   0.5000000   0.5703294   3.6413700  )
         2        Li     tau(   2) = (   0.2499975   0.4423368   2.0584414  )
         3        Li     tau(   3) = (   0.2500007   0.1048392   2.2424142  )
         4        Li     tau(   4) = (   0.5000000   0.2283375   2.1199825  )
         5        Li     tau(   5) = (  -0.0000000   0.5116282   2.2601250  )
         6        Li     tau(   6) = (   0.5000000   0.1961786   2.4283566  )
         7        Li     tau(   7) = (   0.2500011   0.3226499   2.6596059  )
         8        Li     tau(   8) = (   0.2499991   0.5870752   2.8318302  )
         9        Li     tau(   9) = (   0.2500009   0.3764657   2.3563007  )
        10        Li     tau(  10) = (   0.2499997   0.0480561   2.5341134  )
        11        Li     tau(  11) = (  -0.0000000   0.4707777   2.5665615  )
        12        Li     tau(  12) = (   0.5000000   0.1510513   2.7349460  )
        13        Li     tau(  13) = (   0.5000000   0.4256304   2.8679686  )
        14        Li     tau(  14) = (   0.5000000   0.1037437   3.0402035  )
        15        Li     tau(  15) = (   0.2500028   0.5419246   3.1332527  )
        16        Li     tau(  16) = (   0.2499958   0.2302215   3.2714512  )
        17        Li     tau(  17) = (   0.2500003   0.2753476   2.9648610  )
        18        Li     tau(  18) = (  -0.0000000   0.3783381   3.1657125  )
        19        Li     tau(  19) = (   0.5000000   0.0499255   3.3435108  )
        20        Li     tau(  20) = (   0.5000000   0.3215779   3.4573682  )
        21        Li     tau(  21) = (   0.2499960   0.5010742   3.4396868  )
        22        Li     tau(  22) = (   0.2500338   0.1980636   3.5798231  )
        23        Li     tau(  23) = (   1.0000000   0.5704067   3.6413616  )
        24        Li     tau(  24) = (   0.7500025   0.4423368   2.0584414  )
        25        Li     tau(  25) = (   0.7499993   0.1048392   2.2424142  )
        26        Li     tau(  26) = (   1.0000000   0.2283348   2.1199839  )
        27        Li     tau(  27) = (   0.5000000   0.5116292   2.2601170  )
        28        Li     tau(  28) = (   1.0000000   0.1961818   2.4283558  )
        29        Li     tau(  29) = (   0.7499989   0.3226499   2.6596059  )
        30        Li     tau(  30) = (   0.7500009   0.5870752   2.8318302  )
        31        Li     tau(  31) = (   0.7499991   0.3764657   2.3563007  )
        32        Li     tau(  32) = (   0.7500003   0.0480561   2.5341134  )
        33        Li     tau(  33) = (   0.5000000   0.4707807   2.5665487  )
        34        Li     tau(  34) = (   1.0000000   0.1510563   2.7349472  )
        35        Li     tau(  35) = (   1.0000000   0.4256258   2.8679867  )
        36        Li     tau(  36) = (   1.0000000   0.1037591   3.0401995  )
        37        Li     tau(  37) = (   0.7499972   0.5419246   3.1332527  )
        38        Li     tau(  38) = (   0.7500042   0.2302215   3.2714512  )
        39        Li     tau(  39) = (   0.7499997   0.2753476   2.9648610  )
        40        Li     tau(  40) = (   0.5000000   0.3783528   3.1656775  )
        41        Li     tau(  41) = (   1.0000000   0.0499472   3.3435035  )
        42        Li     tau(  42) = (   1.0000000   0.3215464   3.4574208  )
        43        Li     tau(  43) = (   0.7500040   0.5010742   3.4396868  )
        44        Li     tau(  44) = (   0.7499662   0.1980636   3.5798231  )

   Crystallographic axes

     site n.     atom                  positions (cryst. coord.)
         1        Li     tau(   1) = (  0.5000000  0.9727570  0.6388580  )
         2        Li     tau(   2) = (  0.2499975  0.7544521  0.3611420  )
         3        Li     tau(   3) = (  0.2500007  0.1788144  0.3934190  )
         4        Li     tau(   4) = (  0.5000000  0.3894538  0.3719391  )
         5        Li     tau(   5) = ( -0.0000000  0.8726359  0.3965263  )
         6        Li     tau(   6) = (  0.5000000  0.3346034  0.4260416  )
         7        Li     tau(   7) = (  0.2500011  0.5503135  0.4666130  )
         8        Li     tau(   8) = (  0.2499991  1.0013188  0.4968288  )
         9        Li     tau(   9) = (  0.2500009  0.6421020  0.4133998  )
        10        Li     tau(  10) = (  0.2499997  0.0819647  0.4445960  )
        11        Li     tau(  11) = ( -0.0000000  0.8029611  0.4502889  )
        12        Li     tau(  12) = (  0.5000000  0.2576340  0.4798310  )
        13        Li     tau(  13) = (  0.5000000  0.7259576  0.5031690  )
        14        Li     tau(  14) = (  0.5000000  0.1769459  0.5333867  )
        15        Li     tau(  15) = (  0.2500028  0.9243096  0.5497116  )
        16        Li     tau(  16) = (  0.2499958  0.3926672  0.5739578  )
        17        Li     tau(  17) = (  0.2500003  0.4696344  0.5201683  )
        18        Li     tau(  18) = ( -0.0000000  0.6452957  0.5554065  )
        19        Li     tau(  19) = (  0.5000000  0.0851532  0.5866002  )
        20        Li     tau(  20) = (  0.5000000  0.5484850  0.6065759  )
        21        Li     tau(  21) = (  0.2499960  0.8546350  0.6034738  )
        22        Li     tau(  22) = (  0.2500338  0.3378184  0.6280599  )
        23        Li     tau(  23) = (  1.0000000  0.9728889  0.6388565  )
        24        Li     tau(  24) = (  0.7500025  0.7544521  0.3611420  )
        25        Li     tau(  25) = (  0.7499993  0.1788144  0.3934190  )
        26        Li     tau(  26) = (  1.0000000  0.3894492  0.3719393  )
        27        Li     tau(  27) = (  0.5000000  0.8726377  0.3965249  )
        28        Li     tau(  28) = (  1.0000000  0.3346087  0.4260414  )
        29        Li     tau(  29) = (  0.7499989  0.5503135  0.4666130  )
        30        Li     tau(  30) = (  0.7500009  1.0013188  0.4968288  )
        31        Li     tau(  31) = (  0.7499991  0.6421020  0.4133998  )
        32        Li     tau(  32) = (  0.7500003  0.0819647  0.4445960  )
        33        Li     tau(  33) = (  0.5000000  0.8029662  0.4502866  )
        34        Li     tau(  34) = (  1.0000000  0.2576425  0.4798312  )
        35        Li     tau(  35) = (  1.0000000  0.7259497  0.5031722  )
        36        Li     tau(  36) = (  1.0000000  0.1769722  0.5333860  )
        37        Li     tau(  37) = (  0.7499972  0.9243096  0.5497116  )
        38        Li     tau(  38) = (  0.7500042  0.3926672  0.5739578  )
        39        Li     tau(  39) = (  0.7499997  0.4696344  0.5201683  )
        40        Li     tau(  40) = (  0.5000000  0.6453206  0.5554004  )
        41        Li     tau(  41) = (  1.0000000  0.0851903  0.5865990  )
        42        Li     tau(  42) = (  1.0000000  0.5484314  0.6065851  )
        43        Li     tau(  43) = (  0.7500040  0.8546350  0.6034738  )
        44        Li     tau(  44) = (  0.7499662  0.3378184  0.6280599  )

     number of k points=    28  Marzari-Vanderbilt smearing, width (Ry)=  0.0100
                       cart. coord. in units 2pi/alat
        k(    1) = (   0.0000000   0.0000000   0.0000000), wk =   0.0238095
        k(    2) = (   0.0000000   0.1421338   0.0000000), wk =   0.0476190
        k(    3) = (   0.0000000   0.2842676   0.0000000), wk =   0.0476190
        k(    4) = (   0.0000000   0.4264014   0.0000000), wk =   0.0476190
        k(    5) = (   0.0000000   0.5685352   0.0000000), wk =   0.0476190
        k(    6) = (   0.0000000   0.7106690   0.0000000), wk =   0.0476190
        k(    7) = (   0.0000000  -0.8528028   0.0000000), wk =   0.0238095
        k(    8) = (   0.1428571   0.0000000   0.0000000), wk =   0.0476190
        k(    9) = (   0.1428571   0.1421338   0.0000000), wk =   0.0952381
        k(   10) = (   0.1428571   0.2842676   0.0000000), wk =   0.0952381
        k(   11) = (   0.1428571   0.4264014   0.0000000), wk =   0.0952381
        k(   12) = (   0.1428571   0.5685352   0.0000000), wk =   0.0952381
        k(   13) = (   0.1428571   0.7106690   0.0000000), wk =   0.0952381
        k(   14) = (   0.1428571  -0.8528028   0.0000000), wk =   0.0476190
        k(   15) = (   0.2857143   0.0000000   0.0000000), wk =   0.0476190
        k(   16) = (   0.2857143   0.1421338   0.0000000), wk =   0.0952381
        k(   17) = (   0.2857143   0.2842676   0.0000000), wk =   0.0952381
        k(   18) = (   0.2857143   0.4264014   0.0000000), wk =   0.0952381
        k(   19) = (   0.2857143   0.5685352   0.0000000), wk =   0.0952381
        k(   20) = (   0.2857143   0.7106690   0.0000000), wk =   0.0952381
        k(   21) = (   0.2857143  -0.8528028   0.0000000), wk =   0.0476190
        k(   22) = (   0.4285714   0.0000000   0.0000000), wk =   0.0476190
        k(   23) = (   0.4285714   0.1421338   0.0000000), wk =   0.0952381
        k(   24) = (   0.4285714   0.2842676   0.0000000), wk =   0.0952381
        k(   25) = (   0.4285714   0.4264014   0.0000000), wk =   0.0952381
        k(   26) = (   0.4285714   0.5685352   0.0000000), wk =   0.0952381
        k(   27) = (   0.4285714   0.7106690   0.0000000), wk =   0.0952381
        k(   28) = (   0.4285714  -0.8528028   0.0000000), wk =   0.0476190

                       cryst. coord.
        k(    1) = (   0.0000000   0.0000000   0.0000000), wk =   0.0238095
        k(    2) = (   0.0000000   0.0833333   0.0000000), wk =   0.0476190
        k(    3) = (   0.0000000   0.1666667   0.0000000), wk =   0.0476190
        k(    4) = (   0.0000000   0.2500000   0.0000000), wk =   0.0476190
        k(    5) = (   0.0000000   0.3333333   0.0000000), wk =   0.0476190
        k(    6) = (   0.0000000   0.4166667   0.0000000), wk =   0.0476190
        k(    7) = (   0.0000000  -0.5000000   0.0000000), wk =   0.0238095
        k(    8) = (   0.1428571   0.0000000   0.0000000), wk =   0.0476190
        k(    9) = (   0.1428571   0.0833333   0.0000000), wk =   0.0952381
        k(   10) = (   0.1428571   0.1666667   0.0000000), wk =   0.0952381
        k(   11) = (   0.1428571   0.2500000   0.0000000), wk =   0.0952381
        k(   12) = (   0.1428571   0.3333333   0.0000000), wk =   0.0952381
        k(   13) = (   0.1428571   0.4166667   0.0000000), wk =   0.0952381
        k(   14) = (   0.1428571  -0.5000000   0.0000000), wk =   0.0476190
        k(   15) = (   0.2857143   0.0000000   0.0000000), wk =   0.0476190
        k(   16) = (   0.2857143   0.0833333   0.0000000), wk =   0.0952381
        k(   17) = (   0.2857143   0.1666667   0.0000000), wk =   0.0952381
        k(   18) = (   0.2857143   0.2500000   0.0000000), wk =   0.0952381
        k(   19) = (   0.2857143   0.3333333   0.0000000), wk =   0.0952381
        k(   20) = (   0.2857143   0.4166667   0.0000000), wk =   0.0952381
        k(   21) = (   0.2857143  -0.5000000   0.0000000), wk =   0.0476190
        k(   22) = (   0.4285714   0.0000000   0.0000000), wk =   0.0476190
        k(   23) = (   0.4285714   0.0833333   0.0000000), wk =   0.0952381
        k(   24) = (   0.4285714   0.1666667   0.0000000), wk =   0.0952381
        k(   25) = (   0.4285714   0.2500000   0.0000000), wk =   0.0952381
        k(   26) = (   0.4285714   0.3333333   0.0000000), wk =   0.0952381
        k(   27) = (   0.4285714   0.4166667   0.0000000), wk =   0.0952381
        k(   28) = (   0.4285714  -0.5000000   0.0000000), wk =   0.0476190

     Dense  grid:  7904519 G-vectors     FFT dimensions: ( 180, 100, 960)

     Smooth grid:  1999739 G-vectors     FFT dimensions: ( 108,  64, 600)

     Dynamical RAM for                 wfc:       1.97 MB

     Dynamical RAM for     wfc (w. buffer):      56.99 MB

     Dynamical RAM for           str. fact:       0.63 MB

     Dynamical RAM for           local pot:       0.00 MB

     Dynamical RAM for          nlocal pot:       6.99 MB

     Dynamical RAM for                qrad:       0.65 MB

     Dynamical RAM for          rho,v,vnew:       3.94 MB

     Dynamical RAM for               rhoin:       1.31 MB

     Dynamical RAM for            rho*nmix:      10.05 MB

     Dynamical RAM for           G-vectors:       2.43 MB

     Dynamical RAM for          h,s,v(r/c):       1.79 MB

     Dynamical RAM for          <psi|beta>:       0.53 MB

     Dynamical RAM for                 psi:       3.93 MB

     Dynamical RAM for                hpsi:       3.93 MB

     Dynamical RAM for                spsi:       3.93 MB

     Dynamical RAM for      wfcinit/wfcrot:       4.16 MB

     Dynamical RAM for           addusdens:      54.65 MB

     Dynamical RAM for          addusforce:     109.02 MB

     Estimated static dynamical RAM per process >      77.64 MB

     Estimated max dynamical RAM per process >     196.71 MB

     Estimated total dynamical RAM >      36.88 GB

     Initial potential from superposition of free atoms

     starting charge     131.7972, renormalised to     132.0000

     negative rho (up, down):  3.397E-03 0.000E+00
     Starting wfcs are random
     Checking if some PAW data can be deallocated... 

     total cpu time spent up to now is       12.9 secs

     Self-consistent Calculation

     iteration #  1     ecut=    80.00 Ry     beta= 0.20
     Davidson diagonalization with overlap

---- Real-time Memory Report at c_bands before calling an iterative solver
           720 MiB given to the printing process from OS
             0 MiB allocation reported by mallinfo(arena+hblkhd)
        618943 MiB available memory on the node where the printing process lives
------------------
     ethr =  1.00E-02,  avg # of iterations = 11.7

     negative rho (up, down):  1.123E-04 0.000E+00

     total cpu time spent up to now is       60.7 secs

     total energy              =    -658.92770346 Ry
     estimated scf accuracy    <       7.16828046 Ry
     electrostatic embedding   =       0.00000000 Ry
     cavitation energy         =       0.02447505 Ry
     electrolyte free energy   =       0.00890302 Ry
     correction to one-el term =       0.00000000 Ry

     iteration #  2     ecut=    80.00 Ry     beta= 0.20
     Davidson diagonalization with overlap

---- Real-time Memory Report at c_bands before calling an iterative solver
           748 MiB given to the printing process from OS
             0 MiB allocation reported by mallinfo(arena+hblkhd)
        614761 MiB available memory on the node where the printing process lives
------------------
     ethr =  5.43E-03,  avg # of iterations =  4.0

     negative rho (up, down):  2.736E-06 0.000E+00

     total cpu time spent up to now is       78.9 secs

     total energy              =    -660.22091083 Ry
     estimated scf accuracy    <       2.02784236 Ry
     electrostatic embedding   =       0.00000000 Ry
     cavitation energy         =       0.02447505 Ry
     electrolyte free energy   =       0.00890302 Ry
     correction to one-el term =       0.00000000 Ry

     iteration #  3     ecut=    80.00 Ry     beta= 0.20
     Davidson diagonalization with overlap

---- Real-time Memory Report at c_bands before calling an iterative solver
           832 MiB given to the printing process from OS
             0 MiB allocation reported by mallinfo(arena+hblkhd)
        613628 MiB available memory on the node where the printing process lives
------------------
     ethr =  1.54E-03,  avg # of iterations =  5.5

     negative rho (up, down):  2.861E-07 0.000E+00

     total cpu time spent up to now is      105.3 secs

     total energy              =    -661.60754203 Ry
     estimated scf accuracy    <       0.39093618 Ry
     electrostatic embedding   =       0.00000000 Ry
     cavitation energy         =       0.02447505 Ry
     electrolyte free energy   =       0.00890302 Ry
     correction to one-el term =       0.00000000 Ry

     iteration #  4     ecut=    80.00 Ry     beta= 0.20
     Davidson diagonalization with overlap

---- Real-time Memory Report at c_bands before calling an iterative solver
           937 MiB given to the printing process from OS
             0 MiB allocation reported by mallinfo(arena+hblkhd)
        612659 MiB available memory on the node where the printing process lives
------------------
     c_bands:  1 eigenvalues not converged
     ethr =  2.96E-04,  avg # of iterations =  9.3

     negative rho (up, down):  2.011E-07 0.000E+00

     total cpu time spent up to now is      130.2 secs

     total energy              =    -661.67172086 Ry
     estimated scf accuracy    <       0.31325828 Ry
     electrostatic embedding   =       0.00000000 Ry
     cavitation energy         =       0.02447505 Ry
     electrolyte free energy   =       0.00890302 Ry
     correction to one-el term =       0.00000000 Ry

     iteration #  5     ecut=    80.00 Ry     beta= 0.20
     Davidson diagonalization with overlap

---- Real-time Memory Report at c_bands before calling an iterative solver
          1012 MiB given to the printing process from OS
             0 MiB allocation reported by mallinfo(arena+hblkhd)
        612324 MiB available memory on the node where the printing process lives
------------------
     ethr =  2.37E-04,  avg # of iterations =  2.4

     negative rho (up, down):  1.474E-07 0.000E+00

     total cpu time spent up to now is      144.3 secs

     total energy              =    -661.66340240 Ry
     estimated scf accuracy    <       0.13703911 Ry
     electrostatic embedding   =       0.00000000 Ry
     cavitation energy         =       0.02447505 Ry
     electrolyte free energy   =       0.00890302 Ry
     correction to one-el term =       0.00000000 Ry

     iteration #  6     ecut=    80.00 Ry     beta= 0.20
     Davidson diagonalization with overlap

---- Real-time Memory Report at c_bands before calling an iterative solver
          1062 MiB given to the printing process from OS
             0 MiB allocation reported by mallinfo(arena+hblkhd)
        612116 MiB available memory on the node where the printing process lives
------------------
     ethr =  1.04E-04,  avg # of iterations =  7.1

     negative rho (up, down):  1.217E-08 0.000E+00

     add environment contribution to local potential

     total cpu time spent up to now is      165.0 secs

     total energy              =    -661.65420040 Ry
     estimated scf accuracy    <       0.08083627 Ry
     electrostatic embedding   =       0.00000000 Ry
     cavitation energy         =       0.02447505 Ry
     electrolyte free energy   =       0.00890302 Ry
     correction to one-el term =       0.00000000 Ry

     iteration #  7     ecut=    80.00 Ry     beta= 0.20
     Davidson diagonalization with overlap

---- Real-time Memory Report at c_bands before calling an iterative solver
          1111 MiB given to the printing process from OS
             0 MiB allocation reported by mallinfo(arena+hblkhd)
        612313 MiB available memory on the node where the printing process lives
------------------
     c_bands:  3 eigenvalues not converged
     c_bands:  4 eigenvalues not converged
     c_bands:  5 eigenvalues not converged
     c_bands:  3 eigenvalues not converged
     c_bands:  2 eigenvalues not converged
     c_bands:  4 eigenvalues not converged
     c_bands:  5 eigenvalues not converged
     c_bands:  4 eigenvalues not converged
     c_bands:  2 eigenvalues not converged
     c_bands:  4 eigenvalues not converged
     c_bands:  1 eigenvalues not converged
     c_bands:  3 eigenvalues not converged
     c_bands:  4 eigenvalues not converged
     c_bands:  3 eigenvalues not converged
     c_bands:  3 eigenvalues not converged
     c_bands:  3 eigenvalues not converged
     c_bands:  3 eigenvalues not converged
     c_bands:  1 eigenvalues not converged
     c_bands:  1 eigenvalues not converged
     c_bands:  3 eigenvalues not converged
     c_bands:  3 eigenvalues not converged
     c_bands:  1 eigenvalues not converged
     ethr =  6.12E-05,  avg # of iterations = 19.8

     add environment contribution to local potential

     total cpu time spent up to now is      205.2 secs

     total energy              =    -661.66237241 Ry
     estimated scf accuracy    <       0.04799246 Ry
     electrostatic embedding   =      -0.05836575 Ry
     cavitation energy         =       0.02447505 Ry
     electrolyte free energy   =      -0.00071202 Ry
     correction to one-el term =      -6.83730748 Ry

     iteration #  8     ecut=    80.00 Ry     beta= 0.20
     Davidson diagonalization with overlap

---- Real-time Memory Report at c_bands before calling an iterative solver
          1170 MiB given to the printing process from OS
             0 MiB allocation reported by mallinfo(arena+hblkhd)
        610884 MiB available memory on the node where the printing process lives
------------------
     ethr =  3.64E-05,  avg # of iterations =  4.8

     negative rho (up, down):  2.567E-08 0.000E+00

     add environment contribution to local potential

     total cpu time spent up to now is      223.5 secs

     total energy              =    -661.67179869 Ry
     estimated scf accuracy    <       0.03712882 Ry
     electrostatic embedding   =      -0.05721902 Ry
     cavitation energy         =       0.02447505 Ry
     electrolyte free energy   =      -0.00071646 Ry
     correction to one-el term =      -6.40452278 Ry

     iteration #  9     ecut=    80.00 Ry     beta= 0.20
     Davidson diagonalization with overlap

---- Real-time Memory Report at c_bands before calling an iterative solver
          1213 MiB given to the printing process from OS
             0 MiB allocation reported by mallinfo(arena+hblkhd)
        610757 MiB available memory on the node where the printing process lives
------------------
     ethr =  2.81E-05,  avg # of iterations =  1.1

     add environment contribution to local potential

     total cpu time spent up to now is      239.4 secs

     total energy              =    -661.67142556 Ry
     estimated scf accuracy    <       0.07450072 Ry
     electrostatic embedding   =      -0.05657782 Ry
     cavitation energy         =       0.02447505 Ry
     electrolyte free energy   =      -0.00075880 Ry
     correction to one-el term =      -7.01966100 Ry

     iteration # 10     ecut=    80.00 Ry     beta= 0.20
     Davidson diagonalization with overlap

---- Real-time Memory Report at c_bands before calling an iterative solver
          1246 MiB given to the printing process from OS
             0 MiB allocation reported by mallinfo(arena+hblkhd)
        610696 MiB available memory on the node where the printing process lives
------------------
     ethr =  2.81E-05,  avg # of iterations =  2.9

     total cpu time spent up to now is      253.8 secs

     total energy              =    -661.66576518 Ry
     estimated scf accuracy    <       0.21885148 Ry
     electrostatic embedding   =      -0.05414579 Ry
     cavitation energy         =       0.02447505 Ry
     electrolyte free energy   =      -0.00072156 Ry
     correction to one-el term =      -6.13355030 Ry

     iteration # 11     ecut=    80.00 Ry     beta= 0.20
     Davidson diagonalization with overlap

---- Real-time Memory Report at c_bands before calling an iterative solver
          1283 MiB given to the printing process from OS
             0 MiB allocation reported by mallinfo(arena+hblkhd)
        610672 MiB available memory on the node where the printing process lives
------------------
     c_bands:  1 eigenvalues not converged
     ethr =  2.81E-05,  avg # of iterations = 10.2

     add environment contribution to local potential

     total cpu time spent up to now is      278.3 secs

     total energy              =    -661.66127171 Ry
     estimated scf accuracy    <       0.09197582 Ry
     electrostatic embedding   =      -0.05316735 Ry
     cavitation energy         =       0.02447505 Ry
     electrolyte free energy   =      -0.00072156 Ry
     correction to one-el term =      -6.13550717 Ry

     iteration # 12     ecut=    80.00 Ry     beta= 0.20
     Davidson diagonalization with overlap

---- Real-time Memory Report at c_bands before calling an iterative solver
          1319 MiB given to the printing process from OS
             0 MiB allocation reported by mallinfo(arena+hblkhd)
        610648 MiB available memory on the node where the printing process lives
------------------
     c_bands:  3 eigenvalues not converged
     c_bands:  1 eigenvalues not converged
     c_bands:  2 eigenvalues not converged
     c_bands:  1 eigenvalues not converged
     c_bands:  1 eigenvalues not converged
     c_bands:  1 eigenvalues not converged
     c_bands:  3 eigenvalues not converged
     ethr =  2.81E-05,  avg # of iterations = 16.2

     negative rho (up, down):  3.966E-03 0.000E+00

     total cpu time spent up to now is      308.5 secs

     total energy              =    -661.67747183 Ry
     estimated scf accuracy    <       0.11765192 Ry
     electrostatic embedding   =      -0.04723864 Ry
     cavitation energy         =       0.02447505 Ry
     electrolyte free energy   =      -0.00292974 Ry
     correction to one-el term =      -5.63975626 Ry

     iteration # 13     ecut=    80.00 Ry     beta= 0.20
     Davidson diagonalization with overlap

---- Real-time Memory Report at c_bands before calling an iterative solver
          1353 MiB given to the printing process from OS
             0 MiB allocation reported by mallinfo(arena+hblkhd)
        610468 MiB available memory on the node where the printing process lives
------------------
     c_bands:  1 eigenvalues not converged
     ethr =  2.81E-05,  avg # of iterations =  6.9

     negative rho (up, down):  1.838E-02 0.000E+00

     total cpu time spent up to now is      325.3 secs

     total energy              =    -661.67897326 Ry
     estimated scf accuracy    <       0.10115667 Ry
     electrostatic embedding   =      -0.04428930 Ry
     cavitation energy         =       0.02447505 Ry
     electrolyte free energy   =      -0.00292974 Ry
     correction to one-el term =      -5.64565493 Ry

     iteration # 14     ecut=    80.00 Ry     beta= 0.20
     Davidson diagonalization with overlap

---- Real-time Memory Report at c_bands before calling an iterative solver
          1381 MiB given to the printing process from OS
             0 MiB allocation reported by mallinfo(arena+hblkhd)
        610441 MiB available memory on the node where the printing process lives
------------------
     c_bands:  2 eigenvalues not converged
     ethr =  2.81E-05,  avg # of iterations =  6.8

     negative rho (up, down):  2.596E-02 0.000E+00

     total cpu time spent up to now is      342.2 secs

     total energy              =    -661.68489819 Ry
     estimated scf accuracy    <       0.16146409 Ry
     electrostatic embedding   =      -0.04330495 Ry
     cavitation energy         =       0.02447505 Ry
     electrolyte free energy   =      -0.00292974 Ry
     correction to one-el term =      -5.64762363 Ry

     iteration # 15     ecut=    80.00 Ry     beta= 0.20
     Davidson diagonalization with overlap

---- Real-time Memory Report at c_bands before calling an iterative solver
          1407 MiB given to the printing process from OS
             0 MiB allocation reported by mallinfo(arena+hblkhd)
        610388 MiB available memory on the node where the printing process lives
------------------
     ethr =  2.81E-05,  avg # of iterations =  1.1

     negative rho (up, down):  6.532E-02 0.000E+00

     total cpu time spent up to now is      354.8 secs

     total energy              =    -661.65751260 Ry
     estimated scf accuracy    <       0.15411283 Ry
     electrostatic embedding   =      -0.04247843 Ry
     cavitation energy         =       0.02447505 Ry
     electrolyte free energy   =      -0.00292974 Ry
     correction to one-el term =      -5.64927668 Ry

     iteration # 16     ecut=    80.00 Ry     beta= 0.20
     Davidson diagonalization with overlap

---- Real-time Memory Report at c_bands before calling an iterative solver
          1425 MiB given to the printing process from OS
             0 MiB allocation reported by mallinfo(arena+hblkhd)
        610382 MiB available memory on the node where the printing process lives
------------------
     c_bands:  1 eigenvalues not converged
     c_bands:  1 eigenvalues not converged
     ethr =  2.81E-05,  avg # of iterations = 14.2

     negative rho (up, down):  5.926E-02 0.000E+00

     add environment contribution to local potential

     total cpu time spent up to now is      386.6 secs

     total energy              =    -661.67606261 Ry
     estimated scf accuracy    <       0.03671834 Ry
     electrostatic embedding   =      -0.03504446 Ry
     cavitation energy         =       0.02447505 Ry
     electrolyte free energy   =      -0.00292974 Ry
     correction to one-el term =      -5.66414462 Ry

     iteration # 17     ecut=    80.00 Ry     beta= 0.20
     Davidson diagonalization with overlap

---- Real-time Memory Report at c_bands before calling an iterative solver
          1454 MiB given to the printing process from OS
             0 MiB allocation reported by mallinfo(arena+hblkhd)
        610394 MiB available memory on the node where the printing process lives
------------------
     c_bands:  5 eigenvalues not converged
     c_bands:  1 eigenvalues not converged
     c_bands:  1 eigenvalues not converged
     c_bands:  1 eigenvalues not converged
     ethr =  2.78E-05,  avg # of iterations = 15.6

     negative rho (up, down):  2.964E-02 0.000E+00

     total cpu time spent up to now is      415.7 secs

     total energy              =    -661.68961526 Ry
     estimated scf accuracy    <       0.14821514 Ry
     electrostatic embedding   =      -0.03302459 Ry
     cavitation energy         =       0.02447505 Ry
     electrolyte free energy   =      -0.00252756 Ry
     correction to one-el term =       0.12410087 Ry

     iteration # 18     ecut=    80.00 Ry     beta= 0.20
     Davidson diagonalization with overlap

---- Real-time Memory Report at c_bands before calling an iterative solver
          1473 MiB given to the printing process from OS
             0 MiB allocation reported by mallinfo(arena+hblkhd)
        609037 MiB available memory on the node where the printing process lives
------------------
     c_bands:  2 eigenvalues not converged
     c_bands:  3 eigenvalues not converged
     c_bands:  3 eigenvalues not converged
     c_bands:  2 eigenvalues not converged
     c_bands:  1 eigenvalues not converged
     c_bands:  2 eigenvalues not converged
     ethr =  2.78E-05,  avg # of iterations = 14.5

     negative rho (up, down):  1.204E-02 0.000E+00

     total cpu time spent up to now is      439.4 secs

     total energy              =    -661.70190204 Ry
     estimated scf accuracy    <       0.15081474 Ry
     electrostatic embedding   =      -0.03492062 Ry
     cavitation energy         =       0.02447505 Ry
     electrolyte free energy   =      -0.00252756 Ry
     correction to one-el term =       0.12789294 Ry

     iteration # 19     ecut=    80.00 Ry     beta= 0.20
     Davidson diagonalization with overlap

---- Real-time Memory Report at c_bands before calling an iterative solver
          1495 MiB given to the printing process from OS
             0 MiB allocation reported by mallinfo(arena+hblkhd)
        609010 MiB available memory on the node where the printing process lives
------------------
     c_bands:  2 eigenvalues not converged
     c_bands:  1 eigenvalues not converged
     c_bands:  1 eigenvalues not converged
     c_bands:  1 eigenvalues not converged
     c_bands:  1 eigenvalues not converged
     c_bands:  1 eigenvalues not converged
     c_bands:  2 eigenvalues not converged
     c_bands:  2 eigenvalues not converged
     c_bands:  1 eigenvalues not converged
     c_bands:  3 eigenvalues not converged
     c_bands:  2 eigenvalues not converged
     c_bands:  2 eigenvalues not converged
     ethr =  2.78E-05,  avg # of iterations = 14.2

     negative rho (up, down):  1.388E-02 0.000E+00

     total cpu time spent up to now is      462.1 secs

     total energy              =    -661.70515452 Ry
     estimated scf accuracy    <       0.39588230 Ry
     electrostatic embedding   =      -0.03587313 Ry
     cavitation energy         =       0.02447505 Ry
     electrolyte free energy   =      -0.00252756 Ry
     correction to one-el term =       0.12979797 Ry

     iteration # 20     ecut=    80.00 Ry     beta= 0.20
     Davidson diagonalization with overlap

---- Real-time Memory Report at c_bands before calling an iterative solver
          1513 MiB given to the printing process from OS
             0 MiB allocation reported by mallinfo(arena+hblkhd)
        608999 MiB available memory on the node where the printing process lives
------------------
     c_bands:  1 eigenvalues not converged
     ethr =  2.78E-05,  avg # of iterations =  3.7

     negative rho (up, down):  1.521E-02 0.000E+00

     total cpu time spent up to now is      476.3 secs

     total energy              =    -661.67732246 Ry
     estimated scf accuracy    <       0.46488363 Ry
     electrostatic embedding   =      -0.03574772 Ry
     cavitation energy         =       0.02447505 Ry
     electrolyte free energy   =      -0.00252756 Ry
     correction to one-el term =       0.12954713 Ry

     iteration # 21     ecut=    80.00 Ry     beta= 0.20
     Davidson diagonalization with overlap

---- Real-time Memory Report at c_bands before calling an iterative solver
          1528 MiB given to the printing process from OS
             0 MiB allocation reported by mallinfo(arena+hblkhd)
        608991 MiB available memory on the node where the printing process lives
------------------
     c_bands:  1 eigenvalues not converged
     c_bands:  1 eigenvalues not converged
     ethr =  2.78E-05,  avg # of iterations =  8.7

     negative rho (up, down):  4.289E-02 0.000E+00

     total cpu time spent up to now is      494.0 secs

     total energy              =    -661.68458046 Ry
     estimated scf accuracy    <       0.13136665 Ry
     electrostatic embedding   =      -0.03415205 Ry
     cavitation energy         =       0.02447505 Ry
     electrolyte free energy   =      -0.00252756 Ry
     correction to one-el term =       0.12635581 Ry

     iteration # 22     ecut=    80.00 Ry     beta= 0.20
     Davidson diagonalization with overlap

---- Real-time Memory Report at c_bands before calling an iterative solver
          1542 MiB given to the printing process from OS
             0 MiB allocation reported by mallinfo(arena+hblkhd)
        608976 MiB available memory on the node where the printing process lives
------------------
     ethr =  2.78E-05,  avg # of iterations =  3.9

     negative rho (up, down):  2.339E-02 0.000E+00

     total cpu time spent up to now is      508.9 secs

     total energy              =    -661.71367157 Ry
     estimated scf accuracy    <       0.14018555 Ry
     electrostatic embedding   =      -0.03434488 Ry
     cavitation energy         =       0.02447505 Ry
     electrolyte free energy   =      -0.00252756 Ry
     correction to one-el term =       0.12674145 Ry

     iteration # 23     ecut=    80.00 Ry     beta= 0.20
     Davidson diagonalization with overlap

---- Real-time Memory Report at c_bands before calling an iterative solver
          1559 MiB given to the printing process from OS
             0 MiB allocation reported by mallinfo(arena+hblkhd)
        608974 MiB available memory on the node where the printing process lives
------------------
     c_bands:  1 eigenvalues not converged
     c_bands:  3 eigenvalues not converged
     c_bands:  2 eigenvalues not converged
     c_bands:  2 eigenvalues not converged
     c_bands:  1 eigenvalues not converged
     c_bands:  1 eigenvalues not converged
     c_bands:  1 eigenvalues not converged
     c_bands:  2 eigenvalues not converged
     c_bands:  2 eigenvalues not converged
     c_bands:  1 eigenvalues not converged
     c_bands:  1 eigenvalues not converged
     c_bands:  1 eigenvalues not converged
     c_bands:  2 eigenvalues not converged
     c_bands:  2 eigenvalues not converged
     c_bands:  2 eigenvalues not converged
     c_bands:  2 eigenvalues not converged
     ethr =  2.78E-05,  avg # of iterations = 16.0

     negative rho (up, down):  1.878E-02 0.000E+00

     total cpu time spent up to now is      534.4 secs

     total energy              =    -661.69365876 Ry
     estimated scf accuracy    <       0.49160765 Ry
     electrostatic embedding   =      -0.03727488 Ry
     cavitation energy         =       0.02447505 Ry
     electrolyte free energy   =      -0.00252756 Ry
     correction to one-el term =       0.13260146 Ry

     iteration # 24     ecut=    80.00 Ry     beta= 0.20
     Davidson diagonalization with overlap

---- Real-time Memory Report at c_bands before calling an iterative solver
          1572 MiB given to the printing process from OS
             0 MiB allocation reported by mallinfo(arena+hblkhd)
        608970 MiB available memory on the node where the printing process lives
------------------
     c_bands:  1 eigenvalues not converged
     c_bands:  1 eigenvalues not converged
     c_bands:  1 eigenvalues not converged
     c_bands:  1 eigenvalues not converged
     c_bands:  1 eigenvalues not converged
     c_bands:  2 eigenvalues not converged
     ethr =  2.78E-05,  avg # of iterations = 10.4

     negative rho (up, down):  4.667E-02 0.000E+00

     total cpu time spent up to now is      553.2 secs

     total energy              =    -661.67698734 Ry
     estimated scf accuracy    <       0.27413413 Ry
     electrostatic embedding   =      -0.03547717 Ry
     cavitation energy         =       0.02447505 Ry
     electrolyte free energy   =      -0.00252756 Ry
     correction to one-el term =       0.12900603 Ry

     iteration # 25     ecut=    80.00 Ry     beta= 0.20
     Davidson diagonalization with overlap

---- Real-time Memory Report at c_bands before calling an iterative solver
          1583 MiB given to the printing process from OS
             0 MiB allocation reported by mallinfo(arena+hblkhd)
        608954 MiB available memory on the node where the printing process lives
------------------
     c_bands:  2 eigenvalues not converged
     c_bands:  1 eigenvalues not converged
     c_bands:  2 eigenvalues not converged
     c_bands:  1 eigenvalues not converged
     c_bands:  1 eigenvalues not converged
     c_bands:  1 eigenvalues not converged
     c_bands:  3 eigenvalues not converged
     ethr =  2.78E-05,  avg # of iterations = 15.6

     negative rho (up, down):  6.753E-02 0.000E+00

     total cpu time spent up to now is      579.6 secs

     total energy              =    -661.66454040 Ry
     estimated scf accuracy    <       0.11460164 Ry
     electrostatic embedding   =      -0.03337171 Ry
     cavitation energy         =       0.02447505 Ry
     electrolyte free energy   =      -0.00252756 Ry
     correction to one-el term =       0.12479511 Ry

     iteration # 26     ecut=    80.00 Ry     beta= 0.20
     Davidson diagonalization with overlap

---- Real-time Memory Report at c_bands before calling an iterative solver
          1594 MiB given to the printing process from OS
             0 MiB allocation reported by mallinfo(arena+hblkhd)
        608947 MiB available memory on the node where the printing process lives
------------------
     c_bands:  5 eigenvalues not converged
     c_bands:  1 eigenvalues not converged
     c_bands:  2 eigenvalues not converged
     c_bands:  1 eigenvalues not converged
     c_bands:  1 eigenvalues not converged
     c_bands:  1 eigenvalues not converged
     c_bands:  2 eigenvalues not converged
     c_bands:  1 eigenvalues not converged
     c_bands:  3 eigenvalues not converged
     ethr =  2.78E-05,  avg # of iterations = 15.8

     negative rho (up, down):  5.366E-02 0.000E+00

     add environment contribution to local potential

     total cpu time spent up to now is      612.8 secs

     total energy              =    -661.67480416 Ry
     estimated scf accuracy    <       0.00853833 Ry
     electrostatic embedding   =      -0.03038064 Ry
     cavitation energy         =       0.02447505 Ry
     electrolyte free energy   =      -0.00252756 Ry
     correction to one-el term =       0.11881298 Ry

     iteration # 27     ecut=    80.00 Ry     beta= 0.20
     Davidson diagonalization with overlap

---- Real-time Memory Report at c_bands before calling an iterative solver
          1608 MiB given to the printing process from OS
             0 MiB allocation reported by mallinfo(arena+hblkhd)
        608948 MiB available memory on the node where the printing process lives
------------------
     c_bands:  2 eigenvalues not converged
     c_bands:  4 eigenvalues not converged
     c_bands:  1 eigenvalues not converged
     c_bands:  2 eigenvalues not converged
     c_bands:  1 eigenvalues not converged
     c_bands:  1 eigenvalues not converged
     c_bands:  1 eigenvalues not converged
     c_bands:  1 eigenvalues not converged
     c_bands:  1 eigenvalues not converged
     c_bands:  1 eigenvalues not converged
     c_bands:  1 eigenvalues not converged
     ethr =  6.47E-06,  avg # of iterations = 17.3

     negative rho (up, down):  7.631E-02 0.000E+00

     add environment contribution to local potential

     total cpu time spent up to now is      647.1 secs

     total energy              =    -661.66994055 Ry
     estimated scf accuracy    <       0.08111186 Ry
     electrostatic embedding   =      -0.03186146 Ry
     cavitation energy         =       0.02447505 Ry
     electrolyte free energy   =      -0.00214847 Ry
     correction to one-el term =       1.12967835 Ry

     iteration # 28     ecut=    80.00 Ry     beta= 0.20
     Davidson diagonalization with overlap

---- Real-time Memory Report at c_bands before calling an iterative solver
          1632 MiB given to the printing process from OS
             0 MiB allocation reported by mallinfo(arena+hblkhd)
        608886 MiB available memory on the node where the printing process lives
------------------
     c_bands:  1 eigenvalues not converged
     c_bands:  1 eigenvalues not converged
     c_bands:  1 eigenvalues not converged
     ethr =  6.47E-06,  avg # of iterations = 11.5

     negative rho (up, down):  6.393E-02 0.000E+00

     add environment contribution to local potential

     total cpu time spent up to now is      674.4 secs

     total energy              =    -661.69506904 Ry
     estimated scf accuracy    <       0.04308545 Ry
     electrostatic embedding   =      -0.03152119 Ry
     cavitation energy         =       0.02447505 Ry
     electrolyte free energy   =      -0.00124866 Ry
     correction to one-el term =       4.16251269 Ry

     iteration # 29     ecut=    80.00 Ry     beta= 0.20
     Davidson diagonalization with overlap

---- Real-time Memory Report at c_bands before calling an iterative solver
          1632 MiB given to the printing process from OS
             0 MiB allocation reported by mallinfo(arena+hblkhd)
        608855 MiB available memory on the node where the printing process lives
------------------
     c_bands:  2 eigenvalues not converged
     c_bands:  3 eigenvalues not converged
     c_bands:  1 eigenvalues not converged
     c_bands:  1 eigenvalues not converged
     c_bands:  1 eigenvalues not converged
     ethr =  6.47E-06,  avg # of iterations = 14.4

     negative rho (up, down):  7.079E-02 0.000E+00

     total cpu time spent up to now is      701.0 secs

     total energy              =    -661.68319090 Ry
     estimated scf accuracy    <       0.27680221 Ry
     electrostatic embedding   =      -0.02967342 Ry
     cavitation energy         =       0.02447505 Ry
     electrolyte free energy   =      -0.00285220 Ry
     correction to one-el term =       3.01948550 Ry

     iteration # 30     ecut=    80.00 Ry     beta= 0.20
     Davidson diagonalization with overlap

---- Real-time Memory Report at c_bands before calling an iterative solver
          1638 MiB given to the printing process from OS
             0 MiB allocation reported by mallinfo(arena+hblkhd)
        608813 MiB available memory on the node where the printing process lives
------------------
     c_bands:  1 eigenvalues not converged
     ethr =  6.47E-06,  avg # of iterations =  9.9

     negative rho (up, down):  9.382E-02 0.000E+00

     total cpu time spent up to now is      720.3 secs

     total energy              =    -661.68521812 Ry
     estimated scf accuracy    <       0.14572532 Ry
     electrostatic embedding   =      -0.02948084 Ry
     cavitation energy         =       0.02447505 Ry
     electrolyte free energy   =      -0.00285220 Ry
     correction to one-el term =       3.01910034 Ry

     iteration # 31     ecut=    80.00 Ry     beta= 0.20
     Davidson diagonalization with overlap

---- Real-time Memory Report at c_bands before calling an iterative solver
          1643 MiB given to the printing process from OS
             0 MiB allocation reported by mallinfo(arena+hblkhd)
        608812 MiB available memory on the node where the printing process lives
------------------
     ethr =  6.47E-06,  avg # of iterations =  9.8

     negative rho (up, down):  7.881E-02 0.000E+00

     total cpu time spent up to now is      739.9 secs

     total energy              =    -661.67934692 Ry
     estimated scf accuracy    <       0.14833877 Ry
     electrostatic embedding   =      -0.02960030 Ry
     cavitation energy         =       0.02447505 Ry
     electrolyte free energy   =      -0.00285220 Ry
     correction to one-el term =       3.01933928 Ry

     iteration # 32     ecut=    80.00 Ry     beta= 0.20
     Davidson diagonalization with overlap

---- Real-time Memory Report at c_bands before calling an iterative solver
          1648 MiB given to the printing process from OS
             0 MiB allocation reported by mallinfo(arena+hblkhd)
        608804 MiB available memory on the node where the printing process lives
------------------
     ethr =  6.47E-06,  avg # of iterations =  4.1

     negative rho (up, down):  7.152E-02 0.000E+00

     add environment contribution to local potential

     total cpu time spent up to now is      759.6 secs

     total energy              =    -661.68464261 Ry
     estimated scf accuracy    <       0.06503810 Ry
     electrostatic embedding   =      -0.02955892 Ry
     cavitation energy         =       0.02447505 Ry
     electrolyte free energy   =      -0.00285220 Ry
     correction to one-el term =       3.01925650 Ry

     iteration # 33     ecut=    80.00 Ry     beta= 0.20
     Davidson diagonalization with overlap

---- Real-time Memory Report at c_bands before calling an iterative solver
          1655 MiB given to the printing process from OS
             0 MiB allocation reported by mallinfo(arena+hblkhd)
        608803 MiB available memory on the node where the printing process lives
------------------
     ethr =  6.47E-06,  avg # of iterations =  7.8

     negative rho (up, down):  4.655E-02 0.000E+00

     total cpu time spent up to now is      777.0 secs

     total energy              =    -661.72939254 Ry
     estimated scf accuracy    <       0.14115573 Ry
     electrostatic embedding   =      -0.03041907 Ry
     cavitation energy         =       0.02447505 Ry
     electrolyte free energy   =      -0.00243117 Ry
     correction to one-el term =       2.60156066 Ry

     iteration # 34     ecut=    80.00 Ry     beta= 0.20
     Davidson diagonalization with overlap

---- Real-time Memory Report at c_bands before calling an iterative solver
          1660 MiB given to the printing process from OS
             0 MiB allocation reported by mallinfo(arena+hblkhd)
        608799 MiB available memory on the node where the printing process lives
------------------
     c_bands:  4 eigenvalues not converged
     c_bands:  4 eigenvalues not converged
     c_bands:  4 eigenvalues not converged
     c_bands:  2 eigenvalues not converged
     c_bands:  1 eigenvalues not converged
     c_bands:  1 eigenvalues not converged
     c_bands:  3 eigenvalues not converged
     c_bands:  3 eigenvalues not converged
     c_bands:  3 eigenvalues not converged
     c_bands:  3 eigenvalues not converged
     c_bands:  3 eigenvalues not converged
     c_bands:  3 eigenvalues not converged
     c_bands:  1 eigenvalues not converged
     c_bands:  3 eigenvalues not converged
     c_bands:  5 eigenvalues not converged
     c_bands:  3 eigenvalues not converged
     c_bands:  2 eigenvalues not converged
     c_bands:  3 eigenvalues not converged
     c_bands:  2 eigenvalues not converged
     c_bands:  3 eigenvalues not converged
     c_bands:  5 eigenvalues not converged
     c_bands:  4 eigenvalues not converged
     c_bands:  2 eigenvalues not converged
     c_bands:  2 eigenvalues not converged
     c_bands:  1 eigenvalues not converged
     ethr =  6.47E-06,  avg # of iterations = 20.6

     negative rho (up, down):  6.308E-02 0.000E+00

     total cpu time spent up to now is      816.0 secs

     total energy              =    -661.64224553 Ry
     estimated scf accuracy    <       1.09505498 Ry
     electrostatic embedding   =      -0.03278475 Ry
     cavitation energy         =       0.02447505 Ry
     electrolyte free energy   =      -0.00243117 Ry
     correction to one-el term =       2.60629201 Ry

     iteration # 35     ecut=    80.00 Ry     beta= 0.20
     Davidson diagonalization with overlap

---- Real-time Memory Report at c_bands before calling an iterative solver
          1670 MiB given to the printing process from OS
             0 MiB allocation reported by mallinfo(arena+hblkhd)
        608629 MiB available memory on the node where the printing process lives
------------------
     c_bands:  3 eigenvalues not converged
     c_bands:  2 eigenvalues not converged
     c_bands:  2 eigenvalues not converged
     c_bands:  4 eigenvalues not converged
     c_bands:  5 eigenvalues not converged
     c_bands:  1 eigenvalues not converged
     c_bands:  1 eigenvalues not converged
     c_bands:  3 eigenvalues not converged
     c_bands:  2 eigenvalues not converged
     c_bands:  3 eigenvalues not converged
     c_bands:  5 eigenvalues not converged
     c_bands:  4 eigenvalues not converged
     c_bands:  1 eigenvalues not converged
     c_bands:  2 eigenvalues not converged
     c_bands:  2 eigenvalues not converged
     c_bands:  5 eigenvalues not converged
     c_bands:  2 eigenvalues not converged
     c_bands:  3 eigenvalues not converged
     c_bands:  3 eigenvalues not converged
     c_bands:  5 eigenvalues not converged
     c_bands:  4 eigenvalues not converged
     c_bands:  4 eigenvalues not converged
     c_bands:  3 eigenvalues not converged
     c_bands:  3 eigenvalues not converged
     ethr =  6.47E-06,  avg # of iterations = 20.9

     negative rho (up, down):  7.147E-02 0.000E+00

     add environment contribution to local potential

     total cpu time spent up to now is      860.8 secs

     total energy              =    -661.67228283 Ry
     estimated scf accuracy    <       0.05321204 Ry
     electrostatic embedding   =      -0.02967066 Ry
     cavitation energy         =       0.02447505 Ry
     electrolyte free energy   =      -0.00243117 Ry
     correction to one-el term =       2.60006382 Ry

     iteration # 36     ecut=    80.00 Ry     beta= 0.20
     Davidson diagonalization with overlap

---- Real-time Memory Report at c_bands before calling an iterative solver
          1677 MiB given to the printing process from OS
             0 MiB allocation reported by mallinfo(arena+hblkhd)
        608619 MiB available memory on the node where the printing process lives
------------------
     c_bands:  2 eigenvalues not converged
     ethr =  6.47E-06,  avg # of iterations = 11.4

     negative rho (up, down):  6.417E-02 0.000E+00

     add environment contribution to local potential

     total cpu time spent up to now is      888.5 secs

     total energy              =    -661.68590955 Ry
     estimated scf accuracy    <       0.03631486 Ry
     electrostatic embedding   =      -0.03226259 Ry
     cavitation energy         =       0.02447505 Ry
     electrolyte free energy   =      -0.00119363 Ry
     correction to one-el term =       5.20635622 Ry

     iteration # 37     ecut=    80.00 Ry     beta= 0.20
     Davidson diagonalization with overlap

---- Real-time Memory Report at c_bands before calling an iterative solver
          1682 MiB given to the printing process from OS
             0 MiB allocation reported by mallinfo(arena+hblkhd)
        608708 MiB available memory on the node where the printing process lives
------------------
     ethr =  6.47E-06,  avg # of iterations =  2.6

     negative rho (up, down):  8.114E-02 0.000E+00

     add environment contribution to local potential

     total cpu time spent up to now is      906.2 secs

     total energy              =    -661.67685900 Ry
     estimated scf accuracy    <       0.08345886 Ry
     electrostatic embedding   =      -0.03083284 Ry
     cavitation energy         =       0.02447505 Ry
     electrolyte free energy   =      -0.00160546 Ry
     correction to one-el term =       3.88431374 Ry

     iteration # 38     ecut=    80.00 Ry     beta= 0.20
     Davidson diagonalization with overlap

---- Real-time Memory Report at c_bands before calling an iterative solver
          1685 MiB given to the printing process from OS
             0 MiB allocation reported by mallinfo(arena+hblkhd)
        608707 MiB available memory on the node where the printing process lives
------------------
     ethr =  6.47E-06,  avg # of iterations =  6.6

     negative rho (up, down):  7.311E-02 0.000E+00

     add environment contribution to local potential

     total cpu time spent up to now is      926.6 secs

     total energy              =    -661.67933945 Ry
     estimated scf accuracy    <       0.02580838 Ry
     electrostatic embedding   =      -0.03154013 Ry
     cavitation energy         =       0.02447505 Ry
     electrolyte free energy   =      -0.00127286 Ry
     correction to one-el term =       5.19596764 Ry

     iteration # 39     ecut=    80.00 Ry     beta= 0.20
     Davidson diagonalization with overlap

---- Real-time Memory Report at c_bands before calling an iterative solver
          1687 MiB given to the printing process from OS
             0 MiB allocation reported by mallinfo(arena+hblkhd)
        608696 MiB available memory on the node where the printing process lives
------------------
     ethr =  6.47E-06,  avg # of iterations =  4.2

     negative rho (up, down):  6.708E-02 0.000E+00

     add environment contribution to local potential

     total cpu time spent up to now is      945.3 secs

     total energy              =    -661.67774133 Ry
     estimated scf accuracy    <       0.00770891 Ry
     electrostatic embedding   =      -0.03085382 Ry
     cavitation energy         =       0.02447505 Ry
     electrolyte free energy   =      -0.00112062 Ry
     correction to one-el term =       4.77097434 Ry

     iteration # 40     ecut=    80.00 Ry     beta= 0.20
     Davidson diagonalization with overlap

---- Real-time Memory Report at c_bands before calling an iterative solver
          1691 MiB given to the printing process from OS
             0 MiB allocation reported by mallinfo(arena+hblkhd)
        608694 MiB available memory on the node where the printing process lives
------------------
     ethr =  5.84E-06,  avg # of iterations =  4.0

     negative rho (up, down):  4.653E-02 0.000E+00

     add environment contribution to local potential

     total cpu time spent up to now is      963.6 secs

     total energy              =    -661.67812932 Ry
     estimated scf accuracy    <       0.00469739 Ry
     electrostatic embedding   =      -0.03332231 Ry
     cavitation energy         =       0.02447505 Ry
     electrolyte free energy   =      -0.00088754 Ry
     correction to one-el term =       6.11898974 Ry

     iteration # 41     ecut=    80.00 Ry     beta= 0.20
     Davidson diagonalization with overlap

---- Real-time Memory Report at c_bands before calling an iterative solver
          1695 MiB given to the printing process from OS
             0 MiB allocation reported by mallinfo(arena+hblkhd)
        608691 MiB available memory on the node where the printing process lives
------------------
     ethr =  3.56E-06,  avg # of iterations =  7.4

     negative rho (up, down):  2.097E-02 0.000E+00

     add environment contribution to local potential

     total cpu time spent up to now is      985.5 secs

     total energy              =    -661.67902120 Ry
     estimated scf accuracy    <       0.00398963 Ry
     electrostatic embedding   =      -0.03472187 Ry
     cavitation energy         =       0.02447505 Ry
     electrolyte free energy   =      -0.00074089 Ry
     correction to one-el term =       6.81365872 Ry

     iteration # 42     ecut=    80.00 Ry     beta= 0.20
     Davidson diagonalization with overlap

---- Real-time Memory Report at c_bands before calling an iterative solver
          1699 MiB given to the printing process from OS
             0 MiB allocation reported by mallinfo(arena+hblkhd)
        608690 MiB available memory on the node where the printing process lives
------------------
     c_bands:  3 eigenvalues not converged
     c_bands:  1 eigenvalues not converged
     ethr =  3.02E-06,  avg # of iterations = 11.8

     negative rho (up, down):  1.366E-02 0.000E+00

     add environment contribution to local potential

     total cpu time spent up to now is     1011.3 secs

     total energy              =    -661.68094072 Ry
     estimated scf accuracy    <       0.01869616 Ry
     electrostatic embedding   =      -0.03360865 Ry
     cavitation energy         =       0.02447505 Ry
     electrolyte free energy   =      -0.00074999 Ry
     correction to one-el term =       7.22847936 Ry

     iteration # 43     ecut=    80.00 Ry     beta= 0.20
     Davidson diagonalization with overlap

---- Real-time Memory Report at c_bands before calling an iterative solver
          1702 MiB given to the printing process from OS
             0 MiB allocation reported by mallinfo(arena+hblkhd)
        608679 MiB available memory on the node where the printing process lives
------------------
     ethr =  3.02E-06,  avg # of iterations =  9.8

     negative rho (up, down):  1.020E-02 0.000E+00

     add environment contribution to local potential

     total cpu time spent up to now is     1035.4 secs

     total energy              =    -661.67804325 Ry
     estimated scf accuracy    <       0.01459883 Ry
     electrostatic embedding   =      -0.03683460 Ry
     cavitation energy         =       0.02447505 Ry
     electrolyte free energy   =      -0.00073735 Ry
     correction to one-el term =       8.80611962 Ry

     iteration # 44     ecut=    80.00 Ry     beta= 0.20
     Davidson diagonalization with overlap

---- Real-time Memory Report at c_bands before calling an iterative solver
          1703 MiB given to the printing process from OS
             0 MiB allocation reported by mallinfo(arena+hblkhd)
        608680 MiB available memory on the node where the printing process lives
------------------
     c_bands:  1 eigenvalues not converged
     c_bands:  1 eigenvalues not converged
     ethr =  3.02E-06,  avg # of iterations = 11.4

     negative rho (up, down):  5.758E-03 0.000E+00

     add environment contribution to local potential

     total cpu time spent up to now is     1059.7 secs

     total energy              =    -661.67942840 Ry
     estimated scf accuracy    <       0.00325843 Ry
     electrostatic embedding   =      -0.03475862 Ry
     cavitation energy         =       0.02447505 Ry
     electrolyte free energy   =      -0.00080264 Ry
     correction to one-el term =       8.72968126 Ry

     iteration # 45     ecut=    80.00 Ry     beta= 0.20
     Davidson diagonalization with overlap

---- Real-time Memory Report at c_bands before calling an iterative solver
          1706 MiB given to the printing process from OS
             0 MiB allocation reported by mallinfo(arena+hblkhd)
        608678 MiB available memory on the node where the printing process lives
------------------
     c_bands:  1 eigenvalues not converged
     c_bands:  1 eigenvalues not converged
     c_bands:  1 eigenvalues not converged
     c_bands:  1 eigenvalues not converged
     c_bands:  1 eigenvalues not converged
     c_bands:  2 eigenvalues not converged
     ethr =  2.47E-06,  avg # of iterations = 13.1

     negative rho (up, down):  3.082E-03 0.000E+00

     add environment contribution to local potential

     total cpu time spent up to now is     1084.8 secs

     total energy              =    -661.67974490 Ry
     estimated scf accuracy    <       0.00044127 Ry
     electrostatic embedding   =      -0.03421121 Ry
     cavitation energy         =       0.02447505 Ry
     electrolyte free energy   =      -0.00088266 Ry
     correction to one-el term =       8.95252948 Ry

     iteration # 46     ecut=    80.00 Ry     beta= 0.20
     Davidson diagonalization with overlap

---- Real-time Memory Report at c_bands before calling an iterative solver
          1708 MiB given to the printing process from OS
             0 MiB allocation reported by mallinfo(arena+hblkhd)
        608670 MiB available memory on the node where the printing process lives
------------------
     c_bands:  1 eigenvalues not converged
     c_bands:  2 eigenvalues not converged
     c_bands:  2 eigenvalues not converged
     c_bands:  2 eigenvalues not converged
     c_bands:  1 eigenvalues not converged
     c_bands:  1 eigenvalues not converged
     ethr =  3.34E-07,  avg # of iterations = 12.1

     negative rho (up, down):  6.900E-04 0.000E+00

     add environment contribution to local potential

     total cpu time spent up to now is     1111.9 secs

     total energy              =    -661.67983888 Ry
     estimated scf accuracy    <       0.00075790 Ry
     electrostatic embedding   =      -0.03455029 Ry
     cavitation energy         =       0.02447505 Ry
     electrolyte free energy   =      -0.00086090 Ry
     correction to one-el term =       9.32034251 Ry

     iteration # 47     ecut=    80.00 Ry     beta= 0.20
     Davidson diagonalization with overlap

---- Real-time Memory Report at c_bands before calling an iterative solver
          1710 MiB given to the printing process from OS
             0 MiB allocation reported by mallinfo(arena+hblkhd)
        608662 MiB available memory on the node where the printing process lives
------------------
     c_bands:  1 eigenvalues not converged
     c_bands:  1 eigenvalues not converged
     c_bands:  1 eigenvalues not converged
     c_bands:  1 eigenvalues not converged
     c_bands:  1 eigenvalues not converged
     c_bands:  1 eigenvalues not converged
     ethr =  3.34E-07,  avg # of iterations = 12.0

     negative rho (up, down):  9.513E-04 0.000E+00

     add environment contribution to local potential

     total cpu time spent up to now is     1137.3 secs

     total energy              =    -661.67987910 Ry
     estimated scf accuracy    <       0.00026923 Ry
     electrostatic embedding   =      -0.03441037 Ry
     cavitation energy         =       0.02447505 Ry
     electrolyte free energy   =      -0.00082538 Ry
     correction to one-el term =       9.35836083 Ry

     iteration # 48     ecut=    80.00 Ry     beta= 0.20
     Davidson diagonalization with overlap

---- Real-time Memory Report at c_bands before calling an iterative solver
          1714 MiB given to the printing process from OS
             0 MiB allocation reported by mallinfo(arena+hblkhd)
        608657 MiB available memory on the node where the printing process lives
------------------
     c_bands:  1 eigenvalues not converged
     c_bands:  2 eigenvalues not converged
     c_bands:  1 eigenvalues not converged
     ethr =  2.04E-07,  avg # of iterations =  9.1

     negative rho (up, down):  4.695E-04 0.000E+00

     add environment contribution to local potential

     total cpu time spent up to now is     1159.6 secs

     total energy              =    -661.67992661 Ry
     estimated scf accuracy    <       0.00013863 Ry
     electrostatic embedding   =      -0.03413293 Ry
     cavitation energy         =       0.02447505 Ry
     electrolyte free energy   =      -0.00079854 Ry
     correction to one-el term =       9.28513518 Ry

     iteration # 49     ecut=    80.00 Ry     beta= 0.20
     Davidson diagonalization with overlap

---- Real-time Memory Report at c_bands before calling an iterative solver
          1715 MiB given to the printing process from OS
             0 MiB allocation reported by mallinfo(arena+hblkhd)
        608653 MiB available memory on the node where the printing process lives
------------------
     c_bands:  1 eigenvalues not converged
     ethr =  1.05E-07,  avg # of iterations = 11.8

     negative rho (up, down):  1.367E-03 0.000E+00

     add environment contribution to local potential

     total cpu time spent up to now is     1183.6 secs

     total energy              =    -661.67999726 Ry
     estimated scf accuracy    <       0.00003518 Ry
     electrostatic embedding   =      -0.03390971 Ry
     cavitation energy         =       0.02447505 Ry
     electrolyte free energy   =      -0.00079376 Ry
     correction to one-el term =       9.58618273 Ry

     iteration # 50     ecut=    80.00 Ry     beta= 0.20
     Davidson diagonalization with overlap

---- Real-time Memory Report at c_bands before calling an iterative solver
          1717 MiB given to the printing process from OS
             0 MiB allocation reported by mallinfo(arena+hblkhd)
        608644 MiB available memory on the node where the printing process lives
------------------
     c_bands:  1 eigenvalues not converged
     c_bands:  1 eigenvalues not converged
     c_bands:  1 eigenvalues not converged
     c_bands:  2 eigenvalues not converged
     ethr =  2.67E-08,  avg # of iterations = 11.5

     negative rho (up, down):  1.225E-03 0.000E+00

     add environment contribution to local potential

     total cpu time spent up to now is     1209.6 secs

     total energy              =    -661.68003360 Ry
     estimated scf accuracy    <       0.00001792 Ry
     electrostatic embedding   =      -0.03344389 Ry
     cavitation energy         =       0.02447505 Ry
     electrolyte free energy   =      -0.00079302 Ry
     correction to one-el term =       9.75566423 Ry

     iteration # 51     ecut=    80.00 Ry     beta= 0.20
     Davidson diagonalization with overlap

---- Real-time Memory Report at c_bands before calling an iterative solver
          1717 MiB given to the printing process from OS
             0 MiB allocation reported by mallinfo(arena+hblkhd)
        608644 MiB available memory on the node where the printing process lives
------------------
     ethr =  1.36E-08,  avg # of iterations =  3.7

     negative rho (up, down):  1.141E-03 0.000E+00

     add environment contribution to local potential

     total cpu time spent up to now is     1227.6 secs

     total energy              =    -661.68004895 Ry
     estimated scf accuracy    <       0.00001026 Ry
     electrostatic embedding   =      -0.03337777 Ry
     cavitation energy         =       0.02447505 Ry
     electrolyte free energy   =      -0.00079132 Ry
     correction to one-el term =       9.84604789 Ry

     iteration # 52     ecut=    80.00 Ry     beta= 0.20
     Davidson diagonalization with overlap

---- Real-time Memory Report at c_bands before calling an iterative solver
          1721 MiB given to the printing process from OS
             0 MiB allocation reported by mallinfo(arena+hblkhd)
        608638 MiB available memory on the node where the printing process lives
------------------
     c_bands:  1 eigenvalues not converged
     c_bands:  1 eigenvalues not converged
     ethr =  7.77E-09,  avg # of iterations = 10.4

     negative rho (up, down):  3.021E-04 0.000E+00

     add environment contribution to local potential

     total cpu time spent up to now is     1250.1 secs

     total energy              =    -661.68005507 Ry
     estimated scf accuracy    <       0.00000587 Ry
     electrostatic embedding   =      -0.03335884 Ry
     cavitation energy         =       0.02447505 Ry
     electrolyte free energy   =      -0.00079052 Ry
     correction to one-el term =       9.97368577 Ry

     iteration # 53     ecut=    80.00 Ry     beta= 0.20
     Davidson diagonalization with overlap

---- Real-time Memory Report at c_bands before calling an iterative solver
          1724 MiB given to the printing process from OS
             0 MiB allocation reported by mallinfo(arena+hblkhd)
        608642 MiB available memory on the node where the printing process lives
------------------
     c_bands:  1 eigenvalues not converged
     c_bands:  1 eigenvalues not converged
     c_bands:  1 eigenvalues not converged
     c_bands:  1 eigenvalues not converged
     c_bands:  1 eigenvalues not converged
     ethr =  4.45E-09,  avg # of iterations = 13.5

     negative rho (up, down):  6.134E-04 0.000E+00

     add environment contribution to local potential

     total cpu time spent up to now is     1275.8 secs

     total energy              =    -661.68005523 Ry
     estimated scf accuracy    <       0.00000220 Ry
     electrostatic embedding   =      -0.03327307 Ry
     cavitation energy         =       0.02447505 Ry
     electrolyte free energy   =      -0.00078812 Ry
     correction to one-el term =       9.97755257 Ry

     iteration # 54     ecut=    80.00 Ry     beta= 0.20
     Davidson diagonalization with overlap

---- Real-time Memory Report at c_bands before calling an iterative solver
          1725 MiB given to the printing process from OS
             0 MiB allocation reported by mallinfo(arena+hblkhd)
        608630 MiB available memory on the node where the printing process lives
------------------
     c_bands:  1 eigenvalues not converged
     ethr =  1.66E-09,  avg # of iterations =  5.3

     negative rho (up, down):  4.599E-04 0.000E+00

     add environment contribution to local potential

     total cpu time spent up to now is     1296.4 secs

     total energy              =    -661.68005634 Ry
     estimated scf accuracy    <       0.00000133 Ry
     electrostatic embedding   =      -0.03320698 Ry
     cavitation energy         =       0.02447505 Ry
     electrolyte free energy   =      -0.00078809 Ry
     correction to one-el term =       9.95682217 Ry

     iteration # 55     ecut=    80.00 Ry     beta= 0.20
     Davidson diagonalization with overlap

---- Real-time Memory Report at c_bands before calling an iterative solver
          1726 MiB given to the printing process from OS
             0 MiB allocation reported by mallinfo(arena+hblkhd)
        608629 MiB available memory on the node where the printing process lives
------------------
     ethr =  1.01E-09,  avg # of iterations =  2.0

     negative rho (up, down):  4.185E-04 0.000E+00

     add environment contribution to local potential

     total cpu time spent up to now is     1313.7 secs

     total energy              =    -661.68005777 Ry
     estimated scf accuracy    <       0.00000111 Ry
     electrostatic embedding   =      -0.03319457 Ry
     cavitation energy         =       0.02447505 Ry
     electrolyte free energy   =      -0.00078863 Ry
     correction to one-el term =       9.95473045 Ry

     iteration # 56     ecut=    80.00 Ry     beta= 0.20
     Davidson diagonalization with overlap

---- Real-time Memory Report at c_bands before calling an iterative solver
          1727 MiB given to the printing process from OS
             0 MiB allocation reported by mallinfo(arena+hblkhd)
[...]
     atom   10 type  1   force =    -0.00003739    0.02007610   -6.76756367
     atom   11 type  1   force =    -0.00000001   -0.01876945   -6.08294692
     atom   12 type  1   force =    -0.00000001    0.02709291   -2.46428488
     atom   13 type  1   force =    -0.00000001   -0.02170683    0.38289713
     atom   14 type  1   force =    -0.00000001    0.02595406    4.06862806
     atom   15 type  1   force =    -0.00013692    0.01878409    6.08308593
     atom   16 type  1   force =     0.00002797   -0.02721516    9.02636305
     atom   17 type  1   force =     0.00000164   -0.02706701    2.46428357
     atom   18 type  1   force =    -0.00000000   -0.01993249    6.76796418
     atom   19 type  1   force =    -0.00000001    0.03255046   10.54597349
     atom   20 type  1   force =    -0.00000001   -0.02083674   13.13971198
     atom   21 type  1   force =    -0.00019213   -0.03010371   12.72140369
     atom   22 type  1   force =    -0.00005267    0.08915385   15.35976041
     atom   23 type  1   force =     0.00000002   -0.05219899   16.07690063
     atom   24 type  1   force =     0.00001113    0.05212706  -16.07698507
     atom   25 type  1   force =     0.00001567    0.02065897  -13.14032638
     atom   26 type  1   force =     0.00000001   -0.08914597  -15.35975872
     atom   27 type  1   force =    -0.00000000    0.03009657  -12.72150003
     atom   28 type  1   force =     0.00000002    0.02720482   -9.02637384
     atom   29 type  1   force =     0.00001631   -0.02584029   -4.06859496
     atom   30 type  1   force =     0.00004808    0.02165923   -0.38312210
     atom   31 type  1   force =     0.00001698   -0.03238419  -10.54590122
     atom   32 type  1   force =     0.00003739    0.02007608   -6.76756368
     atom   33 type  1   force =    -0.00000000   -0.01880298   -6.08322597
     atom   34 type  1   force =     0.00000003    0.02704486   -2.46429003
     atom   35 type  1   force =     0.00000003   -0.02161414    0.38335487
     atom   36 type  1   force =     0.00000003    0.02572917    4.06854931
     atom   37 type  1   force =     0.00013691    0.01878407    6.08308594
     atom   38 type  1   force =    -0.00002798   -0.02721514    9.02636304
     atom   39 type  1   force =    -0.00000165   -0.02706701    2.46428359
     atom   40 type  1   force =    -0.00000001   -0.02021766    6.76718482
     atom   41 type  1   force =     0.00000004    0.03220709   10.54581615
     atom   42 type  1   force =     0.00000004   -0.02046593   13.14098594
     atom   43 type  1   force =     0.00019210   -0.03010371   12.72140368
     atom   44 type  1   force =     0.00005265    0.08915385   15.35976042
     The local contribution  to forces
     atom    1 type  1   force =     0.00000197    0.03996303  -16.19096326
     atom    2 type  1   force =     0.00001720   -0.04002767   16.19086823
     atom    3 type  1   force =     0.00001886   -0.03100480   13.14126781
     atom    4 type  1   force =     0.00000196    0.07972423   15.43103739
     atom    5 type  1   force =     0.00000058   -0.01813253   12.71454897
     atom    6 type  1   force =     0.00000196   -0.02908869    9.01934806
     atom    7 type  1   force =     0.00001925    0.02808200    4.06796348
     atom    8 type  1   force =     0.00005096   -0.02429363    0.37905244
     atom    9 type  1   force =     0.00002045    0.03602831   10.54576632
     atom   10 type  1   force =     0.00004062   -0.02353358    6.76097239
     atom   11 type  1   force =     0.00000058    0.02258312    6.08252834
     atom   12 type  1   force =     0.00000196   -0.02913865    2.46012236
     atom   13 type  1   force =     0.00000196    0.02434299   -0.37882167
     atom   14 type  1   force =     0.00000196   -0.02819811   -4.06799559
     atom   15 type  1   force =     0.00013947   -0.02259822   -6.08266409
     atom   16 type  1   force =    -0.00002442    0.02907601   -9.01933081
     atom   17 type  1   force =     0.00000136    0.02911177   -2.46011835
     atom   18 type  1   force =     0.00000058    0.02338747   -6.76136880
     atom   19 type  1   force =     0.00000196   -0.03619610  -10.54583213
     atom   20 type  1   force =     0.00000196    0.03118510  -13.14064586
     atom   21 type  1   force =     0.00019615    0.01813605  -12.71464015
     atom   22 type  1   force =     0.00004949   -0.07973321  -15.43100984
     atom   23 type  1   force =     0.00000336    0.04010706  -16.19077518
     atom   24 type  1   force =    -0.00001326   -0.04002825   16.19086823
     atom   25 type  1   force =    -0.00001493   -0.03100480   13.14126721
     atom   26 type  1   force =     0.00000335    0.07972555   15.43101512
     atom   27 type  1   force =     0.00000196   -0.01812856   12.71474074
     atom   28 type  1   force =     0.00000334   -0.02906525    9.01934722
     atom   29 type  1   force =    -0.00001533    0.02808200    4.06796348
     atom   30 type  1   force =    -0.00004704   -0.02429363    0.37905244
     atom   31 type  1   force =    -0.00001594    0.03602831   10.54576632
     atom   32 type  1   force =    -0.00003670   -0.02353358    6.76097239
     atom   33 type  1   force =     0.00000196    0.02261737    6.08280880
     atom   34 type  1   force =     0.00000334   -0.02908892    2.46013042
     atom   35 type  1   force =     0.00000334    0.02424705   -0.37928297
     atom   36 type  1   force =     0.00000334   -0.02796833   -4.06791036
     atom   37 type  1   force =    -0.00013555   -0.02259822   -6.08266409
     atom   38 type  1   force =     0.00002834    0.02907601   -9.01933081
     atom   39 type  1   force =     0.00000314    0.02911177   -2.46011835
     atom   40 type  1   force =     0.00000196    0.02367764   -6.76058957
     atom   41 type  1   force =     0.00000334   -0.03584952  -10.54567875
     atom   42 type  1   force =     0.00000334    0.03080837  -13.14192653
     atom   43 type  1   force =    -0.00019224    0.01813605  -12.71464015
     atom   44 type  1   force =    -0.00004556   -0.07973321  -15.43100984
     The core correction contribution to forces
     atom    1 type  1   force =     0.00000000    0.00000000    0.00000000
     atom    2 type  1   force =     0.00000000    0.00000000    0.00000000
     atom    3 type  1   force =     0.00000000    0.00000000    0.00000000
     atom    4 type  1   force =     0.00000000    0.00000000    0.00000000
     atom    5 type  1   force =     0.00000000    0.00000000    0.00000000
     atom    6 type  1   force =     0.00000000    0.00000000    0.00000000
     atom    7 type  1   force =     0.00000000    0.00000000    0.00000000
     atom    8 type  1   force =     0.00000000    0.00000000    0.00000000
     atom    9 type  1   force =     0.00000000    0.00000000    0.00000000
     atom   10 type  1   force =     0.00000000    0.00000000    0.00000000
     atom   11 type  1   force =     0.00000000    0.00000000    0.00000000
     atom   12 type  1   force =     0.00000000    0.00000000    0.00000000
     atom   13 type  1   force =     0.00000000    0.00000000    0.00000000
     atom   14 type  1   force =     0.00000000    0.00000000    0.00000000
     atom   15 type  1   force =     0.00000000    0.00000000    0.00000000
     atom   16 type  1   force =     0.00000000    0.00000000    0.00000000
     atom   17 type  1   force =     0.00000000    0.00000000    0.00000000
     atom   18 type  1   force =     0.00000000    0.00000000    0.00000000
     atom   19 type  1   force =     0.00000000    0.00000000    0.00000000
     atom   20 type  1   force =     0.00000000    0.00000000    0.00000000
     atom   21 type  1   force =     0.00000000    0.00000000    0.00000000
     atom   22 type  1   force =     0.00000000    0.00000000    0.00000000
     atom   23 type  1   force =     0.00000000    0.00000000    0.00000000
     atom   24 type  1   force =     0.00000000    0.00000000    0.00000000
     atom   25 type  1   force =     0.00000000    0.00000000    0.00000000
     atom   26 type  1   force =     0.00000000    0.00000000    0.00000000
     atom   27 type  1   force =     0.00000000    0.00000000    0.00000000
     atom   28 type  1   force =     0.00000000    0.00000000    0.00000000
     atom   29 type  1   force =     0.00000000    0.00000000    0.00000000
     atom   30 type  1   force =     0.00000000    0.00000000    0.00000000
     atom   31 type  1   force =     0.00000000    0.00000000    0.00000000
     atom   32 type  1   force =     0.00000000    0.00000000    0.00000000
     atom   33 type  1   force =     0.00000000    0.00000000    0.00000000
     atom   34 type  1   force =     0.00000000    0.00000000    0.00000000
     atom   35 type  1   force =     0.00000000    0.00000000    0.00000000
     atom   36 type  1   force =     0.00000000    0.00000000    0.00000000
     atom   37 type  1   force =     0.00000000    0.00000000    0.00000000
     atom   38 type  1   force =     0.00000000    0.00000000    0.00000000
     atom   39 type  1   force =     0.00000000    0.00000000    0.00000000
     atom   40 type  1   force =     0.00000000    0.00000000    0.00000000
     atom   41 type  1   force =     0.00000000    0.00000000    0.00000000
     atom   42 type  1   force =     0.00000000    0.00000000    0.00000000
     atom   43 type  1   force =     0.00000000    0.00000000    0.00000000
     atom   44 type  1   force =     0.00000000    0.00000000    0.00000000
     The Hubbard contrib.    to forces
     atom    1 type  1   force =     0.00000000    0.00000000    0.00000000
     atom    2 type  1   force =     0.00000000    0.00000000    0.00000000
     atom    3 type  1   force =     0.00000000    0.00000000    0.00000000
     atom    4 type  1   force =     0.00000000    0.00000000    0.00000000
     atom    5 type  1   force =     0.00000000    0.00000000    0.00000000
     atom    6 type  1   force =     0.00000000    0.00000000    0.00000000
     atom    7 type  1   force =     0.00000000    0.00000000    0.00000000
     atom    8 type  1   force =     0.00000000    0.00000000    0.00000000
     atom    9 type  1   force =     0.00000000    0.00000000    0.00000000
     atom   10 type  1   force =     0.00000000    0.00000000    0.00000000
     atom   11 type  1   force =     0.00000000    0.00000000    0.00000000
     atom   12 type  1   force =     0.00000000    0.00000000    0.00000000
     atom   13 type  1   force =     0.00000000    0.00000000    0.00000000
     atom   14 type  1   force =     0.00000000    0.00000000    0.00000000
     atom   15 type  1   force =     0.00000000    0.00000000    0.00000000
     atom   16 type  1   force =     0.00000000    0.00000000    0.00000000
     atom   17 type  1   force =     0.00000000    0.00000000    0.00000000
     atom   18 type  1   force =     0.00000000    0.00000000    0.00000000
     atom   19 type  1   force =     0.00000000    0.00000000    0.00000000
     atom   20 type  1   force =     0.00000000    0.00000000    0.00000000
     atom   21 type  1   force =     0.00000000    0.00000000    0.00000000
     atom   22 type  1   force =     0.00000000    0.00000000    0.00000000
     atom   23 type  1   force =     0.00000000    0.00000000    0.00000000
     atom   24 type  1   force =     0.00000000    0.00000000    0.00000000
     atom   25 type  1   force =     0.00000000    0.00000000    0.00000000
     atom   26 type  1   force =     0.00000000    0.00000000    0.00000000
     atom   27 type  1   force =     0.00000000    0.00000000    0.00000000
     atom   28 type  1   force =     0.00000000    0.00000000    0.00000000
     atom   29 type  1   force =     0.00000000    0.00000000    0.00000000
     atom   30 type  1   force =     0.00000000    0.00000000    0.00000000
     atom   31 type  1   force =     0.00000000    0.00000000    0.00000000
     atom   32 type  1   force =     0.00000000    0.00000000    0.00000000
     atom   33 type  1   force =     0.00000000    0.00000000    0.00000000
     atom   34 type  1   force =     0.00000000    0.00000000    0.00000000
     atom   35 type  1   force =     0.00000000    0.00000000    0.00000000
     atom   36 type  1   force =     0.00000000    0.00000000    0.00000000
     atom   37 type  1   force =     0.00000000    0.00000000    0.00000000
     atom   38 type  1   force =     0.00000000    0.00000000    0.00000000
     atom   39 type  1   force =     0.00000000    0.00000000    0.00000000
     atom   40 type  1   force =     0.00000000    0.00000000    0.00000000
     atom   41 type  1   force =     0.00000000    0.00000000    0.00000000
     atom   42 type  1   force =     0.00000000    0.00000000    0.00000000
     atom   43 type  1   force =     0.00000000    0.00000000    0.00000000
     atom   44 type  1   force =     0.00000000    0.00000000    0.00000000
     The SCF correction term to forces
     atom    1 type  1   force =     0.00000000    0.00000001    0.00000001
     atom    2 type  1   force =    -0.00000000   -0.00000001   -0.00000002
     atom    3 type  1   force =    -0.00000001    0.00000001   -0.00000002
     atom    4 type  1   force =    -0.00000000    0.00000001   -0.00000001
     atom    5 type  1   force =     0.00000000   -0.00000001   -0.00000001
     atom    6 type  1   force =    -0.00000000   -0.00000001   -0.00000001
     atom    7 type  1   force =    -0.00000000    0.00000000   -0.00000001
     atom    8 type  1   force =    -0.00000000    0.00000000   -0.00000001
     atom    9 type  1   force =    -0.00000001    0.00000000    0.00000000
     atom   10 type  1   force =    -0.00000000   -0.00000001    0.00000000
     atom   11 type  1   force =    -0.00000000    0.00000001    0.00000000
     atom   12 type  1   force =    -0.00000000   -0.00000000   -0.00000001
     atom   13 type  1   force =    -0.00000000   -0.00000000   -0.00000001
     atom   14 type  1   force =    -0.00000000   -0.00000000   -0.00000002
     atom   15 type  1   force =    -0.00000000   -0.00000000   -0.00000002
     atom   16 type  1   force =     0.00000000    0.00000001   -0.00000002
     atom   17 type  1   force =    -0.00000000    0.00000000   -0.00000001
     atom   18 type  1   force =    -0.00000000    0.00000000   -0.00000003
     atom   19 type  1   force =    -0.00000000   -0.00000000   -0.00000002
     atom   20 type  1   force =     0.00000000   -0.00000001   -0.00000000
     atom   21 type  1   force =     0.00000000    0.00000001   -0.00000001
     atom   22 type  1   force =     0.00000000   -0.00000001   -0.00000001
     atom   23 type  1   force =     0.00000000    0.00000001    0.00000002
     atom   24 type  1   force =     0.00000000   -0.00000001   -0.00000002
     atom   25 type  1   force =     0.00000001    0.00000001   -0.00000002
     atom   26 type  1   force =     0.00000000    0.00000001   -0.00000001
     atom   27 type  1   force =    -0.00000000   -0.00000000   -0.00000002
     atom   28 type  1   force =    -0.00000000   -0.00000001   -0.00000001
     atom   29 type  1   force =     0.00000000    0.00000000   -0.00000001
     atom   30 type  1   force =     0.00000000    0.00000000   -0.00000001
     atom   31 type  1   force =     0.00000001    0.00000000    0.00000000
     atom   32 type  1   force =     0.00000000   -0.00000001    0.00000000
     atom   33 type  1   force =    -0.00000000    0.00000001    0.00000001
     atom   34 type  1   force =    -0.00000000    0.00000000   -0.00000002
     atom   35 type  1   force =     0.00000000   -0.00000000   -0.00000001
     atom   36 type  1   force =     0.00000000   -0.00000000   -0.00000002
     atom   37 type  1   force =     0.00000000   -0.00000000   -0.00000002
     atom   38 type  1   force =    -0.00000000    0.00000001   -0.00000001
     atom   39 type  1   force =     0.00000000    0.00000000   -0.00000001
     atom   40 type  1   force =     0.00000000    0.00000001   -0.00000003
     atom   41 type  1   force =    -0.00000000   -0.00000000   -0.00000002
     atom   42 type  1   force =    -0.00000000   -0.00000001    0.00000000
     atom   43 type  1   force =    -0.00000000    0.00000001   -0.00000001
     atom   44 type  1   force =    -0.00000000   -0.00000001   -0.00000001

     Total force =     0.000243     Total SCF correction =     0.000000
     Message from routine punch:
     Nothing written, as per user request (disk_io='none')
 
     init_run     :     11.38s CPU     12.20s WALL (       1 calls)
     electrons    :   2673.97s CPU   2706.34s WALL (       1 calls)
     forces       :     16.77s CPU     16.95s WALL (       1 calls)

     Called by init_run:
     wfcinit      :      4.89s CPU      5.11s WALL (       1 calls)
     wfcinit:wfcr :      4.59s CPU      4.80s WALL (      28 calls)
     potinit      :      0.08s CPU      0.13s WALL (       1 calls)
     hinit0       :      1.91s CPU      2.30s WALL (       1 calls)

     Called by electrons:
     c_bands      :   1963.04s CPU   1981.29s WALL (     141 calls)
     sum_band     :    302.47s CPU    308.95s WALL (     141 calls)
     v_of_rho     :      8.25s CPU      8.56s WALL (     142 calls)
     v_h          :      0.76s CPU      0.77s WALL (     142 calls)
     v_xc         :      7.48s CPU      7.79s WALL (     142 calls)
     newd         :      6.77s CPU      9.61s WALL (     142 calls)
     PAW_pot      :      1.88s CPU      1.94s WALL (     142 calls)
     mix_rho      :     26.56s CPU     27.06s WALL (     141 calls)

     Called by c_bands:
     init_us_2    :     55.85s CPU     56.43s WALL (    7952 calls)
     cegterg      :   1902.55s CPU   1919.68s WALL (    3954 calls)

     Called by sum_band:
     sum_band:wei :      0.33s CPU      0.37s WALL (     141 calls)
     sum_band:loo :    292.52s CPU    295.36s WALL (     141 calls)
     sum_band:buf :      5.88s CPU      5.95s WALL (    3948 calls)
     sum_band:ini :     26.09s CPU     26.34s WALL (    3948 calls)
     sum_band:cal :     68.24s CPU     68.83s WALL (    3948 calls)
     sum_band:bec :      2.37s CPU      2.41s WALL (    3948 calls)
     addusdens    :      7.18s CPU     10.70s WALL (     141 calls)
                                        0.00s GPU  (     141 calls)
     addusd:skk   :      1.44s CPU      2.74s WALL (     141 calls)
                                        0.00s GPU  (     141 calls)

     Called by *egterg:
     cdiaghg      :    221.43s CPU    222.77s WALL (   22693 calls)
     cegterg:over :    113.81s CPU    114.74s WALL (   18739 calls)
     cegterg:upda :     72.28s CPU     73.12s WALL (   18739 calls)
     cegterg:last :    100.53s CPU    101.29s WALL (    6942 calls)
     h_psi        :   1174.65s CPU   1185.74s WALL (   22721 calls)
     s_psi        :    150.47s CPU    151.70s WALL (   22721 calls)
     g_psi        :      0.87s CPU      0.87s WALL (   18739 calls)

     Called by h_psi:
     h_psi:calbec :    197.13s CPU    199.08s WALL (   22721 calls)
     vloc_psi     :    791.35s CPU    798.89s WALL (   22721 calls)
                                        0.00s GPU  (   22721 calls)
     add_vuspsi   :    177.92s CPU    179.31s WALL (   22721 calls)

     General routines
     calbec       :    266.92s CPU    269.55s WALL (   26781 calls)
     fft          :      7.30s CPU      7.41s WALL (    1846 calls)
     ffts         :     16.91s CPU     17.12s WALL (   17503 calls)
     fftw         :    924.72s CPU    933.84s WALL ( 2153548 calls)
     interpolate  :      0.65s CPU      0.66s WALL (     142 calls)
 
     Parallel routines

     PAW routines
     PAW_pot      :      1.88s CPU      1.94s WALL (     142 calls)
     PAW_symme    :      0.02s CPU      0.02s WALL (     283 calls)
 
     Environ routines
 
     PWSCF        :  45m 2.47s CPU  45m36.37s WALL

 
   This run was terminated on:  12:12:24  28Dec2024            

=------------------------------------------------------------------------------=
   JOB DONE.
=------------------------------------------------------------------------------=
