
     Program PWSCF v.7.4 starts on 20Jan2025 at  4:25:33 

     This program is part of the open-source Quantum ESPRESSO suite
     for quantum simulation of materials; please cite
         "P. Giannozzi et al., J. Phys.:Condens. Matter 21 395502 (2009);
         "P. Giannozzi et al., J. Phys.:Condens. Matter 29 465901 (2017);
         "P. Giannozzi et al., J. Chem. Phys. 152 154105 (2020);
          URL http://www.quantum-espresso.org", 
     in publications or presentations arising from this work. More details at
     http://www.quantum-espresso.org/quote

     Parallel version (MPI & OpenMP), running on     512 processor cores
     Number of MPI processes:               512
     Threads/MPI process:                     1

     MPI processes distributed on     4 nodes
     491199 MiB available memory on the printing compute node when the environment starts

     Reading input from espresso.pwi
Warning: card &CELL ignored
Warning: card    PRESS_CONV_THR   = 0.1 ignored
Warning: card    CELL_DOFREE      = 'ALL' ignored
Warning: card / ignored
Warning: card &FCP ignored
Warning: card / ignored
Warning: card &RISM ignored
Warning: card / ignored

     Current dimensions of program PWSCF are:
     Max number of different atomic species (ntypx) = 10
     Max number of k-points (npk) =  40000
     Max angular momentum in pseudopotentials (lmaxx) =  4

     IMPORTANT: XC functional enforced from input :
     Exchange-correlation= PBE
                           (   1   4   3   4   0   0   0)
     Any further DFT definition will be discarded
     Please, verify this is what you really want


     Reading input from environ.in:
     * using ionic solvent mode
     * setting boundary derivatives method to SSCS default
     * setting electrolyte-boundary derivatives method to SSCS default

Environ Warning (1001): card EOF ignored

     

     K-points division:     npool     =       2
     R & G space division:  proc/nbgrp/npool/nimage =     256
     Subspace diagonalization in iterative solution of the eigenvalue problem:
     a serial algorithm will be used


     Parallelization info
     --------------------
     sticks:   dense  smooth     PW     G-vecs:    dense   smooth      PW
     Min          49      19      5                30863     7773    1061
     Max          50      20      6                30904     7852    1116
     Sum       12597    5037   1349              7904519  1999739  278317

     Using Slab Decomposition



     bravais-lattice index     =            8
     lattice parameter (alat)  =      18.3607  a.u.
     unit-cell volume          =   20684.8735 (a.u.)^3
     number of atoms/cell      =           44
     number of atomic types    =            1
     number of electrons       =       132.00
     number of Kohn-Sham states=           99
     kinetic-energy cutoff     =      80.0000  Ry
     charge density cutoff     =     800.0000  Ry
     scf convergence threshold =      1.0E-16
     mixing beta               =       0.2000
     number of iterations used =            8  local-TF  mixing
     Exchange-correlation= PBE
                           (   1   4   3   4   0   0   0)

     ================================================================================

                                  Environ Setup Summary

     ================================================================================

     Please cite

          O. Andreussi, I. Dabo and N. Marzari, J. Chem. Phys. 136, 064102 (2012)
          F. Nattino, M. Truscott, N. Marzari, and O. Andreussi, J. Chem. Phys. 150, 041722 (2019)

     in publications or presentations arising from this work.

     ================================================================================

     Parameters
     ==========

     compensation onset threshold      =               0.1000E+00
     static permittivity               =                    89.90
     surface tension in input (dyn/cm) =                    37.30
     surface tension in internal units =               0.4792E-04

     Solvent Boundary
     ================

     solvent mode                      =                    ionic
     derivatives method                =                   lowmem
     electrolyte derivatives method    =                   lowmem
     numerical core for derivatives    =                      fft
     switching function adopted        =                     SCCS
     density limit for vacuum region   =               0.5000E-02
     density limit for bulk solvent    =               0.1000E-03
     soft-sphere radius mode           =                    bondi
     soft-sphere softness              =                     0.50
     alpha                             =                     1.32

     Electrostatic Setup
     ===================

     electrostatic problem to solve    =                    modpb
     numerical solver adopted          =                   newton
     type of auxiliary density adopted =                     none
     numerical core for poisson        =                      fft
     adopting a nested solver scheme
     inner solver                      =                       cg
     inner core                        =                      fft
     type of pbc corrections           =                parabolic
     numerical core for corrections    =                      1da

     ================================================================================


     >>>>> Grand-Canonical SCF is activated <<<<<
     Initial Total Charge  =     0.000000 e
     Target Fermi Energy   =    -4.904000 eV
     Thr. of Fermi Energy  =     0.001000 eV
     Wave-shift of Kerker  =     0.400000 bohr^-1
     Wave-shift of Hartree =     1.500000 bohr^-1
     Mixing Rate of Fermi  =     0.050000

     celldm(1)=  18.360747  celldm(2)=   0.586302  celldm(3)=   5.699811
     celldm(4)=   0.000000  celldm(5)=   0.000000  celldm(6)=   0.000000

     crystal axes: (cart. coord. in units of alat)
               a(1) = (   1.000000   0.000000   0.000000 )  
               a(2) = (   0.000000   0.586302   0.000000 )  
               a(3) = (   0.000000   0.000000   5.699811 )  

     reciprocal axes: (cart. coord. in units 2 pi/alat)
               b(1) = (  1.000000  0.000000  0.000000 )  
               b(2) = (  0.000000  1.705606  0.000000 )  
               b(3) = (  0.000000  0.000000  0.175444 )  


     PseudoPot. # 1 for Li read from file:
     /work/e89/e89/ba3g18/Repos/Pseudopotentials/Pslibrary/Li.pbe-sl-kjpaw_psl.1.0.0.UPF
     MD5 check sum: 3f4d2cafebb47c6c3aa8ed472e6f074d
     Pseudo is Projector augmented-wave, Zval =  3.0
     Generated using 'atomic' code by A. Dal Corso  v.7.4
     Shape of augmentation charge: PSQ
     Using radial grid of 1017 points,  4 beta functions with: 
                l(1) =   0
                l(2) =   0
                l(3) =   1
                l(4) =   1
     Q(r) pseudized with 0 coefficients 


     atomic species   valence    mass     pseudopotential
     Li                3.00     6.94000     Li( 1.00)

      2 Sym. Ops. (no inversion) found


                                    s                        frac. trans.

      isym =  1     identity                                     

 cryst.   s( 1) = (     1          0          0      )
                  (     0          1          0      )
                  (     0          0          1      )

 cart.    s( 1) = (  1.0000000  0.0000000  0.0000000 )
                  (  0.0000000  1.0000000  0.0000000 )
                  (  0.0000000  0.0000000  1.0000000 )


      isym =  2     inv. 180 deg rotation - cart. axis [1,0,0]   

 cryst.   s( 2) = (    -1          0          0      )
                  (     0          1          0      )
                  (     0          0          1      )

 cart.    s( 2) = ( -1.0000000  0.0000000  0.0000000 )
                  (  0.0000000  1.0000000  0.0000000 )
                  (  0.0000000  0.0000000  1.0000000 )


     point group C_s (m)    
     there are  2 classes
     the character table:

       E     s    
A'     1.00  1.00
A''    1.00 -1.00

     the symmetry operations in each class and the name of the first element:

     E        1
          identity                                               
     s        2
          inv. 180 deg rotation - cart. axis [1,0,0]             

   Cartesian axes

     site n.     atom                  positions (alat units)
         1        Li     tau(   1) = (   0.5000000   0.5316186   3.7167662  )
         2        Li     tau(   2) = (   0.2500053   0.4809396   1.9830272  )
         3        Li     tau(   3) = (   0.2500043   0.0962070   2.2567782  )
         4        Li     tau(   4) = (   0.5000000   0.2219521   2.0940360  )
         5        Li     tau(   5) = (  -0.0000000   0.5056859   2.2600577  )
         6        Li     tau(   6) = (   0.5000000   0.1942794   2.4182425  )
         7        Li     tau(   7) = (   0.2500060   0.3214925   2.6539933  )
         8        Li     tau(   8) = (   0.2499980   0.5870728   2.8368915  )
         9        Li     tau(   9) = (   0.2500016   0.3767268   2.3425177  )
        10        Li     tau(  10) = (   0.2499973   0.0439185   2.5373008  )
        11        Li     tau(  11) = (  -0.0000000   0.4676910   2.5622375  )
        12        Li     tau(  12) = (   0.5000000   0.1485497   2.7332640  )
        13        Li     tau(  13) = (   0.5000000   0.4256394   2.8628856  )
        14        Li     tau(  14) = (   0.5000000   0.1049076   3.0458327  )
        15        Li     tau(  15) = (   0.2499974   0.5450072   3.1375948  )
        16        Li     tau(  16) = (   0.2500004   0.2321188   3.2815712  )
        17        Li     tau(  17) = (   0.2500060   0.2778476   2.9665573  )
        18        Li     tau(  18) = (  -0.0000000   0.3824652   3.1625556  )
        19        Li     tau(  19) = (   0.5000000   0.0497122   3.3573274  )
        20        Li     tau(  20) = (   0.5000000   0.3302614   3.4429500  )
        21        Li     tau(  21) = (   0.2499901   0.5070219   3.4397669  )
        22        Li     tau(  22) = (   0.2501597   0.2044533   3.6057548  )
        23        Li     tau(  23) = (   1.0000000   0.5318881   3.7167475  )
        24        Li     tau(  24) = (   0.7499947   0.4809396   1.9830272  )
        25        Li     tau(  25) = (   0.7499957   0.0962070   2.2567782  )
        26        Li     tau(  26) = (   1.0000000   0.2219532   2.0940401  )
        27        Li     tau(  27) = (   0.5000000   0.5056776   2.2600354  )
        28        Li     tau(  28) = (   1.0000000   0.1942870   2.4182334  )
        29        Li     tau(  29) = (   0.7499940   0.3214925   2.6539933  )
        30        Li     tau(  30) = (   0.7500020   0.5870728   2.8368915  )
        31        Li     tau(  31) = (   0.7499984   0.3767268   2.3425177  )
        32        Li     tau(  32) = (   0.7500027   0.0439185   2.5373008  )
        33        Li     tau(  33) = (   0.5000000   0.4677004   2.5622022  )
        34        Li     tau(  34) = (   1.0000000   0.1485588   2.7332425  )
        35        Li     tau(  35) = (   1.0000000   0.4256205   2.8629570  )
        36        Li     tau(  36) = (   1.0000000   0.1049090   3.0458022  )
        37        Li     tau(  37) = (   0.7500026   0.5450072   3.1375948  )
        38        Li     tau(  38) = (   0.7499996   0.2321188   3.2815712  )
        39        Li     tau(  39) = (   0.7499940   0.2778476   2.9665573  )
        40        Li     tau(  40) = (   0.5000000   0.3825038   3.1624376  )
        41        Li     tau(  41) = (   1.0000000   0.0496550   3.3572632  )
        42        Li     tau(  42) = (   1.0000000   0.3301199   3.4431454  )
        43        Li     tau(  43) = (   0.7500099   0.5070219   3.4397669  )
        44        Li     tau(  44) = (   0.7498403   0.2044533   3.6057548  )

   Crystallographic axes

     site n.     atom                  positions (cryst. coord.)
         1        Li     tau(   1) = (  0.5000000  0.9067317  0.6520859  )
         2        Li     tau(   2) = (  0.2500053  0.8202933  0.3479110  )
         3        Li     tau(   3) = (  0.2500043  0.1640913  0.3959391  )
         4        Li     tau(   4) = (  0.5000000  0.3785627  0.3673869  )
         5        Li     tau(   5) = (  0.0000000  0.8625007  0.3965145  )
         6        Li     tau(   6) = (  0.5000000  0.3313640  0.4242671  )
         7        Li     tau(   7) = (  0.2500060  0.5483394  0.4656283  )
         8        Li     tau(   8) = (  0.2499980  1.0013148  0.4977168  )
         9        Li     tau(   9) = (  0.2500016  0.6425473  0.4109816  )
        10        Li     tau(  10) = (  0.2499973  0.0749077  0.4451553  )
        11        Li     tau(  11) = (  0.0000000  0.7976965  0.4495302  )
        12        Li     tau(  12) = (  0.5000000  0.2533672  0.4795359  )
        13        Li     tau(  13) = (  0.5000000  0.7259730  0.5022773  )
        14        Li     tau(  14) = (  0.5000000  0.1789310  0.5343743  )
        15        Li     tau(  15) = (  0.2499974  0.9295673  0.5504735  )
        16        Li     tau(  16) = (  0.2500004  0.3959032  0.5757333  )
        17        Li     tau(  17) = (  0.2500060  0.4738984  0.5204659  )
        18        Li     tau(  18) = (  0.0000000  0.6523348  0.5548527  )
        19        Li     tau(  19) = (  0.5000000  0.0847894  0.5890243  )
        20        Li     tau(  20) = (  0.5000000  0.5632956  0.6040463  )
        21        Li     tau(  21) = (  0.2499901  0.8647795  0.6034879  )
        22        Li     tau(  22) = (  0.2501597  0.3487167  0.6326095  )
        23        Li     tau(  23) = (  1.0000000  0.9071914  0.6520826  )
        24        Li     tau(  24) = (  0.7499947  0.8202933  0.3479110  )
        25        Li     tau(  25) = (  0.7499957  0.1640913  0.3959391  )
        26        Li     tau(  26) = (  1.0000000  0.3785646  0.3673876  )
        27        Li     tau(  27) = (  0.5000000  0.8624865  0.3965106  )
        28        Li     tau(  28) = (  1.0000000  0.3313769  0.4242655  )
        29        Li     tau(  29) = (  0.7499940  0.5483394  0.4656283  )
        30        Li     tau(  30) = (  0.7500020  1.0013148  0.4977168  )
        31        Li     tau(  31) = (  0.7499984  0.6425473  0.4109816  )
        32        Li     tau(  32) = (  0.7500027  0.0749077  0.4451553  )
        33        Li     tau(  33) = (  0.5000000  0.7977124  0.4495241  )
        34        Li     tau(  34) = (  1.0000000  0.2533828  0.4795321  )
        35        Li     tau(  35) = (  1.0000000  0.7259407  0.5022898  )
        36        Li     tau(  36) = (  1.0000000  0.1789334  0.5343690  )
        37        Li     tau(  37) = (  0.7500026  0.9295673  0.5504735  )
        38        Li     tau(  38) = (  0.7499996  0.3959032  0.5757333  )
        39        Li     tau(  39) = (  0.7499940  0.4738984  0.5204659  )
        40        Li     tau(  40) = (  0.5000000  0.6524007  0.5548320  )
        41        Li     tau(  41) = (  1.0000000  0.0846919  0.5890131  )
        42        Li     tau(  42) = (  1.0000000  0.5630544  0.6040806  )
        43        Li     tau(  43) = (  0.7500099  0.8647795  0.6034879  )
        44        Li     tau(  44) = (  0.7498403  0.3487167  0.6326095  )

     number of k points=    28  Marzari-Vanderbilt smearing, width (Ry)=  0.0100
                       cart. coord. in units 2pi/alat
        k(    1) = (   0.0000000   0.0000000   0.0000000), wk =   0.0238095
        k(    2) = (   0.0000000   0.1421338   0.0000000), wk =   0.0476190
        k(    3) = (   0.0000000   0.2842676   0.0000000), wk =   0.0476190
        k(    4) = (   0.0000000   0.4264014   0.0000000), wk =   0.0476190
        k(    5) = (   0.0000000   0.5685352   0.0000000), wk =   0.0476190
        k(    6) = (   0.0000000   0.7106690   0.0000000), wk =   0.0476190
        k(    7) = (   0.0000000  -0.8528028   0.0000000), wk =   0.0238095
        k(    8) = (   0.1428571   0.0000000   0.0000000), wk =   0.0476190
        k(    9) = (   0.1428571   0.1421338   0.0000000), wk =   0.0952381
        k(   10) = (   0.1428571   0.2842676   0.0000000), wk =   0.0952381
        k(   11) = (   0.1428571   0.4264014   0.0000000), wk =   0.0952381
        k(   12) = (   0.1428571   0.5685352   0.0000000), wk =   0.0952381
        k(   13) = (   0.1428571   0.7106690   0.0000000), wk =   0.0952381
        k(   14) = (   0.1428571  -0.8528028   0.0000000), wk =   0.0476190
        k(   15) = (   0.2857143   0.0000000   0.0000000), wk =   0.0476190
        k(   16) = (   0.2857143   0.1421338   0.0000000), wk =   0.0952381
        k(   17) = (   0.2857143   0.2842676   0.0000000), wk =   0.0952381
        k(   18) = (   0.2857143   0.4264014   0.0000000), wk =   0.0952381
        k(   19) = (   0.2857143   0.5685352   0.0000000), wk =   0.0952381
        k(   20) = (   0.2857143   0.7106690   0.0000000), wk =   0.0952381
        k(   21) = (   0.2857143  -0.8528028   0.0000000), wk =   0.0476190
        k(   22) = (   0.4285714   0.0000000   0.0000000), wk =   0.0476190
        k(   23) = (   0.4285714   0.1421338   0.0000000), wk =   0.0952381
        k(   24) = (   0.4285714   0.2842676   0.0000000), wk =   0.0952381
        k(   25) = (   0.4285714   0.4264014   0.0000000), wk =   0.0952381
        k(   26) = (   0.4285714   0.5685352   0.0000000), wk =   0.0952381
        k(   27) = (   0.4285714   0.7106690   0.0000000), wk =   0.0952381
        k(   28) = (   0.4285714  -0.8528028   0.0000000), wk =   0.0476190

                       cryst. coord.
        k(    1) = (   0.0000000   0.0000000   0.0000000), wk =   0.0238095
        k(    2) = (   0.0000000   0.0833333   0.0000000), wk =   0.0476190
        k(    3) = (   0.0000000   0.1666667   0.0000000), wk =   0.0476190
        k(    4) = (   0.0000000   0.2500000   0.0000000), wk =   0.0476190
        k(    5) = (   0.0000000   0.3333333   0.0000000), wk =   0.0476190
        k(    6) = (   0.0000000   0.4166667   0.0000000), wk =   0.0476190
        k(    7) = (   0.0000000  -0.5000000   0.0000000), wk =   0.0238095
        k(    8) = (   0.1428571   0.0000000   0.0000000), wk =   0.0476190
        k(    9) = (   0.1428571   0.0833333   0.0000000), wk =   0.0952381
        k(   10) = (   0.1428571   0.1666667   0.0000000), wk =   0.0952381
        k(   11) = (   0.1428571   0.2500000   0.0000000), wk =   0.0952381
        k(   12) = (   0.1428571   0.3333333   0.0000000), wk =   0.0952381
        k(   13) = (   0.1428571   0.4166667   0.0000000), wk =   0.0952381
        k(   14) = (   0.1428571  -0.5000000   0.0000000), wk =   0.0476190
        k(   15) = (   0.2857143   0.0000000   0.0000000), wk =   0.0476190
        k(   16) = (   0.2857143   0.0833333   0.0000000), wk =   0.0952381
        k(   17) = (   0.2857143   0.1666667   0.0000000), wk =   0.0952381
        k(   18) = (   0.2857143   0.2500000   0.0000000), wk =   0.0952381
        k(   19) = (   0.2857143   0.3333333   0.0000000), wk =   0.0952381
        k(   20) = (   0.2857143   0.4166667   0.0000000), wk =   0.0952381
        k(   21) = (   0.2857143  -0.5000000   0.0000000), wk =   0.0476190
        k(   22) = (   0.4285714   0.0000000   0.0000000), wk =   0.0476190
        k(   23) = (   0.4285714   0.0833333   0.0000000), wk =   0.0952381
        k(   24) = (   0.4285714   0.1666667   0.0000000), wk =   0.0952381
        k(   25) = (   0.4285714   0.2500000   0.0000000), wk =   0.0952381
        k(   26) = (   0.4285714   0.3333333   0.0000000), wk =   0.0952381
        k(   27) = (   0.4285714   0.4166667   0.0000000), wk =   0.0952381
        k(   28) = (   0.4285714  -0.5000000   0.0000000), wk =   0.0476190

     Dense  grid:  7904519 G-vectors     FFT dimensions: ( 180, 100, 960)

     Smooth grid:  1999739 G-vectors     FFT dimensions: ( 108,  64, 600)

     Dynamical RAM for                 wfc:       1.47 MB

     Dynamical RAM for     wfc (w. buffer):      22.12 MB

     Dynamical RAM for           str. fact:       0.47 MB

     Dynamical RAM for           local pot:       0.00 MB

     Dynamical RAM for          nlocal pot:       5.24 MB

     Dynamical RAM for                qrad:       0.65 MB

     Dynamical RAM for          rho,v,vnew:       3.06 MB

     Dynamical RAM for               rhoin:       1.02 MB

     Dynamical RAM for            rho*nmix:       7.54 MB

     Dynamical RAM for           G-vectors:       1.83 MB

     Dynamical RAM for          h,s,v(r/c):       7.18 MB

     Dynamical RAM for          <psi|beta>:       0.53 MB

     Dynamical RAM for                 psi:       5.90 MB

     Dynamical RAM for                hpsi:       5.90 MB

     Dynamical RAM for                spsi:       5.90 MB

     Dynamical RAM for      wfcinit/wfcrot:       3.17 MB

     Dynamical RAM for           addusdens:      20.73 MB

     Dynamical RAM for          addusforce:      41.02 MB

     Estimated static dynamical RAM per process >      38.07 MB

     Estimated max dynamical RAM per process >     120.61 MB

     Estimated total dynamical RAM >      41.43 GB

     Initial potential from superposition of free atoms

     starting charge     131.7972, renormalised to     132.0000

     negative rho (up, down):  3.208E-03 0.000E+00
     Starting wfcs are random
     Checking if some PAW data can be deallocated... 

     total cpu time spent up to now is       27.5 secs

     Self-consistent Calculation

     iteration #  1     ecut=    80.00 Ry     beta= 0.20
     Davidson diagonalization with overlap

---- Real-time Memory Report at c_bands before calling an iterative solver
           541 MiB given to the printing process from OS
             0 MiB allocation reported by mallinfo(arena+hblkhd)
        477728 MiB available memory on the node where the printing process lives
------------------
     c_bands:  1 eigenvalues not converged
     c_bands:  1 eigenvalues not converged
     c_bands:  1 eigenvalues not converged
     c_bands:  1 eigenvalues not converged
     c_bands:  1 eigenvalues not converged
     ethr =  1.00E-12,  avg # of iterations =121.2

     negative rho (up, down):  2.388E-03 0.000E+00

     total cpu time spent up to now is      279.9 secs

     total energy              =    -661.40623074 Ry
     estimated scf accuracy    <       0.12828612 Ry

     total charge of GC-SCF    =       0.13883138 e
     the Fermi energy          =      -4.11131180 eV
                        (error :       0.79268820 eV)
     electrostatic embedding   =       0.00000000 Ry
     cavitation energy         =       0.02702467 Ry
     electrolyte free energy   =       0.00890302 Ry
     correction to one-el term =      -0.00000000 Ry

     iteration #  2     ecut=    80.00 Ry     beta= 0.20
     Davidson diagonalization with overlap

---- Real-time Memory Report at c_bands before calling an iterative solver
           541 MiB given to the printing process from OS
             0 MiB allocation reported by mallinfo(arena+hblkhd)
        476158 MiB available memory on the node where the printing process lives
------------------
     ethr =  1.00E-05,  avg # of iterations = 12.5

     negative rho (up, down):  1.887E-03 0.000E+00

     add environment contribution to local potential

     total cpu time spent up to now is      314.8 secs

     total energy              =    -661.85318514 Ry
     estimated scf accuracy    <       0.08272371 Ry

     total charge of GC-SCF    =       0.20623528 e
     the Fermi energy          =      -3.37607117 eV
                        (error :       1.52792883 eV)
     electrostatic embedding   =       0.00139165 Ry
     cavitation energy         =       0.02702467 Ry
     electrolyte free energy   =       0.00890302 Ry
     correction to one-el term =      -0.00000000 Ry

     iteration #  3     ecut=    80.00 Ry     beta= 0.20
     Davidson diagonalization with overlap

---- Real-time Memory Report at c_bands before calling an iterative solver
           541 MiB given to the printing process from OS
             0 MiB allocation reported by mallinfo(arena+hblkhd)
        475979 MiB available memory on the node where the printing process lives
------------------
     ethr =  1.00E-05,  avg # of iterations = 27.2

     negative rho (up, down):  1.468E-03 0.000E+00

     add environment contribution to local potential

     total cpu time spent up to now is      365.5 secs

     total energy              =    -661.77557418 Ry
     estimated scf accuracy    <       0.03117914 Ry

     total charge of GC-SCF    =       0.39460177 e
     the Fermi energy          =      -3.13281490 eV
                        (error :       1.77118510 eV)
     electrostatic embedding   =      -0.02296445 Ry
     cavitation energy         =       0.02702467 Ry
     electrolyte free energy   =      -0.00534389 Ry
     correction to one-el term =      -5.42727273 Ry

     iteration #  4     ecut=    80.00 Ry     beta= 0.20
     Davidson diagonalization with overlap

---- Real-time Memory Report at c_bands before calling an iterative solver
           541 MiB given to the printing process from OS
             0 MiB allocation reported by mallinfo(arena+hblkhd)
        476004 MiB available memory on the node where the printing process lives
------------------
     ethr =  1.00E-05,  avg # of iterations = 16.5

     negative rho (up, down):  1.182E-03 0.000E+00

     add environment contribution to local potential

     total cpu time spent up to now is      407.2 secs

     total energy              =    -661.80337041 Ry
     estimated scf accuracy    <       0.02799799 Ry

     total charge of GC-SCF    =       0.52596933 e
     the Fermi energy          =      -3.63952916 eV
                        (error :       1.26447084 eV)
     electrostatic embedding   =      -0.02327101 Ry
     cavitation energy         =       0.02702467 Ry
     electrolyte free energy   =      -0.00749049 Ry
     correction to one-el term =      -8.96008842 Ry

     iteration #  5     ecut=    80.00 Ry     beta= 0.20
     Davidson diagonalization with overlap

---- Real-time Memory Report at c_bands before calling an iterative solver
           541 MiB given to the printing process from OS
             0 MiB allocation reported by mallinfo(arena+hblkhd)
        475946 MiB available memory on the node where the printing process lives
------------------
     ethr =  1.00E-05,  avg # of iterations = 12.4

     negative rho (up, down):  9.562E-04 0.000E+00

     add environment contribution to local potential

     total cpu time spent up to now is      437.1 secs

     total energy              =    -661.62024792 Ry
     estimated scf accuracy    <       0.01655645 Ry

     total charge of GC-SCF    =       1.17307753 e
     the Fermi energy          =      -3.44948973 eV
                        (error :       1.45451027 eV)
     electrostatic embedding   =      -0.03369052 Ry
     cavitation energy         =       0.02702467 Ry
     electrolyte free energy   =      -0.00681814 Ry
     correction to one-el term =     -12.76401465 Ry

     iteration #  6     ecut=    80.00 Ry     beta= 0.20
     Davidson diagonalization with overlap

---- Real-time Memory Report at c_bands before calling an iterative solver
           541 MiB given to the printing process from OS
             0 MiB allocation reported by mallinfo(arena+hblkhd)
        475942 MiB available memory on the node where the printing process lives
------------------
     ethr =  1.00E-05,  avg # of iterations = 17.0

     negative rho (up, down):  8.609E-04 0.000E+00

     add environment contribution to local potential

     total cpu time spent up to now is      478.9 secs

     total energy              =    -661.70081901 Ry
     estimated scf accuracy    <       0.00568377 Ry

     total charge of GC-SCF    =       2.02166677 e
     the Fermi energy          =      -3.35044781 eV
                        (error :       1.55355219 eV)
     electrostatic embedding   =      -0.15965102 Ry
     cavitation energy         =       0.02702467 Ry
     electrolyte free energy   =      -0.00784914 Ry
     correction to one-el term =     -30.40683231 Ry

     iteration #  7     ecut=    80.00 Ry     beta= 0.20
     Davidson diagonalization with overlap

---- Real-time Memory Report at c_bands before calling an iterative solver
           541 MiB given to the printing process from OS
             0 MiB allocation reported by mallinfo(arena+hblkhd)
        475888 MiB available memory on the node where the printing process lives
------------------
     ethr =  4.37E-06,  avg # of iterations = 22.4

     negative rho (up, down):  8.224E-03 0.000E+00

     add environment contribution to local potential

     total cpu time spent up to now is      529.3 secs

     total energy              =    -661.86662108 Ry
     estimated scf accuracy    <       0.03510862 Ry

     total charge of GC-SCF    =       2.32221746 e
     the Fermi energy          =      -4.22548438 eV
                        (error :       0.67851562 eV)
     electrostatic embedding   =      -0.47564188 Ry
     cavitation energy         =       0.02702467 Ry
     electrolyte free energy   =      -0.01645579 Ry
     correction to one-el term =     -52.19314034 Ry

     iteration #  8     ecut=    80.00 Ry     beta= 0.20
     Davidson diagonalization with overlap

---- Real-time Memory Report at c_bands before calling an iterative solver
           541 MiB given to the printing process from OS
             0 MiB allocation reported by mallinfo(arena+hblkhd)
        475883 MiB available memory on the node where the printing process lives
------------------
     ethr =  4.37E-06,  avg # of iterations = 12.3

     negative rho (up, down):  1.097E-03 0.000E+00

     add environment contribution to local potential

     total cpu time spent up to now is      565.0 secs

     total energy              =    -662.17588737 Ry
     estimated scf accuracy    <       0.00942037 Ry

     total charge of GC-SCF    =       2.04296471 e
     the Fermi energy          =      -4.03407293 eV
                        (error :       0.86992707 eV)
     electrostatic embedding   =      -0.65936130 Ry
     cavitation energy         =       0.02702467 Ry
     electrolyte free energy   =      -0.01964234 Ry
     correction to one-el term =     -61.16409585 Ry

     iteration #  9     ecut=    80.00 Ry     beta= 0.20
     Davidson diagonalization with overlap

---- Real-time Memory Report at c_bands before calling an iterative solver
           541 MiB given to the printing process from OS
             0 MiB allocation reported by mallinfo(arena+hblkhd)
        475798 MiB available memory on the node where the printing process lives
------------------
     ethr =  4.37E-06,  avg # of iterations =  8.7

     negative rho (up, down):  6.333E-03 0.000E+00

     add environment contribution to local potential

     total cpu time spent up to now is      591.9 secs

     total energy              =    -661.79899194 Ry
     estimated scf accuracy    <       0.01452057 Ry

     total charge of GC-SCF    =       2.81230085 e
     the Fermi energy          =      -3.96726972 eV
                        (error :       0.93673028 eV)
     electrostatic embedding   =      -0.49857025 Ry
     cavitation energy         =       0.02702467 Ry
     electrolyte free energy   =      -0.01629802 Ry
     correction to one-el term =     -53.31717303 Ry

     iteration # 10     ecut=    80.00 Ry     beta= 0.20
     Davidson diagonalization with overlap

---- Real-time Memory Report at c_bands before calling an iterative solver
           541 MiB given to the printing process from OS
             0 MiB allocation reported by mallinfo(arena+hblkhd)
        475770 MiB available memory on the node where the printing process lives
------------------
     ethr =  4.37E-06,  avg # of iterations = 15.8

     negative rho (up, down):  2.852E-02 0.000E+00

     add environment contribution to local potential

     total cpu time spent up to now is      636.2 secs

     total energy              =    -661.89826835 Ry
     estimated scf accuracy    <       0.01072507 Ry

     total charge of GC-SCF    =       3.49617255 e
     the Fermi energy          =      -4.43006653 eV
                        (error :       0.47393347 eV)
     electrostatic embedding   =      -0.99130804 Ry
     cavitation energy         =       0.02702467 Ry
     electrolyte free energy   =      -0.02725792 Ry
     correction to one-el term =     -75.66055178 Ry

     iteration # 11     ecut=    80.00 Ry     beta= 0.20
     Davidson diagonalization with overlap

---- Real-time Memory Report at c_bands before calling an iterative solver
           541 MiB given to the printing process from OS
             0 MiB allocation reported by mallinfo(arena+hblkhd)
        475734 MiB available memory on the node where the printing process lives
------------------
     ethr =  4.37E-06,  avg # of iterations = 11.5

     negative rho (up, down):  3.732E-03 0.000E+00

     add environment contribution to local potential

     total cpu time spent up to now is      673.1 secs

     total energy              =    -662.05308838 Ry
     estimated scf accuracy    <       0.00047527 Ry

     total charge of GC-SCF    =       3.35444740 e
     the Fermi energy          =      -4.63302160 eV
                        (error :       0.27097840 eV)
     electrostatic embedding   =      -1.61647374 Ry
     cavitation energy         =       0.02702467 Ry
     electrolyte free energy   =      -0.04029019 Ry
     correction to one-el term =     -97.52095095 Ry

     iteration # 12     ecut=    80.00 Ry     beta= 0.20
     Davidson diagonalization with overlap

---- Real-time Memory Report at c_bands before calling an iterative solver
           541 MiB given to the printing process from OS
             0 MiB allocation reported by mallinfo(arena+hblkhd)
        475694 MiB available memory on the node where the printing process lives
------------------
     ethr =  3.69E-07,  avg # of iterations = 13.3

     negative rho (up, down):  1.238E-02 0.000E+00

     add environment contribution to local potential

     total cpu time spent up to now is      712.2 secs

     total energy              =    -662.03050241 Ry
     estimated scf accuracy    <       0.00042059 Ry

     total charge of GC-SCF    =       3.91435905 e
     the Fermi energy          =      -4.52766081 eV
                        (error :       0.37633919 eV)
     electrostatic embedding   =      -1.50100555 Ry
     cavitation energy         =       0.02702467 Ry
     electrolyte free energy   =      -0.03747922 Ry
     correction to one-el term =     -94.58362262 Ry

     iteration # 13     ecut=    80.00 Ry     beta= 0.20
     Davidson diagonalization with overlap

---- Real-time Memory Report at c_bands before calling an iterative solver
           541 MiB given to the printing process from OS
             0 MiB allocation reported by mallinfo(arena+hblkhd)
        475682 MiB available memory on the node where the printing process lives
------------------
     ethr =  3.28E-07,  avg # of iterations = 34.6

     negative rho (up, down):  6.080E-03 0.000E+00

     add environment contribution to local potential

     total cpu time spent up to now is      781.3 secs

     total energy              =    -662.03710725 Ry
     estimated scf accuracy    <       0.00010750 Ry

     total charge of GC-SCF    =       3.72480153 e
     the Fermi energy          =      -4.96486870 eV
                        (error :       0.06086870 eV)
     electrostatic embedding   =      -2.06981799 Ry
     cavitation energy         =       0.02702467 Ry
     electrolyte free energy   =      -0.05040189 Ry
     correction to one-el term =    -109.99557938 Ry

     iteration # 14     ecut=    80.00 Ry     beta= 0.20
     Davidson diagonalization with overlap

---- Real-time Memory Report at c_bands before calling an iterative solver
           541 MiB given to the printing process from OS
             0 MiB allocation reported by mallinfo(arena+hblkhd)
        475679 MiB available memory on the node where the printing process lives
------------------
     ethr =  8.38E-08,  avg # of iterations = 28.5

     negative rho (up, down):  4.627E-03 0.000E+00

     add environment contribution to local potential

     total cpu time spent up to now is      838.2 secs

     total energy              =    -662.03660624 Ry
     estimated scf accuracy    <       0.00007082 Ry

     total charge of GC-SCF    =       3.73685516 e
     the Fermi energy          =      -4.85063116 eV
                        (error :       0.05336884 eV)
     electrostatic embedding   =      -1.87441861 Ry
     cavitation energy         =       0.02702467 Ry
     electrolyte free energy   =      -0.04567764 Ry
     correction to one-el term =    -105.22015533 Ry

     iteration # 15     ecut=    80.00 Ry     beta= 0.20
     Davidson diagonalization with overlap

---- Real-time Memory Report at c_bands before calling an iterative solver
           541 MiB given to the printing process from OS
             0 MiB allocation reported by mallinfo(arena+hblkhd)
        475643 MiB available memory on the node where the printing process lives
------------------
     ethr =  5.52E-08,  avg # of iterations = 12.0

     negative rho (up, down):  3.611E-04 0.000E+00

     add environment contribution to local potential

     total cpu time spent up to now is      869.7 secs

     total energy              =    -662.03805317 Ry
     estimated scf accuracy    <       0.00006677 Ry

     total charge of GC-SCF    =       3.66541762 e
     the Fermi energy          =      -4.86276847 eV
                        (error :       0.04123153 eV)
     electrostatic embedding   =      -1.88564595 Ry
     cavitation energy         =       0.02702467 Ry
     electrolyte free energy   =      -0.04596358 Ry
     correction to one-el term =    -105.50231740 Ry

     iteration # 16     ecut=    80.00 Ry     beta= 0.20
     Davidson diagonalization with overlap

---- Real-time Memory Report at c_bands before calling an iterative solver
           541 MiB given to the printing process from OS
             0 MiB allocation reported by mallinfo(arena+hblkhd)
        475595 MiB available memory on the node where the printing process lives
------------------
     ethr =  5.20E-08,  avg # of iterations = 17.4

     negative rho (up, down):  8.648E-04 0.000E+00

     add environment contribution to local potential

     total cpu time spent up to now is      912.1 secs

     total energy              =    -662.03626464 Ry
     estimated scf accuracy    <       0.00004372 Ry

     total charge of GC-SCF    =       3.72495545 e
     the Fermi energy          =      -4.81004194 eV
                        (error :       0.09395806 eV)
     electrostatic embedding   =      -1.81171991 Ry
     cavitation energy         =       0.02702467 Ry
     electrolyte free energy   =      -0.04427502 Ry
     correction to one-el term =    -103.59361970 Ry

     iteration # 17     ecut=    80.00 Ry     beta= 0.20
     Davidson diagonalization with overlap

---- Real-time Memory Report at c_bands before calling an iterative solver
           541 MiB given to the printing process from OS
             0 MiB allocation reported by mallinfo(arena+hblkhd)
        475611 MiB available memory on the node where the printing process lives
------------------
     ethr =  3.41E-08,  avg # of iterations = 16.9

     negative rho (up, down):  3.688E-03 0.000E+00

     add environment contribution to local potential

     total cpu time spent up to now is      954.1 secs

     total energy              =    -662.03647820 Ry
     estimated scf accuracy    <       0.00001844 Ry

     total charge of GC-SCF    =       3.77196924 e
     the Fermi energy          =      -4.84483557 eV
                        (error :       0.05916443 eV)
     electrostatic embedding   =      -1.86750082 Ry
     cavitation energy         =       0.02702467 Ry
     electrolyte free energy   =      -0.04565031 Ry
     correction to one-el term =    -104.91396354 Ry

     iteration # 18     ecut=    80.00 Ry     beta= 0.20
     Davidson diagonalization with overlap

---- Real-time Memory Report at c_bands before calling an iterative solver
           541 MiB given to the printing process from OS
             0 MiB allocation reported by mallinfo(arena+hblkhd)
        475648 MiB available memory on the node where the printing process lives
------------------
     ethr =  1.44E-08,  avg # of iterations = 21.7

     negative rho (up, down):  8.393E-04 0.000E+00

     add environment contribution to local potential

     total cpu time spent up to now is     1003.3 secs

     total energy              =    -662.03689036 Ry
     estimated scf accuracy    <       0.00001457 Ry

     total charge of GC-SCF    =       3.75003105 e
     the Fermi energy          =      -4.87701624 eV
                        (error :       0.02698376 eV)
     electrostatic embedding   =      -1.91379077 Ry
     cavitation energy         =       0.02702467 Ry
     electrolyte free energy   =      -0.04677662 Ry
     correction to one-el term =    -106.03783639 Ry

     iteration # 19     ecut=    80.00 Ry     beta= 0.20
     Davidson diagonalization with overlap

---- Real-time Memory Report at c_bands before calling an iterative solver
           541 MiB given to the printing process from OS
             0 MiB allocation reported by mallinfo(arena+hblkhd)
        475638 MiB available memory on the node where the printing process lives
------------------
     ethr =  1.14E-08,  avg # of iterations = 14.9

     negative rho (up, down):  1.038E-03 0.000E+00

     add environment contribution to local potential

     total cpu time spent up to now is     1046.2 secs

     total energy              =    -662.03648940 Ry
     estimated scf accuracy    <       0.00001265 Ry

     total charge of GC-SCF    =       3.80292621 e
     the Fermi energy          =      -4.87023189 eV
                        (error :       0.03376811 eV)
     electrostatic embedding   =      -1.88968438 Ry
     cavitation energy         =       0.02702467 Ry
     electrolyte free energy   =      -0.04623599 Ry
     correction to one-el term =    -105.37697917 Ry

     iteration # 20     ecut=    80.00 Ry     beta= 0.20
     Davidson diagonalization with overlap

---- Real-time Memory Report at c_bands before calling an iterative solver
           541 MiB given to the printing process from OS
             0 MiB allocation reported by mallinfo(arena+hblkhd)
        475617 MiB available memory on the node where the printing process lives
------------------
     ethr =  9.87E-09,  avg # of iterations = 19.4

     negative rho (up, down):  1.559E-03 0.000E+00

     add environment contribution to local potential

     total cpu time spent up to now is     1090.8 secs

     total energy              =    -662.03618645 Ry
     estimated scf accuracy    <       0.00000477 Ry

     total charge of GC-SCF    =       3.79062779 e
     the Fermi energy          =      -4.90119759 eV
                        (error :       0.00280241 eV)
     electrostatic embedding   =      -1.94898357 Ry
     cavitation energy         =       0.02702467 Ry
     electrolyte free energy   =      -0.04755368 Ry
     correction to one-el term =    -107.00200171 Ry

     iteration # 21     ecut=    80.00 Ry     beta= 0.20
     Davidson diagonalization with overlap

---- Real-time Memory Report at c_bands before calling an iterative solver
           541 MiB given to the printing process from OS
             0 MiB allocation reported by mallinfo(arena+hblkhd)
        475636 MiB available memory on the node where the printing process lives
------------------
     ethr =  3.72E-09,  avg # of iterations = 16.4

     negative rho (up, down):  5.285E-04 0.000E+00

     add environment contribution to local potential

     total cpu time spent up to now is     1135.6 secs

     total energy              =    -662.03626623 Ry
     estimated scf accuracy    <       0.00000250 Ry

     total charge of GC-SCF    =       3.78381958 e
     the Fermi energy          =      -4.90071001 eV
                        (error :       0.00328999 eV)
     electrostatic embedding   =      -1.93548999 Ry
     cavitation energy         =       0.02702467 Ry
     electrolyte free energy   =      -0.04724869 Ry
     correction to one-el term =    -106.66228036 Ry

     iteration # 22     ecut=    80.00 Ry     beta= 0.20
     Davidson diagonalization with overlap

---- Real-time Memory Report at c_bands before calling an iterative solver
           541 MiB given to the printing process from OS
             0 MiB allocation reported by mallinfo(arena+hblkhd)
        475645 MiB available memory on the node where the printing process lives
------------------
     ethr =  1.95E-09,  avg # of iterations = 18.0

     negative rho (up, down):  6.484E-04 0.000E+00

     add environment contribution to local potential

     total cpu time spent up to now is     1184.9 secs

     total energy              =    -662.03629871 Ry
     estimated scf accuracy    <       0.00000171 Ry

     total charge of GC-SCF    =       3.79085764 e
     the Fermi energy          =      -4.89608030 eV
                        (error :       0.00791970 eV)
     electrostatic embedding   =      -1.92776110 Ry
     cavitation energy         =       0.02702467 Ry
     electrolyte free energy   =      -0.04707811 Ry
     correction to one-el term =    -106.44735105 Ry

     iteration # 23     ecut=    80.00 Ry     beta= 0.20
     Davidson diagonalization with overlap

---- Real-time Memory Report at c_bands before calling an iterative solver
           541 MiB given to the printing process from OS
             0 MiB allocation reported by mallinfo(arena+hblkhd)
        475642 MiB available memory on the node where the printing process lives
------------------
     ethr =  1.33E-09,  avg # of iterations = 15.7

     negative rho (up, down):  5.873E-04 0.000E+00

     add environment contribution to local potential

     total cpu time spent up to now is     1229.9 secs

     total energy              =    -662.03626807 Ry
     estimated scf accuracy    <       0.00000081 Ry

     total charge of GC-SCF    =       3.80209021 e
     the Fermi energy          =      -4.89886560 eV
                        (error :       0.00513440 eV)
     electrostatic embedding   =      -1.93541981 Ry
     cavitation energy         =       0.02702467 Ry
     electrolyte free energy   =      -0.04725320 Ry
     correction to one-el term =    -106.64582017 Ry

     iteration # 24     ecut=    80.00 Ry     beta= 0.20
     Davidson diagonalization with overlap

---- Real-time Memory Report at c_bands before calling an iterative solver
           541 MiB given to the printing process from OS
             0 MiB allocation reported by mallinfo(arena+hblkhd)
        475617 MiB available memory on the node where the printing process lives
------------------
     ethr =  6.30E-10,  avg # of iterations = 22.2

     negative rho (up, down):  4.306E-04 0.000E+00

     add environment contribution to local potential

     total cpu time spent up to now is     1280.2 secs

     total energy              =    -662.03614764 Ry
     estimated scf accuracy    <       0.00000038 Ry

     total charge of GC-SCF    =       3.80066469 e
     the Fermi energy          =      -4.90627796 eV
                        (error :       0.00227796 eV)
     electrostatic embedding   =      -1.94786003 Ry
     cavitation energy         =       0.02702467 Ry
     electrolyte free energy   =      -0.04753535 Ry
     correction to one-el term =    -106.98358914 Ry

     iteration # 25     ecut=    80.00 Ry     beta= 0.20
     Davidson diagonalization with overlap

---- Real-time Memory Report at c_bands before calling an iterative solver
           541 MiB given to the printing process from OS
             0 MiB allocation reported by mallinfo(arena+hblkhd)
        475589 MiB available memory on the node where the printing process lives
------------------
     ethr =  2.98E-10,  avg # of iterations = 14.1

     negative rho (up, down):  4.232E-04 0.000E+00

     add environment contribution to local potential

     total cpu time spent up to now is     1321.3 secs

     total energy              =    -662.03616380 Ry
     estimated scf accuracy    <       0.00000019 Ry

     total charge of GC-SCF    =       3.79938804 e
     the Fermi energy          =      -4.90504564 eV
                        (error :       0.00104564 eV)
     electrostatic embedding   =      -1.94645639 Ry
     cavitation energy         =       0.02702467 Ry
     electrolyte free energy   =      -0.04749999 Ry
     correction to one-el term =    -106.94718537 Ry

     iteration # 26     ecut=    80.00 Ry     beta= 0.20
     Davidson diagonalization with overlap

---- Real-time Memory Report at c_bands before calling an iterative solver
           541 MiB given to the printing process from OS
             0 MiB allocation reported by mallinfo(arena+hblkhd)
        475598 MiB available memory on the node where the printing process lives
------------------
     ethr =  1.52E-10,  avg # of iterations = 15.1

     negative rho (up, down):  4.552E-04 0.000E+00

     add environment contribution to local potential

     total cpu time spent up to now is     1364.1 secs

     total energy              =    -662.03619003 Ry
     estimated scf accuracy    <       0.00000012 Ry

     total charge of GC-SCF    =       3.80004100 e
     the Fermi energy          =      -4.90386436 eV
                        (error :       0.00013564 eV)
     electrostatic embedding   =      -1.94489668 Ry
     cavitation energy         =       0.02702467 Ry
     electrolyte free energy   =      -0.04746683 Ry
     correction to one-el term =    -106.89709187 Ry

     iteration # 27     ecut=    80.00 Ry     beta= 0.20
     Davidson diagonalization with overlap

---- Real-time Memory Report at c_bands before calling an iterative solver
           541 MiB given to the printing process from OS
             0 MiB allocation reported by mallinfo(arena+hblkhd)
        475601 MiB available memory on the node where the printing process lives
------------------
     ethr =  8.99E-11,  avg # of iterations = 14.1

     negative rho (up, down):  4.730E-04 0.000E+00

     add environment contribution to local potential

     total cpu time spent up to now is     1403.5 secs

     total energy              =    -662.03618386 Ry
     estimated scf accuracy    <       0.00000005 Ry

     total charge of GC-SCF    =       3.79955652 e
     the Fermi energy          =      -4.90401047 eV
                        (error :       0.00001047 eV)
     electrostatic embedding   =      -1.94559897 Ry
     cavitation energy         =       0.02702467 Ry
     electrolyte free energy   =      -0.04748301 Ry
     correction to one-el term =    -106.91800879 Ry

     iteration # 28     ecut=    80.00 Ry     beta= 0.20
     Davidson diagonalization with overlap

---- Real-time Memory Report at c_bands before calling an iterative solver
           541 MiB given to the printing process from OS
             0 MiB allocation reported by mallinfo(arena+hblkhd)
        475575 MiB available memory on the node where the printing process lives
------------------
     ethr =  3.81E-11,  avg # of iterations = 15.2

     negative rho (up, down):  4.768E-04 0.000E+00

     add environment contribution to local potential

     total cpu time spent up to now is     1446.5 secs

     total energy              =    -662.03618748 Ry
     estimated scf accuracy    <       0.00000003 Ry

     total charge of GC-SCF    =       3.79946623 e
     the Fermi energy          =      -4.90380013 eV
                        (error :       0.00019987 eV)
     electrostatic embedding   =      -1.94502290 Ry
     cavitation energy         =       0.02702467 Ry
     electrolyte free energy   =      -0.04747071 Ry
     correction to one-el term =    -106.90325734 Ry

     iteration # 29     ecut=    80.00 Ry     beta= 0.20
     Davidson diagonalization with overlap

---- Real-time Memory Report at c_bands before calling an iterative solver
           541 MiB given to the printing process from OS
             0 MiB allocation reported by mallinfo(arena+hblkhd)
        475558 MiB available memory on the node where the printing process lives
------------------
     ethr =  2.36E-11,  avg # of iterations = 11.0

     negative rho (up, down):  4.776E-04 0.000E+00

     add environment contribution to local potential

     total cpu time spent up to now is     1478.8 secs

     total energy              =    -662.03618866 Ry
     estimated scf accuracy    <       0.00000002 Ry

     total charge of GC-SCF    =       3.79965377 e
     the Fermi energy          =      -4.90375162 eV
                        (error :       0.00024838 eV)
     electrostatic embedding   =      -1.94489011 Ry
     cavitation energy         =       0.02702467 Ry
     electrolyte free energy   =      -0.04746831 Ry
     correction to one-el term =    -106.89930055 Ry

     iteration # 30     ecut=    80.00 Ry     beta= 0.20
     Davidson diagonalization with overlap

---- Real-time Memory Report at c_bands before calling an iterative solver
           541 MiB given to the printing process from OS
             0 MiB allocation reported by mallinfo(arena+hblkhd)
        475532 MiB available memory on the node where the printing process lives
------------------
     ethr =  1.80E-11,  avg # of iterations = 14.0

     negative rho (up, down):  4.676E-04 0.000E+00

     add environment contribution to local potential

     total cpu time spent up to now is     1515.5 secs

     total energy              =    -662.03618586 Ry
     estimated scf accuracy    <       0.00000002 Ry

     total charge of GC-SCF    =       3.79981167 e
     the Fermi energy          =      -4.90393555 eV
                        (error :       0.00006445 eV)
     electrostatic embedding   =      -1.94507063 Ry
     cavitation energy         =       0.02702467 Ry
     electrolyte free energy   =      -0.04747296 Ry
     correction to one-el term =    -106.90400959 Ry

     iteration # 31     ecut=    80.00 Ry     beta= 0.20
     Davidson diagonalization with overlap

---- Real-time Memory Report at c_bands before calling an iterative solver
           541 MiB given to the printing process from OS
             0 MiB allocation reported by mallinfo(arena+hblkhd)
        475537 MiB available memory on the node where the printing process lives
------------------
     ethr =  1.31E-11,  avg # of iterations = 16.3

     negative rho (up, down):  4.584E-04 0.000E+00

     add environment contribution to local potential

     total cpu time spent up to now is     1559.2 secs

     total energy              =    -662.03618778 Ry
     estimated scf accuracy    <       0.00000001 Ry

     total charge of GC-SCF    =       3.79976932 e
     the Fermi energy          =      -4.90377714 eV
                        (error :       0.00022286 eV)
     electrostatic embedding   =      -1.94525021 Ry
     cavitation energy         =       0.02702467 Ry
     electrolyte free energy   =      -0.04747682 Ry
     correction to one-el term =    -106.90743835 Ry

     iteration # 32     ecut=    80.00 Ry     beta= 0.20
     Davidson diagonalization with overlap

---- Real-time Memory Report at c_bands before calling an iterative solver
           541 MiB given to the printing process from OS
             0 MiB allocation reported by mallinfo(arena+hblkhd)
        475577 MiB available memory on the node where the printing process lives
------------------
     ethr =  8.61E-12,  avg # of iterations = 10.8

     negative rho (up, down):  4.526E-04 0.000E+00

     add environment contribution to local potential

     total cpu time spent up to now is     1592.4 secs

     total energy              =    -662.03618816 Ry
     estimated scf accuracy    <          8.1E-09 Ry

     total charge of GC-SCF    =       3.80023000 e
     the Fermi energy          =      -4.90374917 eV
                        (error :       0.00025083 eV)
     electrostatic embedding   =      -1.94523987 Ry
     cavitation energy         =       0.02702467 Ry
     electrolyte free energy   =      -0.04747592 Ry
     correction to one-el term =    -106.90759676 Ry

     iteration # 33     ecut=    80.00 Ry     beta= 0.20
     Davidson diagonalization with overlap

---- Real-time Memory Report at c_bands before calling an iterative solver
           541 MiB given to the printing process from OS
             0 MiB allocation reported by mallinfo(arena+hblkhd)
        475563 MiB available memory on the node where the printing process lives
------------------
     ethr =  6.31E-12,  avg # of iterations = 13.9

     negative rho (up, down):  4.501E-04 0.000E+00

     add environment contribution to local potential

     total cpu time spent up to now is     1635.8 secs

     total energy              =    -662.03617884 Ry
     estimated scf accuracy    <          5.0E-09 Ry

     total charge of GC-SCF    =       3.80027374 e
     the Fermi energy          =      -4.90431748 eV
                        (error :       0.00031748 eV)
     electrostatic embedding   =      -1.94579531 Ry
     cavitation energy         =       0.02702467 Ry
     electrolyte free energy   =      -0.04748785 Ry
     correction to one-el term =    -106.92473026 Ry

     iteration # 34     ecut=    80.00 Ry     beta= 0.20
     Davidson diagonalization with overlap

---- Real-time Memory Report at c_bands before calling an iterative solver
           541 MiB given to the printing process from OS
             0 MiB allocation reported by mallinfo(arena+hblkhd)
        475524 MiB available memory on the node where the printing process lives
------------------
     ethr =  3.89E-12,  avg # of iterations = 13.4

     negative rho (up, down):  4.525E-04 0.000E+00

     add environment contribution to local potential

     total cpu time spent up to now is     1673.7 secs

     total energy              =    -662.03617842 Ry
     estimated scf accuracy    <          3.8E-09 Ry

     total charge of GC-SCF    =       3.79983825 e
     the Fermi energy          =      -4.90435643 eV
                        (error :       0.00035643 eV)
     electrostatic embedding   =      -1.94583858 Ry
     cavitation energy         =       0.02702467 Ry
     electrolyte free energy   =      -0.04748891 Ry
     correction to one-el term =    -106.92556844 Ry

     iteration # 35     ecut=    80.00 Ry     beta= 0.20
     Davidson diagonalization with overlap

---- Real-time Memory Report at c_bands before calling an iterative solver
           541 MiB given to the printing process from OS
             0 MiB allocation reported by mallinfo(arena+hblkhd)
        475531 MiB available memory on the node where the printing process lives
------------------
     ethr =  2.95E-12,  avg # of iterations = 13.8

     negative rho (up, down):  4.568E-04 0.000E+00

     add environment contribution to local potential

     total cpu time spent up to now is     1716.1 secs

     total energy              =    -662.03618430 Ry
     estimated scf accuracy    <          1.8E-09 Ry

     total charge of GC-SCF    =       3.79970648 e
     the Fermi energy          =      -4.90403434 eV
                        (error :       0.00003434 eV)
     electrostatic embedding   =      -1.94533677 Ry
     cavitation energy         =       0.02702467 Ry
     electrolyte free energy   =      -0.04747783 Ry
     correction to one-el term =    -106.91131846 Ry

     iteration # 36     ecut=    80.00 Ry     beta= 0.20
     Davidson diagonalization with overlap

---- Real-time Memory Report at c_bands before calling an iterative solver
           541 MiB given to the printing process from OS
             0 MiB allocation reported by mallinfo(arena+hblkhd)
        475540 MiB available memory on the node where the printing process lives
------------------
     ethr =  1.43E-12,  avg # of iterations = 21.9

     negative rho (up, down):  4.562E-04 0.000E+00

     add environment contribution to local potential

     total cpu time spent up to now is     1771.3 secs

     total energy              =    -662.03618472 Ry
     estimated scf accuracy    <          7.7E-10 Ry

     total charge of GC-SCF    =       3.79975271 e
     the Fermi energy          =      -4.90402926 eV
                        (error :       0.00002926 eV)
     electrostatic embedding   =      -1.94518453 Ry
     cavitation energy         =       0.02702467 Ry
     electrolyte free energy   =      -0.04747454 Ry
     correction to one-el term =    -106.90764786 Ry

     iteration # 37     ecut=    80.00 Ry     beta= 0.20
     Davidson diagonalization with overlap

---- Real-time Memory Report at c_bands before calling an iterative solver
           541 MiB given to the printing process from OS
             0 MiB allocation reported by mallinfo(arena+hblkhd)
        475494 MiB available memory on the node where the printing process lives
------------------
     ethr =  6.00E-13,  avg # of iterations = 11.9

     negative rho (up, down):  4.549E-04 0.000E+00

     add environment contribution to local potential

     total cpu time spent up to now is     1803.9 secs

     total energy              =    -662.03618401 Ry
     estimated scf accuracy    <          5.8E-10 Ry

     total charge of GC-SCF    =       3.79971623 e
     the Fermi energy          =      -4.90407843 eV
                        (error :       0.00007843 eV)
     electrostatic embedding   =      -1.94523491 Ry
     cavitation energy         =       0.02702467 Ry
     electrolyte free energy   =      -0.04747570 Ry
     correction to one-el term =    -106.90901044 Ry

     iteration # 38     ecut=    80.00 Ry     beta= 0.20
     Davidson diagonalization with overlap

---- Real-time Memory Report at c_bands before calling an iterative solver
           541 MiB given to the printing process from OS
             0 MiB allocation reported by mallinfo(arena+hblkhd)
        475522 MiB available memory on the node where the printing process lives
------------------
     ethr =  4.49E-13,  avg # of iterations = 15.0

     negative rho (up, down):  4.543E-04 0.000E+00

     add environment contribution to local potential

     total cpu time spent up to now is     1848.6 secs

     total energy              =    -662.03618457 Ry
     estimated scf accuracy    <          1.3E-10 Ry

     total charge of GC-SCF    =       3.79970613 e
     the Fermi energy          =      -4.90406889 eV
                        (error :       0.00006889 eV)
     electrostatic embedding   =      -1.94518867 Ry
     cavitation energy         =       0.02702467 Ry
     electrolyte free energy   =      -0.04747475 Ry
     correction to one-el term =    -106.90739294 Ry

     iteration # 39     ecut=    80.00 Ry     beta= 0.20
     Davidson diagonalization with overlap

---- Real-time Memory Report at c_bands before calling an iterative solver
           541 MiB given to the printing process from OS
             0 MiB allocation reported by mallinfo(arena+hblkhd)
        475550 MiB available memory on the node where the printing process lives
------------------
     c_bands:  1 eigenvalues not converged
     ethr =  1.04E-13,  avg # of iterations = 18.5

     negative rho (up, down):  4.538E-04 0.000E+00

     add environment contribution to local potential

     total cpu time spent up to now is     1893.6 secs

     total energy              =    -662.03618474 Ry
     estimated scf accuracy    <          7.7E-11 Ry

     total charge of GC-SCF    =       3.79968263 e
     the Fermi energy          =      -4.90405769 eV
                        (error :       0.00005769 eV)
     electrostatic embedding   =      -1.94517959 Ry
     cavitation energy         =       0.02702467 Ry
     electrolyte free energy   =      -0.04747450 Ry
     correction to one-el term =    -106.90713945 Ry

     iteration # 40     ecut=    80.00 Ry     beta= 0.20
     Davidson diagonalization with overlap

---- Real-time Memory Report at c_bands before calling an iterative solver
           541 MiB given to the printing process from OS
             0 MiB allocation reported by mallinfo(arena+hblkhd)
        475552 MiB available memory on the node where the printing process lives
------------------
     c_bands:  1 eigenvalues not converged
     ethr =  1.00E-13,  avg # of iterations = 22.9

     negative rho (up, down):  4.539E-04 0.000E+00

     add environment contribution to local potential

     total cpu time spent up to now is     1948.3 secs

     total energy              =    -662.03618518 Ry
     estimated scf accuracy    <          4.1E-11 Ry

     total charge of GC-SCF    =       3.79966240 e
     the Fermi energy          =      -4.90402818 eV
                        (error :       0.00002818 eV)
     electrostatic embedding   =      -1.94515568 Ry
     cavitation energy         =       0.02702467 Ry
     electrolyte free energy   =      -0.04747392 Ry
     correction to one-el term =    -106.90645623 Ry

     iteration # 41     ecut=    80.00 Ry     beta= 0.20
     Davidson diagonalization with overlap

---- Real-time Memory Report at c_bands before calling an iterative solver
           541 MiB given to the printing process from OS
             0 MiB allocation reported by mallinfo(arena+hblkhd)
        475544 MiB available memory on the node where the printing process lives
------------------
     c_bands:  1 eigenvalues not converged
     ethr =  1.00E-13,  avg # of iterations = 17.0

     negative rho (up, down):  4.542E-04 0.000E+00

     add environment contribution to local potential

     total cpu time spent up to now is     1992.6 secs

     total energy              =    -662.03618557 Ry
     estimated scf accuracy    <          2.5E-11 Ry

     total charge of GC-SCF    =       3.79966580 e
     the Fermi energy          =      -4.90400376 eV
                        (error :       0.00000376 eV)
     electrostatic embedding   =      -1.94513303 Ry
     cavitation energy         =       0.02702467 Ry
     electrolyte free energy   =      -0.04747340 Ry
     correction to one-el term =    -106.90581835 Ry

     iteration # 42     ecut=    80.00 Ry     beta= 0.20
     Davidson diagonalization with overlap

---- Real-time Memory Report at c_bands before calling an iterative solver
           541 MiB given to the printing process from OS
             0 MiB allocation reported by mallinfo(arena+hblkhd)
        475517 MiB available memory on the node where the printing process lives
------------------
     c_bands:  1 eigenvalues not converged
     ethr =  1.00E-13,  avg # of iterations = 23.4

     negative rho (up, down):  4.543E-04 0.000E+00

     add environment contribution to local potential

     total cpu time spent up to now is     2045.6 secs

     total energy              =    -662.03618553 Ry
     estimated scf accuracy    <          1.4E-11 Ry

     total charge of GC-SCF    =       3.79965509 e
     the Fermi energy          =      -4.90400231 eV
                        (error :       0.00000231 eV)
     electrostatic embedding   =      -1.94513714 Ry
     cavitation energy         =       0.02702467 Ry
     electrolyte free energy   =      -0.04747349 Ry
     correction to one-el term =    -106.90597909 Ry

     iteration # 43     ecut=    80.00 Ry     beta= 0.20
     Davidson diagonalization with overlap

---- Real-time Memory Report at c_bands before calling an iterative solver
           541 MiB given to the printing process from OS
             0 MiB allocation reported by mallinfo(arena+hblkhd)
        475523 MiB available memory on the node where the printing process lives
------------------
     c_bands:  1 eigenvalues not converged
     ethr =  1.00E-13,  avg # of iterations = 16.0

     negative rho (up, down):  4.545E-04 0.000E+00

     add environment contribution to local potential

     total cpu time spent up to now is     2086.3 secs

     total energy              =    -662.03618569 Ry
     estimated scf accuracy    <          9.8E-12 Ry

     total charge of GC-SCF    =       3.79966354 e
     the Fermi energy          =      -4.90399401 eV
                        (error :       0.00000599 eV)
     electrostatic embedding   =      -1.94512495 Ry
     cavitation energy         =       0.02702467 Ry
     electrolyte free energy   =      -0.04747322 Ry
     correction to one-el term =    -106.90565172 Ry

     iteration # 44     ecut=    80.00 Ry     beta= 0.20
     Davidson diagonalization with overlap

---- Real-time Memory Report at c_bands before calling an iterative solver
           541 MiB given to the printing process from OS
             0 MiB allocation reported by mallinfo(arena+hblkhd)
        475489 MiB available memory on the node where the printing process lives
------------------
     c_bands:  1 eigenvalues not converged
     ethr =  1.00E-13,  avg # of iterations = 14.8

     negative rho (up, down):  4.545E-04 0.000E+00

     add environment contribution to local potential

     total cpu time spent up to now is     2124.9 secs

     total energy              =    -662.03618553 Ry
     estimated scf accuracy    <          7.2E-12 Ry

     total charge of GC-SCF    =       3.79965367 e
     the Fermi energy          =      -4.90400326 eV
                        (error :       0.00000326 eV)
     electrostatic embedding   =      -1.94513409 Ry
     cavitation energy         =       0.02702467 Ry
     electrolyte free energy   =      -0.04747343 Ry
     correction to one-el term =    -106.90593154 Ry

     iteration # 45     ecut=    80.00 Ry     beta= 0.20
     Davidson diagonalization with overlap

---- Real-time Memory Report at c_bands before calling an iterative solver
           541 MiB given to the printing process from OS
             0 MiB allocation reported by mallinfo(arena+hblkhd)
        475504 MiB available memory on the node where the printing process lives
------------------
     c_bands:  1 eigenvalues not converged
     ethr =  1.00E-13,  avg # of iterations = 14.2

     negative rho (up, down):  4.544E-04 0.000E+00

     add environment contribution to local potential

     total cpu time spent up to now is     2162.4 secs

     total energy              =    -662.03618571 Ry
     estimated scf accuracy    <          4.5E-12 Ry

     total charge of GC-SCF    =       3.79965184 e
     the Fermi energy          =      -4.90399132 eV
                        (error :       0.00000868 eV)
     electrostatic embedding   =      -1.94512265 Ry
     cavitation energy         =       0.02702467 Ry
     electrolyte free energy   =      -0.04747318 Ry
     correction to one-el term =    -106.90560047 Ry

     iteration # 46     ecut=    80.00 Ry     beta= 0.20
     Davidson diagonalization with overlap

---- Real-time Memory Report at c_bands before calling an iterative solver
           541 MiB given to the printing process from OS
             0 MiB allocation reported by mallinfo(arena+hblkhd)
        475502 MiB available memory on the node where the printing process lives
------------------
     c_bands:  1 eigenvalues not converged
     ethr =  1.00E-13,  avg # of iterations = 15.4

     negative rho (up, down):  4.541E-04 0.000E+00

     add environment contribution to local potential

     total cpu time spent up to now is     2200.9 secs

     total energy              =    -662.03618577 Ry
     estimated scf accuracy    <          3.5E-12 Ry

     total charge of GC-SCF    =       3.79966039 e
     the Fermi energy          =      -4.90398714 eV
                        (error :       0.00001286 eV)
     electrostatic embedding   =      -1.94512069 Ry
     cavitation energy         =       0.02702467 Ry
     electrolyte free energy   =      -0.04747313 Ry
     correction to one-el term =    -106.90553171 Ry

     iteration # 47     ecut=    80.00 Ry     beta= 0.20
     Davidson diagonalization with overlap

---- Real-time Memory Report at c_bands before calling an iterative solver
           541 MiB given to the printing process from OS
             0 MiB allocation reported by mallinfo(arena+hblkhd)
        475453 MiB available memory on the node where the printing process lives
------------------
     c_bands:  1 eigenvalues not converged
     c_bands:  1 eigenvalues not converged
     ethr =  1.00E-13,  avg # of iterations = 21.1

     negative rho (up, down):  4.541E-04 0.000E+00

     add environment contribution to local potential

     total cpu time spent up to now is     2250.3 secs

     total energy              =    -662.03618565 Ry
     estimated scf accuracy    <          2.5E-12 Ry

     total charge of GC-SCF    =       3.79966417 e
     the Fermi energy          =      -4.90399543 eV
                        (error :       0.00000457 eV)
     electrostatic embedding   =      -1.94513040 Ry
     cavitation energy         =       0.02702467 Ry
     electrolyte free energy   =      -0.04747335 Ry
     correction to one-el term =    -106.90579292 Ry

     iteration # 48     ecut=    80.00 Ry     beta= 0.20
     Davidson diagonalization with overlap

---- Real-time Memory Report at c_bands before calling an iterative solver
           541 MiB given to the printing process from OS
             0 MiB allocation reported by mallinfo(arena+hblkhd)
        475492 MiB available memory on the node where the printing process lives
------------------
     c_bands:  1 eigenvalues not converged
     ethr =  1.00E-13,  avg # of iterations = 11.0

     negative rho (up, down):  4.541E-04 0.000E+00

     add environment contribution to local potential

     total cpu time spent up to now is     2284.3 secs

     total energy              =    -662.03618559 Ry
     estimated scf accuracy    <          2.0E-12 Ry

     total charge of GC-SCF    =       3.79966265 e
     the Fermi energy          =      -4.90399902 eV
                        (error :       0.00000098 eV)
     electrostatic embedding   =      -1.94513472 Ry
     cavitation energy         =       0.02702467 Ry
     electrolyte free energy   =      -0.04747345 Ry
     correction to one-el term =    -106.90591484 Ry

     iteration # 49     ecut=    80.00 Ry     beta= 0.20
     Davidson diagonalization with overlap

---- Real-time Memory Report at c_bands before calling an iterative solver
           541 MiB given to the printing process from OS
             0 MiB allocation reported by mallinfo(arena+hblkhd)
        475499 MiB available memory on the node where the printing process lives
------------------
     c_bands:  1 eigenvalues not converged
     ethr =  1.00E-13,  avg # of iterations = 12.3

     negative rho (up, down):  4.541E-04 0.000E+00

     add environment contribution to local potential

     total cpu time spent up to now is     2318.7 secs

     total energy              =    -662.03618557 Ry
     estimated scf accuracy    <          6.4E-13 Ry

     total charge of GC-SCF    =       3.79966308 e
     the Fermi energy          =      -4.90400026 eV
                        (error :       0.00000026 eV)
     electrostatic embedding   =      -1.94513307 Ry
     cavitation energy         =       0.02702467 Ry
     electrolyte free energy   =      -0.04747341 Ry
     correction to one-el term =    -106.90587900 Ry

     iteration # 50     ecut=    80.00 Ry     beta= 0.20
     Davidson diagonalization with overlap

---- Real-time Memory Report at c_bands before calling an iterative solver
           541 MiB given to the printing process from OS
             0 MiB allocation reported by mallinfo(arena+hblkhd)
        475501 MiB available memory on the node where the printing process lives
------------------
     c_bands:  1 eigenvalues not converged
     ethr =  1.00E-13,  avg # of iterations =  8.1

     negative rho (up, down):  4.541E-04 0.000E+00

     add environment contribution to local potential

     total cpu time spent up to now is     2348.7 secs

     total energy              =    -662.03618556 Ry
     estimated scf accuracy    <          5.6E-13 Ry

     total charge of GC-SCF    =       3.79966377 e
     the Fermi energy          =      -4.90400098 eV
                        (error :       0.00000098 eV)
     electrostatic embedding   =      -1.94513360 Ry
     cavitation energy         =       0.02702467 Ry
     electrolyte free energy   =      -0.04747342 Ry
     correction to one-el term =    -106.90589629 Ry

     iteration # 51     ecut=    80.00 Ry     beta= 0.20
     Davidson diagonalization with overlap

---- Real-time Memory Report at c_bands before calling an iterative solver
           541 MiB given to the printing process from OS
             0 MiB allocation reported by mallinfo(arena+hblkhd)
        475509 MiB available memory on the node where the printing process lives
------------------
     c_bands:  1 eigenvalues not converged
     ethr =  1.00E-13,  avg # of iterations =  8.4

     negative rho (up, down):  4.541E-04 0.000E+00

     add environment contribution to local potential

     total cpu time spent up to now is     2379.3 secs

     total energy              =    -662.03618554 Ry
     estimated scf accuracy    <          2.6E-13 Ry

     total charge of GC-SCF    =       3.79966260 e
     the Fermi energy          =      -4.90400186 eV
                        (error :       0.00000186 eV)
     electrostatic embedding   =      -1.94513444 Ry
     cavitation energy         =       0.02702467 Ry
     electrolyte free energy   =      -0.04747344 Ry
     correction to one-el term =    -106.90592095 Ry

     iteration # 52     ecut=    80.00 Ry     beta= 0.20
     Davidson diagonalization with overlap

---- Real-time Memory Report at c_bands before calling an iterative solver
           541 MiB given to the printing process from OS
             0 MiB allocation reported by mallinfo(arena+hblkhd)
        475456 MiB available memory on the node where the printing process lives
------------------
     c_bands:  1 eigenvalues not converged
     ethr =  1.00E-13,  avg # of iterations =  8.8

     negative rho (up, down):  4.541E-04 0.000E+00

     add environment contribution to local potential

     total cpu time spent up to now is     2409.7 secs

     total energy              =    -662.03618557 Ry
     estimated scf accuracy    <          1.2E-13 Ry

     total charge of GC-SCF    =       3.79966205 e
     the Fermi energy          =      -4.90400001 eV
                        (error :       0.00000001 eV)
     electrostatic embedding   =      -1.94513309 Ry
     cavitation energy         =       0.02702467 Ry
     electrolyte free energy   =      -0.04747341 Ry
     correction to one-el term =    -106.90587991 Ry

     iteration # 53     ecut=    80.00 Ry     beta= 0.20
     Davidson diagonalization with overlap

---- Real-time Memory Report at c_bands before calling an iterative solver
           541 MiB given to the printing process from OS
             0 MiB allocation reported by mallinfo(arena+hblkhd)
        475447 MiB available memory on the node where the printing process lives
------------------
     c_bands:  1 eigenvalues not converged
     ethr =  1.00E-13,  avg # of iterations =  7.9

     negative rho (up, down):  4.541E-04 0.000E+00

     add environment contribution to local potential

     total cpu time spent up to now is     2439.5 secs

     total energy              =    -662.03618558 Ry
     estimated scf accuracy    <          5.0E-14 Ry

     total charge of GC-SCF    =       3.79966177 e
     the Fermi energy          =      -4.90399905 eV
                        (error :       0.00000095 eV)
     electrostatic embedding   =      -1.94513245 Ry
     cavitation energy         =       0.02702467 Ry
[...]
     atom   10 type  1   force =    -0.00008031    0.03429468   -6.54663401
     atom   11 type  1   force =    -0.00000001   -0.03846684   -6.07191991
     atom   12 type  1   force =    -0.00000001    0.04371970   -2.45552100
     atom   13 type  1   force =    -0.00000001   -0.03573530    0.27235025
     atom   14 type  1   force =    -0.00000001    0.03945179    4.11906468
     atom   15 type  1   force =    -0.00021150    0.03846619    6.07244484
     atom   16 type  1   force =    -0.00039511   -0.06689408    9.09582299
     atom   17 type  1   force =    -0.00017033   -0.04373111    2.45566373
     atom   18 type  1   force =     0.00000000   -0.03433154    6.54789973
     atom   19 type  1   force =    -0.00000001    0.07069841   10.79456533
     atom   20 type  1   force =    -0.00000001   -0.06685414   12.66149244
     atom   21 type  1   force =    -0.00061010    0.05036217   12.55688377
     atom   22 type  1   force =    -0.00064902   -0.00797027   15.13063419
     atom   23 type  1   force =     0.00000002    0.00231351   15.80354023
     atom   24 type  1   force =     0.00008736   -0.00229359  -15.80364917
     atom   25 type  1   force =     0.00007202    0.06697052  -12.66362242
     atom   26 type  1   force =     0.00000001    0.00791044  -15.13058071
     atom   27 type  1   force =    -0.00000000   -0.05035517  -12.55713202
     atom   28 type  1   force =     0.00000002    0.06695186   -9.09601506
     atom   29 type  1   force =     0.00011109   -0.03946933   -4.11878871
     atom   30 type  1   force =     0.00015813    0.03574098   -0.27314945
     atom   31 type  1   force =     0.00008174   -0.07085743  -10.79419288
     atom   32 type  1   force =     0.00008031    0.03429466   -6.54663401
     atom   33 type  1   force =    -0.00000000   -0.03846124   -6.07276253
     atom   34 type  1   force =     0.00000003    0.04369188   -2.45587505
     atom   35 type  1   force =     0.00000003   -0.03570748    0.27387362
     atom   36 type  1   force =     0.00000003    0.03947547    4.11850872
     atom   37 type  1   force =     0.00021149    0.03846617    6.07244484
     atom   38 type  1   force =     0.00039510   -0.06689407    9.09582298
     atom   39 type  1   force =     0.00017031   -0.04373110    2.45566374
     atom   40 type  1   force =    -0.00000001   -0.03425916    6.54519696
     atom   41 type  1   force =     0.00000004    0.07078085   10.79371347
     atom   42 type  1   force =     0.00000003   -0.06692838   12.66588011
     atom   43 type  1   force =     0.00061008    0.05036216   12.55688376
     atom   44 type  1   force =     0.00064901   -0.00797027   15.13063420
     The local contribution  to forces
     atom    1 type  1   force =     0.00000137   -0.00266347  -15.84461700
     atom    2 type  1   force =     0.00010320    0.00251808   15.84413332
     atom    3 type  1   force =     0.00007709   -0.09127970   12.82677085
     atom    4 type  1   force =     0.00000136   -0.00248277   15.32837595
     atom    5 type  1   force =     0.00000000    0.05787668   12.71539932
     atom    6 type  1   force =     0.00000136   -0.06749954    9.18846496
     atom    7 type  1   force =     0.00011872    0.04263188    4.16681257
     atom    8 type  1   force =     0.00016167   -0.03961851    0.27277606
     atom    9 type  1   force =     0.00008878    0.07953954   10.92019738
     atom   10 type  1   force =     0.00008327   -0.03660893    6.61897274
     atom   11 type  1   force =     0.00000000    0.04188037    6.13746104
     atom   12 type  1   force =     0.00000136   -0.04483809    2.48252415
     atom   13 type  1   force =     0.00000136    0.03961156   -0.27183649
     atom   14 type  1   force =     0.00000136   -0.04261614   -4.16698164
     atom   15 type  1   force =     0.00021320   -0.04187979   -6.13787350
     atom   16 type  1   force =     0.00042593    0.06744221   -9.18833216
     atom   17 type  1   force =     0.00018002    0.04485197   -2.48255063
     atom   18 type  1   force =     0.00000000    0.03664389   -6.62012388
     atom   19 type  1   force =     0.00000136   -0.07937137  -10.92043544
     atom   20 type  1   force =     0.00000136    0.09113670  -12.82431376
     atom   21 type  1   force =     0.00066094   -0.05785739  -12.71543280
     atom   22 type  1   force =     0.00074635    0.00259286  -15.32831929
     atom   23 type  1   force =     0.00000274   -0.00251926  -15.84398934
     atom   24 type  1   force =    -0.00010047    0.00251808   15.84413332
     atom   25 type  1   force =    -0.00007437   -0.09127970   12.82677085
     atom   26 type  1   force =     0.00000273   -0.00252409   15.32835104
     atom   27 type  1   force =     0.00000136    0.05784399   12.71580117
     atom   28 type  1   force =     0.00000272   -0.06750307    9.18865678
     atom   29 type  1   force =    -0.00011601    0.04263188    4.16681257
     atom   30 type  1   force =    -0.00015896   -0.03961851    0.27277606
     atom   31 type  1   force =    -0.00008606    0.07953954   10.92019738
     atom   32 type  1   force =    -0.00008055   -0.03660893    6.61897274
     atom   33 type  1   force =     0.00000136    0.04187714    6.13831968
     atom   34 type  1   force =     0.00000272   -0.04481043    2.48290013
     atom   35 type  1   force =     0.00000272    0.03958363   -0.27339216
     atom   36 type  1   force =     0.00000272   -0.04263898   -4.16639451
     atom   37 type  1   force =    -0.00021049   -0.04187979   -6.13787350
     atom   38 type  1   force =    -0.00042322    0.06744221   -9.18833216
     atom   39 type  1   force =    -0.00017730    0.04485197   -2.48255063
     atom   40 type  1   force =     0.00000136    0.03657006   -6.61738105
     atom   41 type  1   force =     0.00000272   -0.07946548  -10.91959239
     atom   42 type  1   force =     0.00000272    0.09125683  -12.82909214
     atom   43 type  1   force =    -0.00065822   -0.05785739  -12.71543280
     atom   44 type  1   force =    -0.00074362    0.00259286  -15.32831929
     The core correction contribution to forces
     atom    1 type  1   force =     0.00000000    0.00000000    0.00000000
     atom    2 type  1   force =     0.00000000    0.00000000    0.00000000
     atom    3 type  1   force =     0.00000000    0.00000000    0.00000000
     atom    4 type  1   force =     0.00000000    0.00000000    0.00000000
     atom    5 type  1   force =     0.00000000    0.00000000    0.00000000
     atom    6 type  1   force =     0.00000000    0.00000000    0.00000000
     atom    7 type  1   force =     0.00000000    0.00000000    0.00000000
     atom    8 type  1   force =     0.00000000    0.00000000    0.00000000
     atom    9 type  1   force =     0.00000000    0.00000000    0.00000000
     atom   10 type  1   force =     0.00000000    0.00000000    0.00000000
     atom   11 type  1   force =     0.00000000    0.00000000    0.00000000
     atom   12 type  1   force =     0.00000000    0.00000000    0.00000000
     atom   13 type  1   force =     0.00000000    0.00000000    0.00000000
     atom   14 type  1   force =     0.00000000    0.00000000    0.00000000
     atom   15 type  1   force =     0.00000000    0.00000000    0.00000000
     atom   16 type  1   force =     0.00000000    0.00000000    0.00000000
     atom   17 type  1   force =     0.00000000    0.00000000    0.00000000
     atom   18 type  1   force =     0.00000000    0.00000000    0.00000000
     atom   19 type  1   force =     0.00000000    0.00000000    0.00000000
     atom   20 type  1   force =     0.00000000    0.00000000    0.00000000
     atom   21 type  1   force =     0.00000000    0.00000000    0.00000000
     atom   22 type  1   force =     0.00000000    0.00000000    0.00000000
     atom   23 type  1   force =     0.00000000    0.00000000    0.00000000
     atom   24 type  1   force =     0.00000000    0.00000000    0.00000000
     atom   25 type  1   force =     0.00000000    0.00000000    0.00000000
     atom   26 type  1   force =     0.00000000    0.00000000    0.00000000
     atom   27 type  1   force =     0.00000000    0.00000000    0.00000000
     atom   28 type  1   force =     0.00000000    0.00000000    0.00000000
     atom   29 type  1   force =     0.00000000    0.00000000    0.00000000
     atom   30 type  1   force =     0.00000000    0.00000000    0.00000000
     atom   31 type  1   force =     0.00000000    0.00000000    0.00000000
     atom   32 type  1   force =     0.00000000    0.00000000    0.00000000
     atom   33 type  1   force =     0.00000000    0.00000000    0.00000000
     atom   34 type  1   force =     0.00000000    0.00000000    0.00000000
     atom   35 type  1   force =     0.00000000    0.00000000    0.00000000
     atom   36 type  1   force =     0.00000000    0.00000000    0.00000000
     atom   37 type  1   force =     0.00000000    0.00000000    0.00000000
     atom   38 type  1   force =     0.00000000    0.00000000    0.00000000
     atom   39 type  1   force =     0.00000000    0.00000000    0.00000000
     atom   40 type  1   force =     0.00000000    0.00000000    0.00000000
     atom   41 type  1   force =     0.00000000    0.00000000    0.00000000
     atom   42 type  1   force =     0.00000000    0.00000000    0.00000000
     atom   43 type  1   force =     0.00000000    0.00000000    0.00000000
     atom   44 type  1   force =     0.00000000    0.00000000    0.00000000
     The Hubbard contrib.    to forces
     atom    1 type  1   force =     0.00000000    0.00000000    0.00000000
     atom    2 type  1   force =     0.00000000    0.00000000    0.00000000
     atom    3 type  1   force =     0.00000000    0.00000000    0.00000000
     atom    4 type  1   force =     0.00000000    0.00000000    0.00000000
     atom    5 type  1   force =     0.00000000    0.00000000    0.00000000
     atom    6 type  1   force =     0.00000000    0.00000000    0.00000000
     atom    7 type  1   force =     0.00000000    0.00000000    0.00000000
     atom    8 type  1   force =     0.00000000    0.00000000    0.00000000
     atom    9 type  1   force =     0.00000000    0.00000000    0.00000000
     atom   10 type  1   force =     0.00000000    0.00000000    0.00000000
     atom   11 type  1   force =     0.00000000    0.00000000    0.00000000
     atom   12 type  1   force =     0.00000000    0.00000000    0.00000000
     atom   13 type  1   force =     0.00000000    0.00000000    0.00000000
     atom   14 type  1   force =     0.00000000    0.00000000    0.00000000
     atom   15 type  1   force =     0.00000000    0.00000000    0.00000000
     atom   16 type  1   force =     0.00000000    0.00000000    0.00000000
     atom   17 type  1   force =     0.00000000    0.00000000    0.00000000
     atom   18 type  1   force =     0.00000000    0.00000000    0.00000000
     atom   19 type  1   force =     0.00000000    0.00000000    0.00000000
     atom   20 type  1   force =     0.00000000    0.00000000    0.00000000
     atom   21 type  1   force =     0.00000000    0.00000000    0.00000000
     atom   22 type  1   force =     0.00000000    0.00000000    0.00000000
     atom   23 type  1   force =     0.00000000    0.00000000    0.00000000
     atom   24 type  1   force =     0.00000000    0.00000000    0.00000000
     atom   25 type  1   force =     0.00000000    0.00000000    0.00000000
     atom   26 type  1   force =     0.00000000    0.00000000    0.00000000
     atom   27 type  1   force =     0.00000000    0.00000000    0.00000000
     atom   28 type  1   force =     0.00000000    0.00000000    0.00000000
     atom   29 type  1   force =     0.00000000    0.00000000    0.00000000
     atom   30 type  1   force =     0.00000000    0.00000000    0.00000000
     atom   31 type  1   force =     0.00000000    0.00000000    0.00000000
     atom   32 type  1   force =     0.00000000    0.00000000    0.00000000
     atom   33 type  1   force =     0.00000000    0.00000000    0.00000000
     atom   34 type  1   force =     0.00000000    0.00000000    0.00000000
     atom   35 type  1   force =     0.00000000    0.00000000    0.00000000
     atom   36 type  1   force =     0.00000000    0.00000000    0.00000000
     atom   37 type  1   force =     0.00000000    0.00000000    0.00000000
     atom   38 type  1   force =     0.00000000    0.00000000    0.00000000
     atom   39 type  1   force =     0.00000000    0.00000000    0.00000000
     atom   40 type  1   force =     0.00000000    0.00000000    0.00000000
     atom   41 type  1   force =     0.00000000    0.00000000    0.00000000
     atom   42 type  1   force =     0.00000000    0.00000000    0.00000000
     atom   43 type  1   force =     0.00000000    0.00000000    0.00000000
     atom   44 type  1   force =     0.00000000    0.00000000    0.00000000
     The SCF correction term to forces
     atom    1 type  1   force =     0.00000000   -0.00000000    0.00000000
     atom    2 type  1   force =     0.00000000    0.00000000   -0.00000001
     atom    3 type  1   force =     0.00000000    0.00000000   -0.00000000
     atom    4 type  1   force =    -0.00000000   -0.00000000   -0.00000001
     atom    5 type  1   force =     0.00000000   -0.00000000   -0.00000000
     atom    6 type  1   force =     0.00000000    0.00000000    0.00000000
     atom    7 type  1   force =    -0.00000000   -0.00000000    0.00000000
     atom    8 type  1   force =    -0.00000000    0.00000000    0.00000000
     atom    9 type  1   force =     0.00000000   -0.00000000    0.00000000
     atom   10 type  1   force =    -0.00000000    0.00000000    0.00000000
     atom   11 type  1   force =     0.00000000   -0.00000000    0.00000000
     atom   12 type  1   force =    -0.00000000    0.00000000    0.00000000
     atom   13 type  1   force =     0.00000000   -0.00000000    0.00000000
     atom   14 type  1   force =    -0.00000000    0.00000000    0.00000000
     atom   15 type  1   force =    -0.00000000    0.00000000    0.00000000
     atom   16 type  1   force =    -0.00000000   -0.00000000    0.00000000
     atom   17 type  1   force =    -0.00000000   -0.00000000    0.00000000
     atom   18 type  1   force =    -0.00000000   -0.00000000    0.00000000
     atom   19 type  1   force =    -0.00000000    0.00000000    0.00000000
     atom   20 type  1   force =    -0.00000000   -0.00000000    0.00000000
     atom   21 type  1   force =    -0.00000000    0.00000000    0.00000000
     atom   22 type  1   force =    -0.00000000    0.00000000    0.00000000
     atom   23 type  1   force =    -0.00000000   -0.00000000    0.00000000
     atom   24 type  1   force =    -0.00000000    0.00000000   -0.00000001
     atom   25 type  1   force =    -0.00000000    0.00000000   -0.00000000
     atom   26 type  1   force =    -0.00000000   -0.00000000   -0.00000001
     atom   27 type  1   force =    -0.00000000   -0.00000000   -0.00000000
     atom   28 type  1   force =     0.00000000   -0.00000000    0.00000000
     atom   29 type  1   force =     0.00000000   -0.00000000    0.00000000
     atom   30 type  1   force =     0.00000000    0.00000000    0.00000000
     atom   31 type  1   force =    -0.00000000   -0.00000000    0.00000000
     atom   32 type  1   force =     0.00000000    0.00000000    0.00000000
     atom   33 type  1   force =     0.00000000   -0.00000000    0.00000000
     atom   34 type  1   force =     0.00000000    0.00000000    0.00000000
     atom   35 type  1   force =    -0.00000000   -0.00000000    0.00000000
     atom   36 type  1   force =    -0.00000000    0.00000000    0.00000000
     atom   37 type  1   force =     0.00000000    0.00000000    0.00000000
     atom   38 type  1   force =     0.00000000   -0.00000000    0.00000000
     atom   39 type  1   force =     0.00000000   -0.00000000    0.00000000
     atom   40 type  1   force =     0.00000000   -0.00000000    0.00000000
     atom   41 type  1   force =    -0.00000000    0.00000000   -0.00000000
     atom   42 type  1   force =     0.00000000   -0.00000000    0.00000000
     atom   43 type  1   force =     0.00000000    0.00000000    0.00000000
     atom   44 type  1   force =     0.00000000    0.00000000    0.00000000

     Total force =     0.007479     Total SCF correction =     0.000000

     Writing all to output data dir ./Li/Lithium.save/ :
     XML data file
     init_run     :     17.65s CPU     27.30s WALL (       1 calls)
     electrons    :   2231.46s CPU   2869.74s WALL (       1 calls)
     forces       :     20.35s CPU     22.18s WALL (       1 calls)

     Called by init_run:
     wfcinit      :      2.69s CPU      3.88s WALL (       1 calls)
     wfcinit:wfcr :      2.46s CPU      3.65s WALL (      14 calls)
     potinit      :      0.96s CPU      1.02s WALL (       1 calls)
     hinit0       :      3.86s CPU      4.34s WALL (       1 calls)

     Called by electrons:
     c_bands      :   1677.83s CPU   2187.38s WALL (      69 calls)
     sum_band     :     87.67s CPU    126.02s WALL (      69 calls)
     v_of_rho     :      4.58s CPU      5.44s WALL (      70 calls)
     v_h          :      0.43s CPU      0.51s WALL (      70 calls)
     v_xc         :      4.14s CPU      4.93s WALL (      70 calls)
     newd         :      2.66s CPU      3.54s WALL (      70 calls)
     PAW_pot      :      0.64s CPU      0.82s WALL (      70 calls)
     mix_rho      :     13.20s CPU     17.08s WALL (      69 calls)

     Called by c_bands:
     init_us_2    :     17.36s CPU     17.61s WALL (    1960 calls)
     cegterg      :   1573.70s CPU   1932.12s WALL (    1430 calls)

     Called by sum_band:
     sum_band:wei :      0.12s CPU      0.15s WALL (      69 calls)
     sum_band:loo :     84.03s CPU    121.51s WALL (      69 calls)
     sum_band:buf :      1.42s CPU      1.56s WALL (     966 calls)
     sum_band:ini :      8.57s CPU      8.64s WALL (     966 calls)
     sum_band:cal :     15.51s CPU     17.23s WALL (     966 calls)
     sum_band:bec :      0.19s CPU      0.22s WALL (     966 calls)
     addusdens    :      2.41s CPU      2.54s WALL (      69 calls)
                                        0.00s GPU  (      69 calls)
     addusd:skk   :      0.63s CPU      0.63s WALL (      69 calls)
                                        0.00s GPU  (      69 calls)

     Called by *egterg:
     cdiaghg      :    554.45s CPU    575.55s WALL (   18541 calls)
     cegterg:over :     91.42s CPU     98.89s WALL (   17187 calls)
     cegterg:upda :     69.82s CPU     71.82s WALL (   17187 calls)
     cegterg:last :     23.17s CPU     23.37s WALL (    1703 calls)
     h_psi        :    719.31s CPU   1042.83s WALL (   18631 calls)
     s_psi        :     80.68s CPU     81.31s WALL (   18631 calls)
     g_psi        :      0.90s CPU      0.95s WALL (   17187 calls)

     Called by h_psi:
     h_psi:calbec :    104.12s CPU    119.27s WALL (   18631 calls)
     vloc_psi     :    524.11s CPU    830.09s WALL (   18631 calls)
                                        0.00s GPU  (   18631 calls)
     add_vuspsi   :     88.28s CPU     90.38s WALL (   18631 calls)

     General routines
     calbec       :    120.36s CPU    137.34s WALL (   19653 calls)
     fft          :      4.77s CPU      5.90s WALL (     910 calls)
     ffts         :      9.67s CPU     12.43s WALL (    8503 calls)
     fftw         :    561.15s CPU    891.93s WALL (  957082 calls)
     interpolate  :      1.21s CPU      1.32s WALL (      70 calls)

     Parallel routines

     PAW routines
     PAW_pot      :      0.64s CPU      0.82s WALL (      70 calls)
     PAW_symme    :      0.02s CPU      0.03s WALL (     139 calls)

     Environ routines

     PWSCF        :  37m49.56s CPU  48m39.51s WALL


   This run was terminated on:   5:14:13  20Jan2025            

=------------------------------------------------------------------------------=
   JOB DONE.
=------------------------------------------------------------------------------=
