
     Program PWSCF v.7.4 starts on  3Jan2025 at 12:11:11 

     This program is part of the open-source Quantum ESPRESSO suite
     for quantum simulation of materials; please cite
         "P. Giannozzi et al., J. Phys.:Condens. Matter 21 395502 (2009);
         "P. Giannozzi et al., J. Phys.:Condens. Matter 29 465901 (2017);
         "P. Giannozzi et al., J. Chem. Phys. 152 154105 (2020);
          URL http://www.quantum-espresso.org", 
     in publications or presentations arising from this work. More details at
     http://www.quantum-espresso.org/quote

     Parallel version (MPI & OpenMP), running on     256 processor cores
     Number of MPI processes:               256
     Threads/MPI process:                     1

     MPI processes distributed on     2 nodes
     489785 MiB available memory on the printing compute node when the environment starts

     Reading input from espresso.pwi
Warning: card &CELL ignored
Warning: card    PRESS_CONV_THR   = 0.1 ignored
Warning: card    CELL_DOFREE      = 'ALL' ignored
Warning: card / ignored
Warning: card &FCP ignored
Warning: card / ignored
Warning: card &RISM ignored
Warning: card / ignored

     Current dimensions of program PWSCF are:
     Max number of different atomic species (ntypx) = 10
     Max number of k-points (npk) =  40000
     Max angular momentum in pseudopotentials (lmaxx) =  4

     IMPORTANT: XC functional enforced from input :
     Exchange-correlation= PBE
                           (   1   4   3   4   0   0   0)
     Any further DFT definition will be discarded
     Please, verify this is what you really want


     Reading input from environ.in:
     * using ionic solvent mode
     * setting boundary derivatives method to SSCS default
     * setting electrolyte-boundary derivatives method to SSCS default

Environ Warning (1001): card EOF ignored

     
     Found identity + (  0.0000  0.5000  0.0000) symmetry
     This is a supercell, fractional translations are disabled

     R & G space division:  proc/nbgrp/npool/nimage =     256
     Subspace diagonalization in iterative solution of the eigenvalue problem:
     a serial algorithm will be used


     Parallelization info
     --------------------
     sticks:   dense  smooth     PW     G-vecs:    dense   smooth      PW
     Min          41      16      4                24769     6230     846
     Max          42      17      5                24868     6321     923
     Sum       10733    4281   1153              6359029  1608267  224795

     Using Slab Decomposition



     bravais-lattice index     =            6
     lattice parameter (alat)  =      12.9830  a.u.
     unit-cell volume          =   16640.2915 (a.u.)^3
     number of atoms/cell      =           32
     number of atomic types    =            1
     number of electrons       =        96.00
     number of Kohn-Sham states=           72
     kinetic-energy cutoff     =      80.0000  Ry
     charge density cutoff     =     800.0000  Ry
     scf convergence threshold =      1.0E-06
     mixing beta               =       0.2000
     number of iterations used =            8  local-TF  mixing
     energy convergence thresh.=      1.0E-05
     force convergence thresh. =      3.9E-04
     Exchange-correlation= PBE
                           (   1   4   3   4   0   0   0)
     nstep                     =          999


     ================================================================================

                                  Environ Setup Summary

     ================================================================================

     Please cite

          O. Andreussi, I. Dabo and N. Marzari, J. Chem. Phys. 136, 064102 (2012)
          F. Nattino, M. Truscott, N. Marzari, and O. Andreussi, J. Chem. Phys. 150, 041722 (2019)

     in publications or presentations arising from this work.

     ================================================================================

     Parameters
     ==========

     compensation onset threshold      =               0.1000E+00
     static permittivity               =                    89.90
     surface tension in input (dyn/cm) =                    37.30
     surface tension in internal units =               0.4792E-04

     Solvent Boundary
     ================

     solvent mode                      =                    ionic
     derivatives method                =                   lowmem
     electrolyte derivatives method    =                   lowmem
     numerical core for derivatives    =                      fft
     switching function adopted        =                     SCCS
     density limit for vacuum region   =               0.5000E-02
     density limit for bulk solvent    =               0.1000E-03
     soft-sphere radius mode           =                    bondi
     soft-sphere softness              =                     0.50
     alpha                             =                     1.32

     Electrostatic Setup
     ===================

     electrostatic problem to solve    =                    modpb
     numerical solver adopted          =                   newton
     type of auxiliary density adopted =                     none
     numerical core for poisson        =                      fft
     adopting a nested solver scheme
     inner solver                      =                       cg
     inner core                        =                      fft
     type of pbc corrections           =                parabolic
     numerical core for corrections    =                      1da

     ================================================================================


     >>>>> Grand-Canonical SCF is activated <<<<<
     Initial Total Charge  =     0.000000 e
     Target Fermi Energy   =    -1.904000 eV
     Thr. of Fermi Energy  =     0.001000 eV
     Wave-shift of Kerker  =     0.400000 bohr^-1
     Wave-shift of Hartree =     1.500000 bohr^-1
     Mixing Rate of Fermi  =     0.050000

     celldm(1)=  12.983009  celldm(2)=   0.000000  celldm(3)=   7.603873
     celldm(4)=   0.000000  celldm(5)=   0.000000  celldm(6)=   0.000000

     crystal axes: (cart. coord. in units of alat)
               a(1) = (   1.000000   0.000000   0.000000 )  
               a(2) = (   0.000000   1.000000   0.000000 )  
               a(3) = (   0.000000   0.000000   7.603873 )  

     reciprocal axes: (cart. coord. in units 2 pi/alat)
               b(1) = (  1.000000  0.000000  0.000000 )  
               b(2) = (  0.000000  1.000000  0.000000 )  
               b(3) = (  0.000000  0.000000  0.131512 )  


     PseudoPot. # 1 for Li read from file:
     /work/e89/e89/ba3g18/Repos/Pseudopotentials/Pslibrary/Li.pbe-sl-kjpaw_psl.1.0.0.UPF
     MD5 check sum: 3f4d2cafebb47c6c3aa8ed472e6f074d
     Pseudo is Projector augmented-wave, Zval =  3.0
     Generated using 'atomic' code by A. Dal Corso  v.7.4
     Shape of augmentation charge: PSQ
     Using radial grid of 1017 points,  4 beta functions with: 
                l(1) =   0
                l(2) =   0
                l(3) =   1
                l(4) =   1
     Q(r) pseudized with 0 coefficients 


     atomic species   valence    mass     pseudopotential
     Li                3.00     6.94000     Li( 1.00)

      8 Sym. Ops. (no inversion) found


                                    s                        frac. trans.

      isym =  1     identity                                     

 cryst.   s( 1) = (     1          0          0      )
                  (     0          1          0      )
                  (     0          0          1      )

 cart.    s( 1) = (  1.0000000  0.0000000  0.0000000 )
                  (  0.0000000  1.0000000  0.0000000 )
                  (  0.0000000  0.0000000  1.0000000 )


      isym =  2     180 deg rotation - cart. axis [0,0,1]        

 cryst.   s( 2) = (    -1          0          0      )
                  (     0         -1          0      )
                  (     0          0          1      )

 cart.    s( 2) = ( -1.0000000  0.0000000  0.0000000 )
                  (  0.0000000 -1.0000000  0.0000000 )
                  (  0.0000000  0.0000000  1.0000000 )


      isym =  3      90 deg rotation - cart. axis [0,0,-1]       

 cryst.   s( 3) = (     0         -1          0      )
                  (     1          0          0      )
                  (     0          0          1      )

 cart.    s( 3) = (  0.0000000  1.0000000  0.0000000 )
                  ( -1.0000000  0.0000000  0.0000000 )
                  (  0.0000000  0.0000000  1.0000000 )


      isym =  4      90 deg rotation - cart. axis [0,0,1]        

 cryst.   s( 4) = (     0          1          0      )
                  (    -1          0          0      )
                  (     0          0          1      )

 cart.    s( 4) = (  0.0000000 -1.0000000  0.0000000 )
                  (  1.0000000  0.0000000  0.0000000 )
                  (  0.0000000  0.0000000  1.0000000 )


      isym =  5     inv. 180 deg rotation - cart. axis [0,1,0]   

 cryst.   s( 5) = (     1          0          0      )
                  (     0         -1          0      )
                  (     0          0          1      )

 cart.    s( 5) = (  1.0000000  0.0000000  0.0000000 )
                  (  0.0000000 -1.0000000  0.0000000 )
                  (  0.0000000  0.0000000  1.0000000 )


      isym =  6     inv. 180 deg rotation - cart. axis [1,0,0]   

 cryst.   s( 6) = (    -1          0          0      )
                  (     0          1          0      )
                  (     0          0          1      )

 cart.    s( 6) = ( -1.0000000  0.0000000  0.0000000 )
                  (  0.0000000  1.0000000  0.0000000 )
                  (  0.0000000  0.0000000  1.0000000 )


      isym =  7     inv. 180 deg rotation - cart. axis [1,1,0]   

 cryst.   s( 7) = (     0         -1          0      )
                  (    -1          0          0      )
                  (     0          0          1      )

 cart.    s( 7) = (  0.0000000 -1.0000000  0.0000000 )
                  ( -1.0000000  0.0000000  0.0000000 )
                  (  0.0000000  0.0000000  1.0000000 )


      isym =  8     inv. 180 deg rotation - cart. axis [1,-1,0]  

 cryst.   s( 8) = (     0          1          0      )
                  (     1          0          0      )
                  (     0          0          1      )

 cart.    s( 8) = (  0.0000000  1.0000000  0.0000000 )
                  (  1.0000000  0.0000000  0.0000000 )
                  (  0.0000000  0.0000000  1.0000000 )


     point group C_4v (4mm) 
     there are  5 classes
     the character table:

       E     2C4   C2    2s_v  2s_d 
A_1    1.00  1.00  1.00  1.00  1.00
A_2    1.00  1.00  1.00 -1.00 -1.00
B_1    1.00 -1.00  1.00  1.00 -1.00
B_2    1.00 -1.00  1.00 -1.00  1.00
E      2.00  0.00 -2.00  0.00  0.00

     the symmetry operations in each class and the name of the first element:

     E        1
          identity                                               
     2C4      3    4
           90 deg rotation - cart. axis [0,0,-1]                 
     C2       2
          180 deg rotation - cart. axis [0,0,1]                  
     2s_v     5    6
          inv. 180 deg rotation - cart. axis [0,1,0]             
     2s_d     7    8
          inv. 180 deg rotation - cart. axis [1,1,0]             

   Cartesian axes

     site n.     atom                  positions (alat units)
         1        Li     tau(   1) = (  -0.0000000  -0.0000000   3.1740845  )
         2        Li     tau(   2) = (   0.2500006   0.2500006   2.9127131  )
         3        Li     tau(   3) = (  -0.0000000  -0.0000000   3.6754885  )
         4        Li     tau(   4) = (   0.2500006   0.2500006   3.4245217  )
         5        Li     tau(   5) = (  -0.0000000  -0.0000000   4.1792648  )
         6        Li     tau(   6) = (   0.2500005   0.2500005   3.9281808  )
         7        Li     tau(   7) = (  -0.0000000  -0.0000000   4.6914220  )
         8        Li     tau(   8) = (   0.2499996   0.2499996   4.4298893  )
         9        Li     tau(   9) = (  -0.0000000   0.5000000   3.1740858  )
        10        Li     tau(  10) = (   0.2500006   0.7499994   2.9127131  )
        11        Li     tau(  11) = (  -0.0000000   0.5000000   3.6754846  )
        12        Li     tau(  12) = (   0.2500006   0.7499994   3.4245217  )
        13        Li     tau(  13) = (  -0.0000000   0.5000000   4.1792659  )
        14        Li     tau(  14) = (   0.2500005   0.7499995   3.9281808  )
        15        Li     tau(  15) = (  -0.0000000   0.5000000   4.6914202  )
        16        Li     tau(  16) = (   0.2499996   0.7500003   4.4298893  )
        17        Li     tau(  17) = (   0.5000000  -0.0000000   3.1740858  )
        18        Li     tau(  18) = (   0.7499994   0.2500006   2.9127131  )
        19        Li     tau(  19) = (   0.5000000  -0.0000000   3.6754846  )
        20        Li     tau(  20) = (   0.7499994   0.2500006   3.4245217  )
        21        Li     tau(  21) = (   0.5000000  -0.0000000   4.1792659  )
        22        Li     tau(  22) = (   0.7499995   0.2500005   3.9281808  )
        23        Li     tau(  23) = (   0.5000000  -0.0000000   4.6914202  )
        24        Li     tau(  24) = (   0.7500003   0.2499996   4.4298893  )
        25        Li     tau(  25) = (   0.5000000   0.5000000   3.1740886  )
        26        Li     tau(  26) = (   0.7499994   0.7499994   2.9127131  )
        27        Li     tau(  27) = (   0.5000000   0.5000000   3.6754854  )
        28        Li     tau(  28) = (   0.7499994   0.7499994   3.4245217  )
        29        Li     tau(  29) = (   0.5000000   0.5000000   4.1792690  )
        30        Li     tau(  30) = (   0.7499995   0.7499995   3.9281808  )
        31        Li     tau(  31) = (   0.5000000   0.5000000   4.6914182  )
        32        Li     tau(  32) = (   0.7500003   0.7500003   4.4298893  )

   Crystallographic axes

     site n.     atom                  positions (cryst. coord.)
         1        Li     tau(   1) = ( -0.0000000 -0.0000000  0.4174300  )
         2        Li     tau(   2) = (  0.2500006  0.2500006  0.3830565  )
         3        Li     tau(   3) = ( -0.0000000 -0.0000000  0.4833706  )
         4        Li     tau(   4) = (  0.2500006  0.2500006  0.4503654  )
         5        Li     tau(   5) = ( -0.0000000 -0.0000000  0.5496232  )
         6        Li     tau(   6) = (  0.2500005  0.2500005  0.5166026  )
         7        Li     tau(   7) = ( -0.0000000 -0.0000000  0.6169780  )
         8        Li     tau(   8) = (  0.2499996  0.2499996  0.5825833  )
         9        Li     tau(   9) = ( -0.0000000  0.5000000  0.4174301  )
        10        Li     tau(  10) = (  0.2500006  0.7499994  0.3830565  )
        11        Li     tau(  11) = ( -0.0000000  0.5000000  0.4833701  )
        12        Li     tau(  12) = (  0.2500006  0.7499994  0.4503654  )
        13        Li     tau(  13) = ( -0.0000000  0.5000000  0.5496233  )
        14        Li     tau(  14) = (  0.2500005  0.7499995  0.5166026  )
        15        Li     tau(  15) = ( -0.0000000  0.5000000  0.6169777  )
        16        Li     tau(  16) = (  0.2499996  0.7500003  0.5825833  )
        17        Li     tau(  17) = (  0.5000000 -0.0000000  0.4174301  )
        18        Li     tau(  18) = (  0.7499994  0.2500006  0.3830565  )
        19        Li     tau(  19) = (  0.5000000 -0.0000000  0.4833701  )
        20        Li     tau(  20) = (  0.7499994  0.2500006  0.4503654  )
        21        Li     tau(  21) = (  0.5000000 -0.0000000  0.5496233  )
        22        Li     tau(  22) = (  0.7499995  0.2500005  0.5166026  )
        23        Li     tau(  23) = (  0.5000000 -0.0000000  0.6169777  )
        24        Li     tau(  24) = (  0.7500003  0.2499996  0.5825833  )
        25        Li     tau(  25) = (  0.5000000  0.5000000  0.4174305  )
        26        Li     tau(  26) = (  0.7499994  0.7499994  0.3830565  )
        27        Li     tau(  27) = (  0.5000000  0.5000000  0.4833702  )
        28        Li     tau(  28) = (  0.7499994  0.7499994  0.4503654  )
        29        Li     tau(  29) = (  0.5000000  0.5000000  0.5496237  )
        30        Li     tau(  30) = (  0.7499995  0.7499995  0.5166026  )
        31        Li     tau(  31) = (  0.5000000  0.5000000  0.6169775  )
        32        Li     tau(  32) = (  0.7500003  0.7500003  0.5825833  )

     number of k points=    21  Marzari-Vanderbilt smearing, width (Ry)=  0.0100
                       cart. coord. in units 2pi/alat
        k(    1) = (   0.0000000   0.0000000   0.0000000), wk =   0.0200000
        k(    2) = (   0.0000000   0.1000000   0.0000000), wk =   0.0800000
        k(    3) = (   0.0000000   0.2000000   0.0000000), wk =   0.0800000
        k(    4) = (   0.0000000   0.3000000   0.0000000), wk =   0.0800000
        k(    5) = (   0.0000000   0.4000000   0.0000000), wk =   0.0800000
        k(    6) = (   0.0000000  -0.5000000   0.0000000), wk =   0.0400000
        k(    7) = (   0.1000000   0.1000000   0.0000000), wk =   0.0800000
        k(    8) = (   0.1000000   0.2000000   0.0000000), wk =   0.1600000
        k(    9) = (   0.1000000   0.3000000   0.0000000), wk =   0.1600000
        k(   10) = (   0.1000000   0.4000000   0.0000000), wk =   0.1600000
        k(   11) = (   0.1000000  -0.5000000   0.0000000), wk =   0.0800000
        k(   12) = (   0.2000000   0.2000000   0.0000000), wk =   0.0800000
        k(   13) = (   0.2000000   0.3000000   0.0000000), wk =   0.1600000
        k(   14) = (   0.2000000   0.4000000   0.0000000), wk =   0.1600000
        k(   15) = (   0.2000000  -0.5000000   0.0000000), wk =   0.0800000
        k(   16) = (   0.3000000   0.3000000   0.0000000), wk =   0.0800000
        k(   17) = (   0.3000000   0.4000000   0.0000000), wk =   0.1600000
        k(   18) = (   0.3000000  -0.5000000   0.0000000), wk =   0.0800000
        k(   19) = (   0.4000000   0.4000000   0.0000000), wk =   0.0800000
        k(   20) = (   0.4000000  -0.5000000   0.0000000), wk =   0.0800000
        k(   21) = (  -0.5000000  -0.5000000   0.0000000), wk =   0.0200000

                       cryst. coord.
        k(    1) = (   0.0000000   0.0000000   0.0000000), wk =   0.0200000
        k(    2) = (   0.0000000   0.1000000   0.0000000), wk =   0.0800000
        k(    3) = (   0.0000000   0.2000000   0.0000000), wk =   0.0800000
        k(    4) = (   0.0000000   0.3000000   0.0000000), wk =   0.0800000
        k(    5) = (   0.0000000   0.4000000   0.0000000), wk =   0.0800000
        k(    6) = (   0.0000000  -0.5000000   0.0000000), wk =   0.0400000
        k(    7) = (   0.1000000   0.1000000   0.0000000), wk =   0.0800000
        k(    8) = (   0.1000000   0.2000000   0.0000000), wk =   0.1600000
        k(    9) = (   0.1000000   0.3000000   0.0000000), wk =   0.1600000
        k(   10) = (   0.1000000   0.4000000   0.0000000), wk =   0.1600000
        k(   11) = (   0.1000000  -0.5000000   0.0000000), wk =   0.0800000
        k(   12) = (   0.2000000   0.2000000   0.0000000), wk =   0.0800000
        k(   13) = (   0.2000000   0.3000000   0.0000000), wk =   0.1600000
        k(   14) = (   0.2000000   0.4000000   0.0000000), wk =   0.1600000
        k(   15) = (   0.2000000  -0.5000000   0.0000000), wk =   0.0800000
        k(   16) = (   0.3000000   0.3000000   0.0000000), wk =   0.0800000
        k(   17) = (   0.3000000   0.4000000   0.0000000), wk =   0.1600000
        k(   18) = (   0.3000000  -0.5000000   0.0000000), wk =   0.0800000
        k(   19) = (   0.4000000   0.4000000   0.0000000), wk =   0.0800000
        k(   20) = (   0.4000000  -0.5000000   0.0000000), wk =   0.0800000
        k(   21) = (  -0.5000000  -0.5000000   0.0000000), wk =   0.0200000

     Dense  grid:  6359029 G-vectors     FFT dimensions: ( 120, 120, 900)

     Smooth grid:  1608267 G-vectors     FFT dimensions: (  75,  75, 576)

     Dynamical RAM for                 wfc:       0.86 MB

     Dynamical RAM for     wfc (w. buffer):      18.97 MB

     Dynamical RAM for           str. fact:       0.38 MB

     Dynamical RAM for           local pot:       0.00 MB

     Dynamical RAM for          nlocal pot:       3.07 MB

     Dynamical RAM for                qrad:       0.65 MB

     Dynamical RAM for          rho,v,vnew:       2.46 MB

     Dynamical RAM for               rhoin:       0.82 MB

     Dynamical RAM for            rho*nmix:       6.07 MB

     Dynamical RAM for           G-vectors:       1.47 MB

     Dynamical RAM for          h,s,v(r/c):       3.80 MB

     Dynamical RAM for          <psi|beta>:       0.28 MB

     Dynamical RAM for                 psi:       3.45 MB

     Dynamical RAM for                hpsi:       3.45 MB

     Dynamical RAM for                spsi:       3.45 MB

     Dynamical RAM for      wfcinit/wfcrot:       1.84 MB

     Dynamical RAM for           addusdens:      28.45 MB

     Dynamical RAM for          addusforce:      52.18 MB

     Estimated static dynamical RAM per process >      30.77 MB

     Estimated max dynamical RAM per process >      97.03 MB

     Estimated total dynamical RAM >      22.26 GB

     Initial potential from superposition of free atoms

     starting charge      95.8525, renormalised to      96.0000

     negative rho (up, down):  2.922E-03 0.000E+00
     Starting wfcs are random
     Checking if some PAW data can be deallocated... 

     total cpu time spent up to now is       22.9 secs

     Self-consistent Calculation

     iteration #  1     ecut=    80.00 Ry     beta= 0.20
     Davidson diagonalization with overlap

---- Real-time Memory Report at c_bands before calling an iterative solver
           378 MiB given to the printing process from OS
             0 MiB allocation reported by mallinfo(arena+hblkhd)
        478936 MiB available memory on the node where the printing process lives
------------------
     c_bands:  1 eigenvalues not converged
     c_bands:  1 eigenvalues not converged
     c_bands:  1 eigenvalues not converged
     c_bands:  1 eigenvalues not converged
     c_bands:  1 eigenvalues not converged
     c_bands:  2 eigenvalues not converged
     c_bands:  2 eigenvalues not converged
     ethr =  1.00E-12,  avg # of iterations =118.0

     negative rho (up, down):  2.207E-03 0.000E+00

     total cpu time spent up to now is      215.8 secs

     total energy              =    -481.19392258 Ry
     estimated scf accuracy    <       0.10485678 Ry

     total charge of GC-SCF    =      -0.01681818 e
     the Fermi energy          =      -4.25292759 eV
                        (error :       2.34892759 eV)
     electrostatic embedding   =       0.00000000 Ry
     cavitation energy         =       0.01925631 Ry
     electrolyte free energy   =       0.00716218 Ry
     correction to one-el term =      -0.00000000 Ry

     iteration #  2     ecut=    80.00 Ry     beta= 0.20
     Davidson diagonalization with overlap

---- Real-time Memory Report at c_bands before calling an iterative solver
           378 MiB given to the printing process from OS
             0 MiB allocation reported by mallinfo(arena+hblkhd)
        476278 MiB available memory on the node where the printing process lives
------------------
     ethr =  1.00E-05,  avg # of iterations = 10.1

     negative rho (up, down):  1.707E-03 0.000E+00

     add environment contribution to local potential

     total cpu time spent up to now is      239.5 secs

     total energy              =    -481.28088557 Ry
     estimated scf accuracy    <       0.04039103 Ry

     total charge of GC-SCF    =      -0.02272770 e
     the Fermi energy          =      -2.96539692 eV
                        (error :       1.06139692 eV)
     electrostatic embedding   =      -0.00015241 Ry
     cavitation energy         =       0.01925631 Ry
     electrolyte free energy   =       0.00716218 Ry
     correction to one-el term =      -0.00000000 Ry

     iteration #  3     ecut=    80.00 Ry     beta= 0.20
     Davidson diagonalization with overlap

---- Real-time Memory Report at c_bands before calling an iterative solver
           378 MiB given to the printing process from OS
             0 MiB allocation reported by mallinfo(arena+hblkhd)
        476251 MiB available memory on the node where the printing process lives
------------------
     ethr =  1.00E-05,  avg # of iterations = 20.3

     negative rho (up, down):  1.376E-03 0.000E+00

     add environment contribution to local potential

     total cpu time spent up to now is      273.0 secs

     total energy              =    -481.18188045 Ry
     estimated scf accuracy    <       0.03508651 Ry

     total charge of GC-SCF    =      -0.10422365 e
     the Fermi energy          =      -2.84573571 eV
                        (error :       0.94173571 eV)
     electrostatic embedding   =      -0.02208089 Ry
     cavitation energy         =       0.01925631 Ry
     electrolyte free energy   =      -0.00247000 Ry
     correction to one-el term =       1.13075042 Ry

     iteration #  4     ecut=    80.00 Ry     beta= 0.20
     Davidson diagonalization with overlap

---- Real-time Memory Report at c_bands before calling an iterative solver
           378 MiB given to the printing process from OS
             0 MiB allocation reported by mallinfo(arena+hblkhd)
        476262 MiB available memory on the node where the printing process lives
------------------
     ethr =  1.00E-05,  avg # of iterations = 10.3

     negative rho (up, down):  1.096E-03 0.000E+00

     add environment contribution to local potential

     total cpu time spent up to now is      296.5 secs

     total energy              =    -481.20292485 Ry
     estimated scf accuracy    <       0.01295257 Ry

     total charge of GC-SCF    =      -0.18704545 e
     the Fermi energy          =      -3.17470633 eV
                        (error :       1.27070633 eV)
     electrostatic embedding   =      -0.02712699 Ry
     cavitation energy         =       0.01925631 Ry
     electrolyte free energy   =      -0.00340742 Ry
     correction to one-el term =       5.10319139 Ry

     iteration #  5     ecut=    80.00 Ry     beta= 0.20
     Davidson diagonalization with overlap

---- Real-time Memory Report at c_bands before calling an iterative solver
           378 MiB given to the printing process from OS
             0 MiB allocation reported by mallinfo(arena+hblkhd)
        476241 MiB available memory on the node where the printing process lives
------------------
     ethr =  1.00E-05,  avg # of iterations = 13.8

     negative rho (up, down):  9.294E-04 0.000E+00

     add environment contribution to local potential

     total cpu time spent up to now is      323.3 secs

     total energy              =    -481.19360701 Ry
     estimated scf accuracy    <       0.00385999 Ry

     total charge of GC-SCF    =      -0.38333938 e
     the Fermi energy          =      -2.58818039 eV
                        (error :       0.68418039 eV)
     electrostatic embedding   =      -0.03253746 Ry
     cavitation energy         =       0.01925631 Ry
     electrolyte free energy   =      -0.00060655 Ry
     correction to one-el term =       8.20176242 Ry

     iteration #  6     ecut=    80.00 Ry     beta= 0.20
     Davidson diagonalization with overlap

---- Real-time Memory Report at c_bands before calling an iterative solver
           378 MiB given to the printing process from OS
             0 MiB allocation reported by mallinfo(arena+hblkhd)
        476211 MiB available memory on the node where the printing process lives
------------------
     ethr =  4.00E-06,  avg # of iterations = 15.7

     negative rho (up, down):  8.240E-04 0.000E+00

     add environment contribution to local potential

     total cpu time spent up to now is      352.7 secs

     total energy              =    -481.25751104 Ry
     estimated scf accuracy    <       0.00719141 Ry

     total charge of GC-SCF    =      -0.53456655 e
     the Fermi energy          =      -2.18898046 eV
                        (error :       0.28498046 eV)
     electrostatic embedding   =      -0.06404986 Ry
     cavitation energy         =       0.01925631 Ry
     electrolyte free energy   =      -0.00065047 Ry
     correction to one-el term =      18.31578918 Ry

     iteration #  7     ecut=    80.00 Ry     beta= 0.20
     Davidson diagonalization with overlap

---- Real-time Memory Report at c_bands before calling an iterative solver
           378 MiB given to the printing process from OS
             0 MiB allocation reported by mallinfo(arena+hblkhd)
        476178 MiB available memory on the node where the printing process lives
------------------
     ethr =  4.00E-06,  avg # of iterations = 10.9

     negative rho (up, down):  7.199E-04 0.000E+00

     add environment contribution to local potential

     total cpu time spent up to now is      376.6 secs

     total energy              =    -481.18602906 Ry
     estimated scf accuracy    <       0.02149493 Ry

     total charge of GC-SCF    =      -0.66605585 e
     the Fermi energy          =      -1.92686080 eV
                        (error :       0.02286080 eV)
     electrostatic embedding   =      -0.10035828 Ry
     cavitation energy         =       0.01925631 Ry
     electrolyte free energy   =      -0.00206715 Ry
     correction to one-el term =      23.89154852 Ry

     iteration #  8     ecut=    80.00 Ry     beta= 0.20
     Davidson diagonalization with overlap

---- Real-time Memory Report at c_bands before calling an iterative solver
           378 MiB given to the printing process from OS
             0 MiB allocation reported by mallinfo(arena+hblkhd)
        476144 MiB available memory on the node where the printing process lives
------------------
     ethr =  4.00E-06,  avg # of iterations =  9.3

     negative rho (up, down):  6.586E-04 0.000E+00

     add environment contribution to local potential

     total cpu time spent up to now is      398.2 secs

     total energy              =    -481.21663257 Ry
     estimated scf accuracy    <       0.00284799 Ry

     total charge of GC-SCF    =      -0.91558374 e
     the Fermi energy          =      -2.21823028 eV
                        (error :       0.31423028 eV)
     electrostatic embedding   =      -0.14146116 Ry
     cavitation energy         =       0.01925631 Ry
     electrolyte free energy   =      -0.00101445 Ry
     correction to one-el term =      27.98861682 Ry

     iteration #  9     ecut=    80.00 Ry     beta= 0.20
     Davidson diagonalization with overlap

---- Real-time Memory Report at c_bands before calling an iterative solver
           378 MiB given to the printing process from OS
             0 MiB allocation reported by mallinfo(arena+hblkhd)
        476097 MiB available memory on the node where the printing process lives
------------------
     ethr =  2.94E-06,  avg # of iterations =  9.2

     negative rho (up, down):  5.845E-04 0.000E+00

     add environment contribution to local potential

     total cpu time spent up to now is      418.5 secs

     total energy              =    -481.24761941 Ry
     estimated scf accuracy    <       0.00083132 Ry

     total charge of GC-SCF    =      -1.07294113 e
     the Fermi energy          =      -2.35530171 eV
                        (error :       0.45130171 eV)
     electrostatic embedding   =      -0.23691391 Ry
     cavitation energy         =       0.01925631 Ry
     electrolyte free energy   =      -0.00127982 Ry
     correction to one-el term =      35.40376378 Ry

     iteration # 10     ecut=    80.00 Ry     beta= 0.20
     Davidson diagonalization with overlap

---- Real-time Memory Report at c_bands before calling an iterative solver
           378 MiB given to the printing process from OS
             0 MiB allocation reported by mallinfo(arena+hblkhd)
        476073 MiB available memory on the node where the printing process lives
------------------
     ethr =  8.56E-07,  avg # of iterations =  9.6

     negative rho (up, down):  5.267E-04 0.000E+00

     add environment contribution to local potential

     total cpu time spent up to now is      440.5 secs

     total energy              =    -481.25503738 Ry
     estimated scf accuracy    <       0.00102742 Ry

     total charge of GC-SCF    =      -1.24994046 e
     the Fermi energy          =      -2.26949709 eV
                        (error :       0.36549709 eV)
     electrostatic embedding   =      -0.30286331 Ry
     cavitation energy         =       0.01925631 Ry
     electrolyte free energy   =      -0.00184335 Ry
     correction to one-el term =      40.55080754 Ry

     iteration # 11     ecut=    80.00 Ry     beta= 0.20
     Davidson diagonalization with overlap

---- Real-time Memory Report at c_bands before calling an iterative solver
           378 MiB given to the printing process from OS
             0 MiB allocation reported by mallinfo(arena+hblkhd)
        476047 MiB available memory on the node where the printing process lives
------------------
     ethr =  8.56E-07,  avg # of iterations =  9.3

     negative rho (up, down):  4.867E-04 0.000E+00

     add environment contribution to local potential

     total cpu time spent up to now is      463.0 secs

     total energy              =    -481.25450177 Ry
     estimated scf accuracy    <       0.00389544 Ry

     total charge of GC-SCF    =      -1.41414565 e
     the Fermi energy          =      -2.17488103 eV
                        (error :       0.27088103 eV)
     electrostatic embedding   =      -0.38760211 Ry
     cavitation energy         =       0.01925631 Ry
     electrolyte free energy   =      -0.00274755 Ry
     correction to one-el term =      45.98588168 Ry

     iteration # 12     ecut=    80.00 Ry     beta= 0.20
     Davidson diagonalization with overlap

---- Real-time Memory Report at c_bands before calling an iterative solver
           378 MiB given to the printing process from OS
             0 MiB allocation reported by mallinfo(arena+hblkhd)
        476042 MiB available memory on the node where the printing process lives
------------------
     ethr =  8.56E-07,  avg # of iterations =  7.6

     negative rho (up, down):  4.509E-04 0.000E+00

     add environment contribution to local potential

     total cpu time spent up to now is      481.3 secs

     total energy              =    -481.28462788 Ry
     estimated scf accuracy    <       0.00264531 Ry

     total charge of GC-SCF    =      -1.54392506 e
     the Fermi energy          =      -2.22665316 eV
                        (error :       0.32265316 eV)
     electrostatic embedding   =      -0.48121027 Ry
     cavitation energy         =       0.01925631 Ry
     electrolyte free energy   =      -0.00330227 Ry
     correction to one-el term =      50.77448720 Ry

     iteration # 13     ecut=    80.00 Ry     beta= 0.20
     Davidson diagonalization with overlap

---- Real-time Memory Report at c_bands before calling an iterative solver
           378 MiB given to the printing process from OS
             0 MiB allocation reported by mallinfo(arena+hblkhd)
        476040 MiB available memory on the node where the printing process lives
------------------
     ethr =  8.56E-07,  avg # of iterations = 13.2

     negative rho (up, down):  4.119E-04 0.000E+00

     add environment contribution to local potential

     total cpu time spent up to now is      508.4 secs

     total energy              =    -481.25798821 Ry
     estimated scf accuracy    <       0.01370682 Ry

     total charge of GC-SCF    =      -1.78167634 e
     the Fermi energy          =      -2.01171759 eV
                        (error :       0.10771759 eV)
     electrostatic embedding   =      -0.55548039 Ry
     cavitation energy         =       0.01925631 Ry
     electrolyte free energy   =      -0.00491456 Ry
     correction to one-el term =      55.06814254 Ry

     iteration # 14     ecut=    80.00 Ry     beta= 0.20
     Davidson diagonalization with overlap

---- Real-time Memory Report at c_bands before calling an iterative solver
           378 MiB given to the printing process from OS
             0 MiB allocation reported by mallinfo(arena+hblkhd)
        475983 MiB available memory on the node where the printing process lives
------------------
     ethr =  8.56E-07,  avg # of iterations =  8.2

     negative rho (up, down):  3.853E-04 0.000E+00

     add environment contribution to local potential

     total cpu time spent up to now is      530.2 secs

     total energy              =    -481.26182491 Ry
     estimated scf accuracy    <       0.00618940 Ry

     total charge of GC-SCF    =      -1.84987410 e
     the Fermi energy          =      -2.04171483 eV
                        (error :       0.13771483 eV)
     electrostatic embedding   =      -0.71891203 Ry
     cavitation energy         =       0.01925631 Ry
     electrolyte free energy   =      -0.00645208 Ry
     correction to one-el term =      62.37491594 Ry

     iteration # 15     ecut=    80.00 Ry     beta= 0.20
     Davidson diagonalization with overlap

---- Real-time Memory Report at c_bands before calling an iterative solver
           378 MiB given to the printing process from OS
             0 MiB allocation reported by mallinfo(arena+hblkhd)
        475993 MiB available memory on the node where the printing process lives
------------------
     ethr =  8.56E-07,  avg # of iterations = 11.0

     negative rho (up, down):  3.649E-04 0.000E+00

     add environment contribution to local potential

     total cpu time spent up to now is      555.5 secs

     total energy              =    -481.29102900 Ry
     estimated scf accuracy    <       0.00029640 Ry

     total charge of GC-SCF    =      -1.87934660 e
     the Fermi energy          =      -2.22520897 eV
                        (error :       0.32120897 eV)
     electrostatic embedding   =      -0.77496716 Ry
     cavitation energy         =       0.01925631 Ry
     electrolyte free energy   =      -0.00629896 Ry
     correction to one-el term =      63.94640031 Ry

     iteration # 16     ecut=    80.00 Ry     beta= 0.20
     Davidson diagonalization with overlap

---- Real-time Memory Report at c_bands before calling an iterative solver
           378 MiB given to the printing process from OS
             0 MiB allocation reported by mallinfo(arena+hblkhd)
        475974 MiB available memory on the node where the printing process lives
------------------
     ethr =  3.03E-07,  avg # of iterations =  6.4

     negative rho (up, down):  3.552E-04 0.000E+00

     add environment contribution to local potential

     total cpu time spent up to now is      571.6 secs

     total energy              =    -481.30503672 Ry
     estimated scf accuracy    <       0.00016036 Ry

     total charge of GC-SCF    =      -1.79566648 e
     the Fermi energy          =      -2.23786546 eV
                        (error :       0.33386546 eV)
     electrostatic embedding   =      -0.79697324 Ry
     cavitation energy         =       0.01925631 Ry
     electrolyte free energy   =      -0.00651634 Ry
     correction to one-el term =      64.67995524 Ry

     iteration # 17     ecut=    80.00 Ry     beta= 0.20
     Davidson diagonalization with overlap

---- Real-time Memory Report at c_bands before calling an iterative solver
           378 MiB given to the printing process from OS
             0 MiB allocation reported by mallinfo(arena+hblkhd)
        475971 MiB available memory on the node where the printing process lives
------------------
     ethr =  1.64E-07,  avg # of iterations =  8.1

     negative rho (up, down):  3.214E-04 0.000E+00

     add environment contribution to local potential

     total cpu time spent up to now is      592.4 secs

     total energy              =    -481.30116746 Ry
     estimated scf accuracy    <       0.00067221 Ry

     total charge of GC-SCF    =      -2.53069499 e
     the Fermi energy          =      -2.20763592 eV
                        (error :       0.30363592 eV)
     electrostatic embedding   =      -0.73271532 Ry
     cavitation energy         =       0.01925631 Ry
     electrolyte free energy   =      -0.00586019 Ry
     correction to one-el term =      62.26068694 Ry

     iteration # 18     ecut=    80.00 Ry     beta= 0.20
     Davidson diagonalization with overlap

---- Real-time Memory Report at c_bands before calling an iterative solver
           378 MiB given to the printing process from OS
             0 MiB allocation reported by mallinfo(arena+hblkhd)
        475972 MiB available memory on the node where the printing process lives
------------------
     ethr =  1.64E-07,  avg # of iterations = 14.1

     negative rho (up, down):  3.133E-04 0.000E+00

     add environment contribution to local potential

     total cpu time spent up to now is      621.1 secs

     total energy              =    -481.31127884 Ry
     estimated scf accuracy    <       0.00052381 Ry

     total charge of GC-SCF    =      -2.90065679 e
     the Fermi energy          =      -2.19516099 eV
                        (error :       0.29116099 eV)
     electrostatic embedding   =      -1.36278855 Ry
     cavitation energy         =       0.01925631 Ry
     electrolyte free energy   =      -0.01489539 Ry
     correction to one-el term =      83.62654893 Ry

     iteration # 19     ecut=    80.00 Ry     beta= 0.20
     Davidson diagonalization with overlap

---- Real-time Memory Report at c_bands before calling an iterative solver
           378 MiB given to the printing process from OS
             0 MiB allocation reported by mallinfo(arena+hblkhd)
        475984 MiB available memory on the node where the printing process lives
------------------
     ethr =  1.64E-07,  avg # of iterations = 14.6

     negative rho (up, down):  3.038E-04 0.000E+00

     add environment contribution to local potential

     total cpu time spent up to now is      648.8 secs

     total energy              =    -481.31049707 Ry
     estimated scf accuracy    <       0.00003342 Ry

     total charge of GC-SCF    =      -2.98154059 e
     the Fermi energy          =      -2.05350388 eV
                        (error :       0.14950388 eV)
     electrostatic embedding   =      -1.73798196 Ry
     cavitation energy         =       0.01925631 Ry
     electrolyte free energy   =      -0.02244448 Ry
     correction to one-el term =      94.38692449 Ry

     iteration # 20     ecut=    80.00 Ry     beta= 0.20
     Davidson diagonalization with overlap

---- Real-time Memory Report at c_bands before calling an iterative solver
           378 MiB given to the printing process from OS
             0 MiB allocation reported by mallinfo(arena+hblkhd)
        475950 MiB available memory on the node where the printing process lives
------------------
     ethr =  3.38E-08,  avg # of iterations =  9.6

     negative rho (up, down):  2.889E-04 0.000E+00

     add environment contribution to local potential

     total cpu time spent up to now is      673.6 secs

     total energy              =    -481.34434725 Ry
     estimated scf accuracy    <       0.00004597 Ry

     total charge of GC-SCF    =      -3.53160762 e
     the Fermi energy          =      -2.02776600 eV
                        (error :       0.12376600 eV)
     electrostatic embedding   =      -1.82347957 Ry
     cavitation energy         =       0.01925631 Ry
     electrolyte free energy   =      -0.02434636 Ry
     correction to one-el term =      96.51465922 Ry

     iteration # 21     ecut=    80.00 Ry     beta= 0.20
     Davidson diagonalization with overlap

---- Real-time Memory Report at c_bands before calling an iterative solver
           378 MiB given to the printing process from OS
             0 MiB allocation reported by mallinfo(arena+hblkhd)
        475968 MiB available memory on the node where the printing process lives
------------------
     ethr =  3.38E-08,  avg # of iterations = 14.4

     negative rho (up, down):  2.834E-04 0.000E+00

     add environment contribution to local potential

     total cpu time spent up to now is      705.1 secs

     total energy              =    -481.31590862 Ry
     estimated scf accuracy    <       0.00004725 Ry

     total charge of GC-SCF    =      -3.54374784 e
     the Fermi energy          =      -1.89693255 eV
                        (error :       0.00706745 eV)
     electrostatic embedding   =      -2.48663336 Ry
     cavitation energy         =       0.01925631 Ry
     electrolyte free energy   =      -0.04045527 Ry
     correction to one-el term =     112.25025577 Ry

     iteration # 22     ecut=    80.00 Ry     beta= 0.20
     Davidson diagonalization with overlap

---- Real-time Memory Report at c_bands before calling an iterative solver
           378 MiB given to the printing process from OS
             0 MiB allocation reported by mallinfo(arena+hblkhd)
        475940 MiB available memory on the node where the printing process lives
------------------
     ethr =  3.38E-08,  avg # of iterations =  2.4

     negative rho (up, down):  2.816E-04 0.000E+00

     add environment contribution to local potential

     total cpu time spent up to now is      718.8 secs

     total energy              =    -481.31559039 Ry
     estimated scf accuracy    <       0.00005849 Ry

     total charge of GC-SCF    =      -3.49017341 e
     the Fermi energy          =      -1.89611851 eV
                        (error :       0.00788149 eV)
     electrostatic embedding   =      -2.50312449 Ry
     cavitation energy         =       0.01925631 Ry
     electrolyte free energy   =      -0.04086404 Ry
     correction to one-el term =     112.61425839 Ry

     iteration # 23     ecut=    80.00 Ry     beta= 0.20
     Davidson diagonalization with overlap

---- Real-time Memory Report at c_bands before calling an iterative solver
           378 MiB given to the printing process from OS
             0 MiB allocation reported by mallinfo(arena+hblkhd)
        475940 MiB available memory on the node where the printing process lives
------------------
     ethr =  3.38E-08,  avg # of iterations =  7.2

     negative rho (up, down):  2.836E-04 0.000E+00

     add environment contribution to local potential

     total cpu time spent up to now is      738.4 secs

     total energy              =    -481.32212200 Ry
     estimated scf accuracy    <       0.00004670 Ry

     total charge of GC-SCF    =      -3.28586498 e
     the Fermi energy          =      -1.91598764 eV
                        (error :       0.01198764 eV)
     electrostatic embedding   =      -2.43066423 Ry
     cavitation energy         =       0.01925631 Ry
     electrolyte free energy   =      -0.03897549 Ry
     correction to one-el term =     110.87987559 Ry

     iteration # 24     ecut=    80.00 Ry     beta= 0.20
     Davidson diagonalization with overlap

---- Real-time Memory Report at c_bands before calling an iterative solver
           378 MiB given to the printing process from OS
             0 MiB allocation reported by mallinfo(arena+hblkhd)
        475939 MiB available memory on the node where the printing process lives
------------------
     ethr =  3.38E-08,  avg # of iterations =  8.9

     negative rho (up, down):  2.785E-04 0.000E+00

     add environment contribution to local potential

     total cpu time spent up to now is      762.6 secs

     total energy              =    -481.31853418 Ry
     estimated scf accuracy    <       0.00001155 Ry

     total charge of GC-SCF    =      -3.49106291 e
     the Fermi energy          =      -1.96624346 eV
                        (error :       0.06224346 eV)
     electrostatic embedding   =      -2.16663611 Ry
     cavitation energy         =       0.01925631 Ry
     electrolyte free energy   =      -0.03241520 Ry
     correction to one-el term =     104.50655217 Ry

     iteration # 25     ecut=    80.00 Ry     beta= 0.20
     Davidson diagonalization with overlap

---- Real-time Memory Report at c_bands before calling an iterative solver
           378 MiB given to the printing process from OS
             0 MiB allocation reported by mallinfo(arena+hblkhd)
        475922 MiB available memory on the node where the printing process lives
------------------
     ethr =  1.16E-08,  avg # of iterations = 12.1

     negative rho (up, down):  2.755E-04 0.000E+00

     add environment contribution to local potential

     total cpu time spent up to now is      788.8 secs

     total energy              =    -481.32032359 Ry
     estimated scf accuracy    <       0.00000566 Ry

     total charge of GC-SCF    =      -3.34324382 e
     the Fermi energy          =      -1.91812028 eV
                        (error :       0.01412028 eV)
     electrostatic embedding   =      -2.41759460 Ry
     cavitation energy         =       0.01925631 Ry
     electrolyte free energy   =      -0.03885139 Ry
     correction to one-el term =     110.08009543 Ry

     iteration # 26     ecut=    80.00 Ry     beta= 0.20
     Davidson diagonalization with overlap

---- Real-time Memory Report at c_bands before calling an iterative solver
           378 MiB given to the printing process from OS
             0 MiB allocation reported by mallinfo(arena+hblkhd)
        475912 MiB available memory on the node where the printing process lives
------------------
     ethr =  5.70E-09,  avg # of iterations = 13.8

     negative rho (up, down):  2.683E-04 0.000E+00

     add environment contribution to local potential

     total cpu time spent up to now is      817.5 secs

     total energy              =    -481.31897858 Ry
     estimated scf accuracy    <       0.00000531 Ry

     total charge of GC-SCF    =      -3.54052577 e
     the Fermi energy          =      -1.96617290 eV
                        (error :       0.06217290 eV)
     electrostatic embedding   =      -2.22569546 Ry
     cavitation energy         =       0.01925631 Ry
     electrolyte free energy   =      -0.03399125 Ry
     correction to one-el term =     105.45353619 Ry

     iteration # 27     ecut=    80.00 Ry     beta= 0.20
     Davidson diagonalization with overlap

---- Real-time Memory Report at c_bands before calling an iterative solver
           378 MiB given to the printing process from OS
             0 MiB allocation reported by mallinfo(arena+hblkhd)
        475897 MiB available memory on the node where the printing process lives
------------------
     ethr =  5.33E-09,  avg # of iterations = 14.6

     negative rho (up, down):  2.655E-04 0.000E+00

     add environment contribution to local potential

     total cpu time spent up to now is      848.1 secs

     total energy              =    -481.31586163 Ry
     estimated scf accuracy    <       0.00000513 Ry

     total charge of GC-SCF    =      -3.54205987 e
     the Fermi energy          =      -1.90380802 eV
                        (error :       0.00019198 eV)
     electrostatic embedding   =      -2.47198715 Ry
     cavitation energy         =       0.01925631 Ry
     electrolyte free energy   =      -0.04048856 Ry
     correction to one-el term =     111.03943436 Ry

     iteration # 28     ecut=    80.00 Ry     beta= 0.20
     Davidson diagonalization with overlap

---- Real-time Memory Report at c_bands before calling an iterative solver
           378 MiB given to the printing process from OS
             0 MiB allocation reported by mallinfo(arena+hblkhd)
        475900 MiB available memory on the node where the printing process lives
------------------
     ethr =  5.15E-09,  avg # of iterations =  8.2

     negative rho (up, down):  2.612E-04 0.000E+00

     add environment contribution to local potential

     total cpu time spent up to now is      869.7 secs

     total energy              =    -481.31600791 Ry
     estimated scf accuracy    <       0.00000108 Ry

     total charge of GC-SCF    =      -3.57293056 e
     the Fermi energy          =      -1.91100962 eV
                        (error :       0.00700962 eV)
     electrostatic embedding   =      -2.47044763 Ry
     cavitation energy         =       0.01925631 Ry
     electrolyte free energy   =      -0.04047794 Ry
     correction to one-el term =     110.86250720 Ry

     iteration # 29     ecut=    80.00 Ry     beta= 0.20
     Davidson diagonalization with overlap

---- Real-time Memory Report at c_bands before calling an iterative solver
           378 MiB given to the printing process from OS
             0 MiB allocation reported by mallinfo(arena+hblkhd)
        475902 MiB available memory on the node where the printing process lives
------------------
     ethr =  1.08E-09,  avg # of iterations = 12.6

     negative rho (up, down):  2.581E-04 0.000E+00

     total cpu time spent up to now is      892.1 secs

     End of self-consistent calculation

          k = 0.0000 0.0000 0.0000 (201165 PWs)   bands (ev):

   -48.8808 -48.8800 -48.8793 -48.8793 -48.8784 -48.8784 -48.8778 -48.8770
   -48.4586 -48.4577 -48.4549 -48.4549 -48.4541 -48.4541 -48.4534 -48.4526
   -48.4502 -48.4396 -48.4396 -48.4389 -48.4389 -48.4381 -48.4374 -48.4364
   -48.4223 -48.4223 -48.4211 -48.4211 -48.4208 -48.4196 -48.4193 -48.4176
    -5.3833  -5.0634  -4.5835  -3.9887  -3.3392  -2.9639  -2.9639  -2.9639
    -2.9639  -2.6589  -2.6589  -2.6588  -2.6588  -2.6183  -2.2354  -2.2354
    -2.2353  -2.2353  -1.8468  -1.8468  -1.8466  -1.8466  -1.7380  -1.5073
    -1.5073  -1.0537  -1.0537  -0.8573  -0.3732  -0.3625  -0.3625  -0.3621
    -0.3621  -0.3398  -0.3398  -0.1002  -0.0389   0.2309   0.2788   0.5936

     occupation numbers 
     1.0000   1.0000   1.0000   1.0000   1.0000   1.0000   1.0000   1.0000
     1.0000   1.0000   1.0000   1.0000   1.0000   1.0000   1.0000   1.0000
     1.0000   1.0000   1.0000   1.0000   1.0000   1.0000   1.0000   1.0000
     1.0000   1.0000   1.0000   1.0000   1.0000   1.0000   1.0000   1.0000
     1.0000   1.0000   1.0000   1.0000   1.0000   1.0000   1.0000   1.0000
     1.0000   1.0000   1.0000   1.0000   1.0000   1.0000   1.0131   1.0131
     1.0132   1.0132   0.1644   0.1644   0.1638   0.1638   0.0126   0.0000
     0.0000   0.0000   0.0000   0.0000   0.0000   0.0000   0.0000   0.0000
     0.0000   0.0000   0.0000   0.0000   0.0000   0.0000   0.0000   0.0000

          k = 0.0000 0.1000 0.0000 (201189 PWs)   bands (ev):

   -48.8808 -48.8799 -48.8793 -48.8792 -48.8785 -48.8784 -48.8779 -48.8770
   -48.4585 -48.4576 -48.4550 -48.4548 -48.4542 -48.4540 -48.4534 -48.4526
   -48.4501 -48.4407 -48.4396 -48.4389 -48.4382 -48.4381 -48.4374 -48.4364
   -48.4223 -48.4222 -48.4211 -48.4210 -48.4208 -48.4197 -48.4194 -48.4176
    -5.3595  -5.0393  -4.5588  -3.9631  -3.4283  -3.3126  -3.1118  -2.9413
    -2.9413  -2.6481  -2.6346  -2.6346  -2.5919  -2.4494  -2.2083  -2.2083
    -2.1688  -2.1290  -1.8214  -1.8164  -1.8162  -1.7454  -1.7130  -1.5740
    -1.5740  -1.1327  -1.1327  -0.8316  -0.4472  -0.4472  -0.4149  -0.3878
    -0.3446  -0.3358  -0.3355  -0.0686  -0.0088   0.2599   0.3093   0.4031

     occupation numbers 
     1.0000   1.0000   1.0000   1.0000   1.0000   1.0000   1.0000   1.0000
     1.0000   1.0000   1.0000   1.0000   1.0000   1.0000   1.0000   1.0000
     1.0000   1.0000   1.0000   1.0000   1.0000   1.0000   1.0000   1.0000
     1.0000   1.0000   1.0000   1.0000   1.0000   1.0000   1.0000   1.0000
     1.0000   1.0000   1.0000   1.0000   1.0000   1.0000   1.0000   1.0000
     1.0000   1.0000   1.0000   1.0000   1.0000   1.0000   1.0236   1.0236
     1.0467   1.0730   0.1005   0.0904   0.0901   0.0156   0.0059   0.0000
     0.0000   0.0000   0.0000   0.0000   0.0000   0.0000   0.0000   0.0000
     0.0000   0.0000   0.0000   0.0000   0.0000   0.0000   0.0000   0.0000

          k = 0.0000 0.2000 0.0000 (201103 PWs)   bands (ev):

   -48.8807 -48.8798 -48.8794 -48.8791 -48.8786 -48.8783 -48.8780 -48.8771
   -48.4582 -48.4573 -48.4552 -48.4547 -48.4544 -48.4539 -48.4535 -48.4527
   -48.4496 -48.4422 -48.4395 -48.4387 -48.4383 -48.4375 -48.4372 -48.4363
   -48.4222 -48.4219 -48.4210 -48.4209 -48.4207 -48.4198 -48.4195 -48.4179
    -5.2879  -4.9670  -4.4849  -3.8866  -3.8423  -3.5200  -3.2333  -3.0385
    -2.8736  -2.8736  -2.5623  -2.5622  -2.5131  -2.4583  -2.1275  -2.1275
    -1.8974  -1.8878  -1.7460  -1.7460  -1.7252  -1.7250  -1.6384  -1.6313
    -1.5305  -1.3312  -1.3312  -0.7558  -0.7019  -0.7019  -0.4835  -0.4262
    -0.2600  -0.2564  -0.2560   0.0155   0.0156   0.0261   0.0810   0.3460

     occupation numbers 
     1.0000   1.0000   1.0000   1.0000   1.0000   1.0000   1.0000   1.0000
     1.0000   1.0000   1.0000   1.0000   1.0000   1.0000   1.0000   1.0000
     1.0000   1.0000   1.0000   1.0000   1.0000   1.0000   1.0000   1.0000
     1.0000   1.0000   1.0000   1.0000   1.0000   1.0000   1.0000   1.0000
     1.0000   1.0000   1.0000   1.0000   1.0000   1.0000   1.0000   1.0000
     1.0000   1.0000   1.0000   1.0000   1.0000   1.0000   1.0739   1.0739
     0.3636   0.3189   0.0159   0.0159   0.0086   0.0085   0.0004   0.0003
     0.0000   0.0000   0.0000   0.0000   0.0000   0.0000   0.0000   0.0000
     0.0000   0.0000   0.0000   0.0000   0.0000   0.0000   0.0000   0.0000

          k = 0.0000 0.3000 0.0000 (201139 PWs)   bands (ev):

   -48.8805 -48.8797 -48.8796 -48.8790 -48.8787 -48.8781 -48.8781 -48.8773
   -48.4578 -48.4569 -48.4556 -48.4548 -48.4546 -48.4538 -48.4537 -48.4529
   -48.4489 -48.4438 -48.4393 -48.4386 -48.4385 -48.4377 -48.4367 -48.4363
   -48.4220 -48.4215 -48.4211 -48.4208 -48.4203 -48.4199 -48.4198 -48.4183
    -5.1685  -4.8464  -4.3619  -4.2062  -3.8814  -3.7597  -3.3924  -3.1022
    -2.7888  -2.7624  -2.7624  -2.4431  -2.4431  -2.3831  -2.1481  -1.9941
    -1.9940  -1.9696  -1.9696  -1.5820  -1.5820  -1.5736  -1.5734  -1.5478
    -1.5169  -1.2597  -1.1643  -1.0063  -1.0063  -0.6355  -0.4514  -0.3928
    -0.3927  -0.3925  -0.1254  -0.1252  -0.1250   0.1835   0.2270   0.4842

     occupation numbers 
     1.0000   1.0000   1.0000   1.0000   1.0000   1.0000   1.0000   1.0000
     1.0000   1.0000   1.0000   1.0000   1.0000   1.0000   1.0000   1.0000
     1.0000   1.0000   1.0000   1.0000   1.0000   1.0000   1.0000   1.0000
     1.0000   1.0000   1.0000   1.0000   1.0000   1.0000   1.0000   1.0000
     1.0000   1.0000   1.0000   1.0000   1.0000   1.0000   1.0000   1.0000
     1.0000   1.0000   1.0000   1.0000   1.0000   1.0001   1.0609   0.8685
     0.8683   0.7496   0.7496   0.0000   0.0000   0.0000   0.0000   0.0000
     0.0000   0.0000   0.0000   0.0000   0.0000   0.0000   0.0000   0.0000
     0.0000   0.0000   0.0000   0.0000   0.0000   0.0000   0.0000   0.0000

          k = 0.0000 0.4000 0.0000 (201125 PWs)   bands (ev):

   -48.8803 -48.8798 -48.8794 -48.8790 -48.8788 -48.8783 -48.8779 -48.8775
   -48.4572 -48.4564 -48.4561 -48.4553 -48.4544 -48.4539 -48.4536 -48.4531
   -48.4480 -48.4453 -48.4391 -48.4387 -48.4384 -48.4379 -48.4364 -48.4362
   -48.4218 -48.4213 -48.4210 -48.4206 -48.4201 -48.4201 -48.4199 -48.4188
    -5.0010  -4.6776  -4.5203  -4.1950  -4.1903  -3.7042  -3.5836  -3.0935
    -2.9215  -2.6100  -2.6100  -2.4310  -2.2795  -2.2794  -2.2052  -2.2028
    -2.2028  -1.8386  -1.8385  -1.8099  -1.8099  -1.7458  -1.3624  -1.3621
    -1.3547  -1.3068  -1.3068  -1.0181  -0.7675  -0.7673  -0.6274  -0.4852
    -0.2448  -0.2403   0.0354   0.0543   0.0547   0.4017   0.4048   0.5356

     occupation numbers 
     1.0000   1.0000   1.0000   1.0000   1.0000   1.0000   1.0000   1.0000
     1.0000   1.0000   1.0000   1.0000   1.0000   1.0000   1.0000   1.0000
     1.0000   1.0000   1.0000   1.0000   1.0000   1.0000   1.0000   1.0000
     1.0000   1.0000   1.0000   1.0000   1.0000   1.0000   1.0000   1.0000
     1.0000   1.0000   1.0000   1.0000   1.0000   1.0000   1.0000   1.0000
     1.0000   1.0000   1.0000   1.0000   1.0042   1.0042   1.0251   1.0263
     1.0263   0.1413   0.1411   0.0788   0.0787   0.0158   0.0000   0.0000
     0.0000   0.0000   0.0000   0.0000   0.0000   0.0000   0.0000   0.0000
     0.0000   0.0000   0.0000   0.0000   0.0000   0.0000   0.0000   0.0000

          k = 0.0000-0.5000 0.0000 (201080 PWs)   bands (ev):

   -48.8800 -48.8800 -48.8792 -48.8792 -48.8786 -48.8785 -48.8777 -48.8777
   -48.4567 -48.4567 -48.4559 -48.4558 -48.4541 -48.4541 -48.4533 -48.4533
   -48.4467 -48.4467 -48.4389 -48.4389 -48.4381 -48.4381 -48.4362 -48.4362
   -48.4216 -48.4215 -48.4205 -48.4205 -48.4204 -48.4204 -48.4193 -48.4193
    -4.7851  -4.7851  -4.4605  -4.4605  -3.9707  -3.9707  -3.3604  -3.3604
    -2.6950  -2.6950  -2.4209  -2.4209  -2.4209  -2.4209  -2.0755  -2.0755
    -2.0755  -2.0755  -1.9865  -1.9865  -1.5787  -1.5787  -1.5787  -1.5787
    -1.1681  -1.1681  -1.0927  -1.0927  -1.0925  -1.0925  -0.3532  -0.3532
     0.0792   0.0792   0.1105   0.1106   0.2777   0.2777   0.2781   0.2781

     occupation numbers 
     1.0000   1.0000   1.0000   1.0000   1.0000   1.0000   1.0000   1.0000
     1.0000   1.0000   1.0000   1.0000   1.0000   1.0000   1.0000   1.0000
     1.0000   1.0000   1.0000   1.0000   1.0000   1.0000   1.0000   1.0000
     1.0000   1.0000   1.0000   1.0000   1.0000   1.0000   1.0000   1.0000
     1.0000   1.0000   1.0000   1.0000   1.0000   1.0000   1.0000   1.0000
     1.0000   1.0000   1.0000   1.0000   1.0000   1.0000   1.0762   1.0761
     1.0761   1.0761   0.8337   0.8336   0.0000   0.0000   0.0000   0.0000
     0.0000   0.0000   0.0000   0.0000   0.0000   0.0000   0.0000   0.0000
     0.0000   0.0000   0.0000   0.0000   0.0000   0.0000   0.0000   0.0000

          k = 0.1000 0.1000 0.0000 (201192 PWs)   bands (ev):

   -48.8807 -48.8799 -48.8793 -48.8793 -48.8784 -48.8784 -48.8779 -48.8771
   -48.4584 -48.4575 -48.4549 -48.4549 -48.4541 -48.4541 -48.4534 -48.4527
   -48.4499 -48.4407 -48.4407 -48.4383 -48.4380 -48.4380 -48.4374 -48.4364
   -48.4222 -48.4222 -48.4210 -48.4210 -48.4209 -48.4197 -48.4194 -48.4177
    -5.3356  -5.0152  -4.5341  -3.9375  -3.4052  -3.4052  -3.2861  -3.0876
    -3.0876  -2.6219  -2.6219  -2.5654  -2.4273  -2.4273  -2.1443  -2.1443
    -2.1000  -2.1000  -1.8044  -1.7930  -1.7930  -1.7142  -1.7142  -1.6877
    -1.4449  -1.3873  -0.9914  -0.8057  -0.7491  -0.3887  -0.3887  -0.3604
    -0.3604  -0.3159  -0.2776  -0.0370   0.0214   0.0297   0.2891   0.3398

     occupation numbers 
     1.0000   1.0000   1.0000   1.0000   1.0000   1.0000   1.0000   1.0000
     1.0000   1.0000   1.0000   1.0000   1.0000   1.0000   1.0000   1.0000
     1.0000   1.0000   1.0000   1.0000   1.0000   1.0000   1.0000   1.0000
     1.0000   1.0000   1.0000   1.0000   1.0000   1.0000   1.0000   1.0000
     1.0000   1.0000   1.0000   1.0000   1.0000   1.0000   1.0000   1.0000
     1.0000   1.0000   1.0000   1.0000   1.0000   1.0000   1.0635   1.0635
     1.0832   1.0832   0.0697   0.0537   0.0537   0.0061   0.0061   0.0025
     0.0000   0.0000   0.0000   0.0000   0.0000   0.0000   0.0000   0.0000
     0.0000   0.0000   0.0000   0.0000   0.0000   0.0000   0.0000   0.0000

          k = 0.1000 0.2000 0.0000 (201095 PWs)   bands (ev):

   -48.8806 -48.8798 -48.8794 -48.8792 -48.8785 -48.8783 -48.8780 -48.8772
   -48.4581 -48.4573 -48.4552 -48.4548 -48.4544 -48.4540 -48.4536 -48.4528
   -48.4495 -48.4421 -48.4405 -48.4385 -48.4380 -48.4374 -48.4372 -48.4363
   -48.4221 -48.4219 -48.4210 -48.4209 -48.4207 -48.4198 -48.4196 -48.4180
    -5.2641  -4.9429  -4.4602  -3.8609  -3.8190  -3.4958  -3.3362  -3.2066
    -3.0152  -3.0127  -2.5436  -2.4864  -2.4305  -2.3615  -2.0811  -2.0714
    -2.0132  -1.8672  -1.8662  -1.7084  -1.6874  -1.6206  -1.6128  -1.6060
    -1.5001  -1.4520  -1.0908  -1.0126  -0.7296  -0.4577  -0.3983  -0.3728
    -0.3357  -0.3106  -0.2788  -0.2310   0.0577   0.1114   0.2413   0.3756

     occupation numbers 
     1.0000   1.0000   1.0000   1.0000   1.0000   1.0000   1.0000   1.0000
     1.0000   1.0000   1.0000   1.0000   1.0000   1.0000   1.0000   1.0000
     1.0000   1.0000   1.0000   1.0000   1.0000   1.0000   1.0000   1.0000
     1.0000   1.0000   1.0000   1.0000   1.0000   1.0000   1.0000   1.0000
     1.0000   1.0000   1.0000   1.0000   1.0000   1.0000   1.0000   1.0000
     1.0000   1.0000   1.0000   1.0000   1.0000   1.0003   1.0795   1.0730
     0.9455   0.2334   0.2296   0.0051   0.0025   0.0002   0.0001   0.0001
     0.0000   0.0000   0.0000   0.0000   0.0000   0.0000   0.0000   0.0000
     0.0000   0.0000   0.0000   0.0000   0.0000   0.0000   0.0000   0.0000

          k = 0.1000 0.3000 0.0000 (201150 PWs)   bands (ev):

   -48.8805 -48.8796 -48.8795 -48.8790 -48.8787 -48.8782 -48.8782 -48.8773
   -48.4577 -48.4569 -48.4555 -48.4547 -48.4546 -48.4538 -48.4537 -48.4529
   -48.4488 -48.4437 -48.4402 -48.4388 -48.4379 -48.4374 -48.4367 -48.4362
   -48.4219 -48.4215 -48.4211 -48.4207 -48.4203 -48.4199 -48.4198 -48.4183
    -5.1447  -4.8223  -4.3371  -4.1826  -3.8572  -3.7339  -3.3670  -3.2221
    -3.0754  -2.8954  -2.7618  -2.4139  -2.3638  -2.3561  -2.2542  -2.1190
    -1.9898  -1.9520  -1.8690  -1.5714  -1.5685  -1.5174  -1.4907  -1.4646
    -1.4267  -1.2387  -1.1648  -1.1366  -0.7576  -0.6085  -0.5719  -0.4252
    -0.3655  -0.2203  -0.1828  -0.1441  -0.0956   0.2152   0.2576   0.5147

     occupation numbers 
     1.0000   1.0000   1.0000   1.0000   1.0000   1.0000   1.0000   1.0000
     1.0000   1.0000   1.0000   1.0000   1.0000   1.0000   1.0000   1.0000
     1.0000   1.0000   1.0000   1.0000   1.0000   1.0000   1.0000   1.0000
     1.0000   1.0000   1.0000   1.0000   1.0000   1.0000   1.0000   1.0000
     1.0000   1.0000   1.0000   1.0000   1.0000   1.0000   1.0000   1.0000
     1.0000   1.0000   1.0000   1.0000   1.0002   1.0003   1.0083   1.0781
     0.8493   0.6551   0.2402   0.0000   0.0000   0.0000   0.0000   0.0000
     0.0000   0.0000   0.0000   0.0000   0.0000   0.0000   0.0000   0.0000
     0.0000   0.0000   0.0000   0.0000   0.0000   0.0000   0.0000   0.0000

          k = 0.1000 0.4000 0.0000 (201132 PWs)   bands (ev):

   -48.8802 -48.8798 -48.8794 -48.8789 -48.8788 -48.8784 -48.8780 -48.8775
   -48.4572 -48.4564 -48.4560 -48.4552 -48.4544 -48.4539 -48.4536 -48.4531
   -48.4478 -48.4452 -48.4399 -48.4392 -48.4378 -48.4375 -48.4364 -48.4362
   -48.4217 -48.4213 -48.4210 -48.4205 -48.4201 -48.4201 -48.4199 -48.4188
    -4.9772  -4.6534  -4.4966  -4.1708  -4.1654  -3.6790  -3.5577  -3.0669
    -3.0644  -2.8943  -2.7297  -2.6296  -2.4028  -2.2715  -2.2343  -2.1777
    -2.1097  -1.7902  -1.7477  -1.7357  -1.7164  -1.6687  -1.3762  -1.3757
    -1.3275  -1.2463  -1.1085  -0.9879  -0.8597  -0.6235  -0.6063  -0.4569
    -0.2160  -0.2156  -0.0095   0.0411   0.0662   0.4296   0.4335   0.4360

     occupation numbers 
     1.0000   1.0000   1.0000   1.0000   1.0000   1.0000   1.0000   1.0000
     1.0000   1.0000   1.0000   1.0000   1.0000   1.0000   1.0000   1.0000
     1.0000   1.0000   1.0000   1.0000   1.0000   1.0000   1.0000   1.0000
     1.0000   1.0000   1.0000   1.0000   1.0000   1.0000   1.0000   1.0000
     1.0000   1.0000   1.0000   1.0000   1.0000   1.0000   1.0000   1.0000
     1.0000   1.0000   1.0000   1.0000   1.0001   1.0052   1.0135   1.0409
     1.0815   0.0503   0.0166   0.0118   0.0065   0.0013   0.0000   0.0000
     0.0000   0.0000   0.0000   0.0000   0.0000   0.0000   0.0000   0.0000
     0.0000   0.0000   0.0000   0.0000   0.0000   0.0000   0.0000   0.0000

          k = 0.1000-0.5000 0.0000 (201002 PWs)   bands (ev):

   -48.8800 -48.8800 -48.8792 -48.8792 -48.8786 -48.8786 -48.8778 -48.8778
   -48.4566 -48.4566 -48.4558 -48.4558 -48.4542 -48.4542 -48.4534 -48.4534
   -48.4466 -48.4466 -48.4396 -48.4396 -48.4376 -48.4376 -48.4362 -48.4362
   -48.4215 -48.4215 -48.4206 -48.4206 -48.4203 -48.4203 -48.4193 -48.4193
    -4.7613  -4.7613  -4.4363  -4.4363  -3.9457  -3.9456  -3.3342  -3.3342
    -2.8655  -2.8655  -2.6674  -2.6674  -2.5204  -2.5204  -2.0070  -2.0070
    -1.9581  -1.9581  -1.9360  -1.9360  -1.5934  -1.5934  -1.4141  -1.4141
    -1.1395  -1.1395  -1.1363  -1.1363  -0.9658  -0.9658  -0.3231  -0.3231
     0.1099   0.1099   0.1299   0.1300   0.2004   0.2005   0.2717   0.2717

     occupation numbers 
     1.0000   1.0000   1.0000   1.0000   1.0000   1.0000   1.0000   1.0000
     1.0000   1.0000   1.0000   1.0000   1.0000   1.0000   1.0000   1.0000
     1.0000   1.0000   1.0000   1.0000   1.0000   1.0000   1.0000   1.0000
     1.0000   1.0000   1.0000   1.0000   1.0000   1.0000   1.0000   1.0000
     1.0000   1.0000   1.0000   1.0000   1.0000   1.0000   1.0000   1.0000
     1.0000   1.0000   1.0000   1.0000   1.0000   1.0000   0.9223   0.9223
     0.6884   0.6884   0.5666   0.5666   0.0001   0.0001   0.0000   0.0000
     0.0000   0.0000   0.0000   0.0000   0.0000   0.0000   0.0000   0.0000
     0.0000   0.0000   0.0000   0.0000   0.0000   0.0000   0.0000   0.0000

          k = 0.2000 0.2000 0.0000 (201180 PWs)   bands (ev):

   -48.8805 -48.8797 -48.8793 -48.8793 -48.8784 -48.8784 -48.8781 -48.8773
   -48.4579 -48.4570 -48.4550 -48.4550 -48.4542 -48.4542 -48.4537 -48.4529
   -48.4491 -48.4419 -48.4419 -48.4389 -48.4372 -48.4372 -48.4372 -48.4363
   -48.4218 -48.4218 -48.4210 -48.4207 -48.4207 -48.4199 -48.4197 -48.4182
    -5.1926  -4.8705  -4.3860  -3.7841  -3.7490  -3.7490  -3.4233  -3.4233
    -3.1269  -2.9358  -2.9358  -2.4177  -2.4067  -2.3472  -2.3472  -2.0407
    -1.8025  -1.8025  -1.7767  -1.7767  -1.5368  -1.5311  -1.5311  -1.4690
    -1.4088  -1.4088  -1.2580  -0.8047  -0.7676  -0.6522  -0.3809  -0.3809
    -0.3148  -0.3148  -0.1451  -0.0910  -0.0298   0.1526   0.2018   0.4636

     occupation numbers 
     1.0000   1.0000   1.0000   1.0000   1.0000   1.0000   1.0000   1.0000
     1.0000   1.0000   1.0000   1.0000   1.0000   1.0000   1.0000   1.0000
     1.0000   1.0000   1.0000   1.0000   1.0000   1.0000   1.0000   1.0000
     1.0000   1.0000   1.0000   1.0000   1.0000   1.0000   1.0000   1.0000
     1.0000   1.0000   1.0000   1.0000   1.0000   1.0000   1.0000   1.0000
     1.0000   1.0000   1.0000   1.0000   1.0000   1.0005   1.0005   1.0261
     0.0669   0.0669   0.0361   0.0361   0.0000   0.0000   0.0000   0.0000
     0.0000   0.0000   0.0000   0.0000   0.0000   0.0000   0.0000   0.0000
     0.0000   0.0000   0.0000   0.0000   0.0000   0.0000   0.0000   0.0000

          k = 0.2000 0.3000 0.0000 (201109 PWs)   bands (ev):

   -48.8803 -48.8795 -48.8794 -48.8791 -48.8786 -48.8783 -48.8783 -48.8774
   -48.4575 -48.4566 -48.4554 -48.4549 -48.4546 -48.4541 -48.4539 -48.4531
   -48.4484 -48.4434 -48.4416 -48.4395 -48.4371 -48.4371 -48.4366 -48.4362
   -48.4217 -48.4215 -48.4211 -48.4205 -48.4203 -48.4200 -48.4199 -48.4185
    -5.0732  -4.7498  -4.2628  -4.1121  -3.7846  -3.6567  -3.6330  -3.3030
    -3.2909  -2.9950  -2.8081  -2.7343  -2.6808  -2.3707  -2.2754  -2.2090
    -2.0319  -1.8197  -1.7004  -1.6265  -1.4262  -1.4127  -1.4094  -1.2573
    -1.2086  -1.1773  -1.1422  -1.0544  -0.7760  -0.5287  -0.4311  -0.3475
    -0.2844  -0.2566  -0.1773  -0.1639  -0.0077   0.3103   0.3491   0.4026

     occupation numbers 
     1.0000   1.0000   1.0000   1.0000   1.0000   1.0000   1.0000   1.0000
     1.0000   1.0000   1.0000   1.0000   1.0000   1.0000   1.0000   1.0000
     1.0000   1.0000   1.0000   1.0000   1.0000   1.0000   1.0000   1.0000
     1.0000   1.0000   1.0000   1.0000   1.0000   1.0000   1.0000   1.0000
     1.0000   1.0000   1.0000   1.0000   1.0000   1.0000   1.0000   1.0000
     1.0000   1.0000   1.0000   1.0000   1.0000   1.0002   1.0047   1.0233
     1.0044   0.0970   0.0039   0.0003   0.0000   0.0000   0.0000   0.0000
     0.0000   0.0000   0.0000   0.0000   0.0000   0.0000   0.0000   0.0000
     0.0000   0.0000   0.0000   0.0000   0.0000   0.0000   0.0000   0.0000

          k = 0.2000 0.4000 0.0000 (201067 PWs)   bands (ev):

   -48.8801 -48.8797 -48.8793 -48.8789 -48.8788 -48.8785 -48.8781 -48.8776
   -48.4570 -48.4561 -48.4559 -48.4551 -48.4546 -48.4541 -48.4538 -48.4533
   -48.4474 -48.4449 -48.4411 -48.4401 -48.4371 -48.4370 -48.4363 -48.4362
   -48.4216 -48.4213 -48.4210 -48.4204 -48.4202 -48.4201 -48.4199 -48.4189
    -4.9058  -4.5809  -4.4256  -4.0982  -4.0908  -3.6035  -3.4800  -3.4716
    -3.1357  -3.0193  -2.9875  -2.8131  -2.6667  -2.6307  -2.3184  -2.1336
    -2.0953  -2.0171  -1.6284  -1.5676  -1.4800  -1.4183  -1.2826  -1.2465
    -1.2465  -1.0468  -0.9083  -0.8973  -0.7928  -0.5462  -0.4693  -0.3728
    -0.1443  -0.1295  -0.0919   0.0113   0.1582   0.2758   0.5074   0.5293

     occupation numbers 
     1.0000   1.0000   1.0000   1.0000   1.0000   1.0000   1.0000   1.0000
     1.0000   1.0000   1.0000   1.0000   1.0000   1.0000   1.0000   1.0000
     1.0000   1.0000   1.0000   1.0000   1.0000   1.0000   1.0000   1.0000
     1.0000   1.0000   1.0000   1.0000   1.0000   1.0000   1.0000   1.0000
     1.0000   1.0000   1.0000   1.0000   1.0000   1.0000   1.0000   1.0000
     1.0000   1.0000   1.0000   1.0000   1.0000   1.0000   1.0012   1.0703
     1.0833   0.9592   0.0003   0.0000   0.0000   0.0000   0.0000   0.0000
     0.0000   0.0000   0.0000   0.0000   0.0000   0.0000   0.0000   0.0000
     0.0000   0.0000   0.0000   0.0000   0.0000   0.0000   0.0000   0.0000

          k = 0.2000-0.5000 0.0000 (201048 PWs)   bands (ev):

   -48.8799 -48.8799 -48.8791 -48.8791 -48.8787 -48.8787 -48.8779 -48.8779
   -48.4564 -48.4564 -48.4556 -48.4556 -48.4544 -48.4544 -48.4536 -48.4536
   -48.4463 -48.4463 -48.4406 -48.4406 -48.4370 -48.4370 -48.4362 -48.4362
   -48.4214 -48.4214 -48.4206 -48.4206 -48.4203 -48.4202 -48.4194 -48.4194
    -4.6901  -4.6901  -4.3637  -4.3637  -3.8707  -3.8707  -3.2663  -3.2663
    -3.2558  -3.2558  -2.9229  -2.9229  -2.5849  -2.5849  -2.4051  -2.4051
    -1.8734  -1.8734  -1.7731  -1.7731  -1.4189  -1.4189  -1.1586  -1.1586
    -1.0540  -1.0540  -1.0505  -1.0505  -0.7805  -0.7805  -0.2330  -0.2330
     0.0972   0.0972   0.1823   0.1823   0.2012   0.2012   0.2445   0.2445

     occupation numbers 
     1.0000   1.0000   1.0000   1.0000   1.0000   1.0000   1.0000   1.0000
     1.0000   1.0000   1.0000   1.0000   1.0000   1.0000   1.0000   1.0000
     1.0000   1.0000   1.0000   1.0000   1.0000   1.0000   1.0000   1.0000
     1.0000   1.0000   1.0000   1.0000   1.0000   1.0000   1.0000   1.0000
     1.0000   1.0000   1.0000   1.0000   1.0000   1.0000   1.0000   1.0000
     1.0000   1.0000   1.0000   1.0000   1.0000   1.0000   1.0000   1.0000
     0.2575   0.2575   0.0329   0.0329   0.0000   0.0000   0.0000   0.0000
     0.0000   0.0000   0.0000   0.0000   0.0000   0.0000   0.0000   0.0000
     0.0000   0.0000   0.0000   0.0000   0.0000   0.0000   0.0000   0.0000

          k = 0.3000 0.3000 0.0000 (201060 PWs)   bands (ev):

   -48.8802 -48.8793 -48.8793 -48.8793 -48.8785 -48.8785 -48.8784 -48.8776
   -48.4571 -48.4563 -48.4552 -48.4552 -48.4544 -48.4544 -48.4541 -48.4533
   -48.4477 -48.4430 -48.4430 -48.4402 -48.4368 -48.4366 -48.4366 -48.4362
   -48.4214 -48.4214 -48.4212 -48.4203 -48.4203 -48.4201 -48.4200 -48.4188
    -4.9540  -4.6291  -4.1392  -3.9947  -3.9947  -3.6640  -3.6640  -3.5288
    -3.1646  -3.1646  -3.0706  -2.8622  -2.7157  -2.5464  -2.5464  -2.1769
    -2.1421  -1.8872  -1.8872  -1.5076  -1.2852  -1.2757  -1.2757  -1.0808
    -1.0808  -0.9470  -0.9213  -0.9213  -0.7823  -0.4939  -0.4004  -0.2214
    -0.2214  -0.1531  -0.1531  -0.0759   0.1341   0.2194   0.4685   0.4990

     occupation numbers 
     1.0000   1.0000   1.0000   1.0000   1.0000   1.0000   1.0000   1.0000
     1.0000   1.0000   1.0000   1.0000   1.0000   1.0000   1.0000   1.0000
     1.0000   1.0000   1.0000   1.0000   1.0000   1.0000   1.0000   1.0000
     1.0000   1.0000   1.0000   1.0000   1.0000   1.0000   1.0000   1.0000
     1.0000   1.0000   1.0000   1.0000   1.0000   1.0000   1.0000   1.0000
     1.0000   1.0000   1.0000   1.0000   1.0000   1.0000   1.0000   1.0414
     1.0649   0.3162   0.3162   0.0000   0.0000   0.0000   0.0000   0.0000
     0.0000   0.0000   0.0000   0.0000   0.0000   0.0000   0.0000   0.0000
     0.0000   0.0000   0.0000   0.0000   0.0000   0.0000   0.0000   0.0000

          k = 0.3000 0.4000 0.0000 (200978 PWs)   bands (ev):

   -48.8800 -48.8795 -48.8791 -48.8791 -48.8787 -48.8786 -48.8782 -48.8778
   -48.4566 -48.4558 -48.4556 -48.4549 -48.4548 -48.4543 -48.4541 -48.4535
   -48.4468 -48.4444 -48.4424 -48.4410 -48.4367 -48.4366 -48.4363 -48.4361
   -48.4214 -48.4212 -48.4211 -48.4204 -48.4202 -48.4201 -48.4199 -48.4191
    -4.7867  -4.4601  -4.3074  -3.9774  -3.9667  -3.8309  -3.4957  -3.4781
    -3.3674  -3.3511  -3.0201  -2.9886  -2.8556  -2.6786  -2.4929  -2.3597
    -2.1786  -1.9592  -1.8368  -1.6863  -1.4825  -1.1263  -1.1136  -1.0727
    -0.9569  -0.8463  -0.7470  -0.7469  -0.4598  -0.4412  -0.4291  -0.2363
    -0.0537  -0.0362   0.0147   0.0194   0.3094   0.3226   0.3610   0.6830

     occupation numbers 
     1.0000   1.0000   1.0000   1.0000   1.0000   1.0000   1.0000   1.0000
     1.0000   1.0000   1.0000   1.0000   1.0000   1.0000   1.0000   1.0000
     1.0000   1.0000   1.0000   1.0000   1.0000   1.0000   1.0000   1.0000
     1.0000   1.0000   1.0000   1.0000   1.0000   1.0000   1.0000   1.0000
     1.0000   1.0000   1.0000   1.0000   1.0000   1.0000   1.0000   1.0000
     1.0000   1.0000   1.0000   1.0000   1.0000   1.0000   1.0000   1.0003
     1.0403   0.6944   0.1365   0.0024   0.0000   0.0000   0.0000   0.0000
     0.0000   0.0000   0.0000   0.0000   0.0000   0.0000   0.0000   0.0000
     0.0000   0.0000   0.0000   0.0000   0.0000   0.0000   0.0000   0.0000

          k = 0.3000-0.5000 0.0000 (201006 PWs)   bands (ev):

   -48.8797 -48.8797 -48.8789 -48.8789 -48.8789 -48.8788 -48.8780 -48.8780
   -48.4561 -48.4561 -48.4553 -48.4553 -48.4546 -48.4546 -48.4538 -48.4538
   -48.4457 -48.4457 -48.4417 -48.4417 -48.4366 -48.4366 -48.4362 -48.4362
   -48.4213 -48.4213 -48.4207 -48.4207 -48.4201 -48.4201 -48.4195 -48.4195
    -4.5713  -4.5713  -4.2428  -4.2428  -3.7460  -3.7460  -3.6215  -3.6214
    -3.2807  -3.2807  -3.1257  -3.1257  -2.7642  -2.7642  -2.4482  -2.4482
    -2.1223  -2.1223  -1.7333  -1.7333  -1.4311  -1.4311  -0.9132  -0.9132
    -0.8945  -0.8945  -0.7590  -0.7590  -0.5577  -0.5577  -0.0847  -0.0847
     0.1435   0.1435   0.2065   0.2066   0.2434   0.2434   0.3500   0.3500

     occupation numbers 
     1.0000   1.0000   1.0000   1.0000   1.0000   1.0000   1.0000   1.0000
     1.0000   1.0000   1.0000   1.0000   1.0000   1.0000   1.0000   1.0000
     1.0000   1.0000   1.0000   1.0000   1.0000   1.0000   1.0000   1.0000
     1.0000   1.0000   1.0000   1.0000   1.0000   1.0000   1.0000   1.0000
     1.0000   1.0000   1.0000   1.0000   1.0000   1.0000   1.0000   1.0000
     1.0000   1.0000   1.0000   1.0000   1.0000   1.0000   1.0000   1.0000
     1.0766   1.0766   0.0110   0.0110   0.0000   0.0000   0.0000   0.0000
     0.0000   0.0000   0.0000   0.0000   0.0000   0.0000   0.0000   0.0000
     0.0000   0.0000   0.0000   0.0000   0.0000   0.0000   0.0000   0.0000

          k = 0.4000 0.4000 0.0000 (200868 PWs)   bands (ev):

   -48.8798 -48.8793 -48.8793 -48.8789 -48.8788 -48.8785 -48.8785 -48.8780
   -48.4562 -48.4554 -48.4553 -48.4553 -48.4546 -48.4545 -48.4545 -48.4538
   -48.4459 -48.4437 -48.4437 -48.4420 -48.4364 -48.4363 -48.4363 -48.4361
   -48.4212 -48.4211 -48.4211 -48.4206 -48.4200 -48.4199 -48.4199 -48.4194
    -4.6198  -4.2910  -4.1420  -4.1420  -3.8086  -3.8086  -3.7936  -3.6714
    -3.3291  -3.3033  -3.3033  -3.1722  -2.8092  -2.6724  -2.6724  -2.4928
    -2.1594  -1.9847  -1.9847  -1.7721  -1.4489  -1.2801  -1.2801  -0.9336
    -0.7285  -0.5382  -0.5382  -0.5127  -0.3773  -0.3773  -0.0599  -0.0572
     0.0463   0.0795   0.0795   0.2167   0.2167   0.5084   0.6528   0.7173

     occupation numbers 
     1.0000   1.0000   1.0000   1.0000   1.0000   1.0000   1.0000   1.0000
     1.0000   1.0000   1.0000   1.0000   1.0000   1.0000   1.0000   1.0000
     1.0000   1.0000   1.0000   1.0000   1.0000   1.0000   1.0000   1.0000
     1.0000   1.0000   1.0000   1.0000   1.0000   1.0000   1.0000   1.0000
[...]
     atom   19 type  1   force =     0.00000000    0.00000000    0.00296150
     atom   20 type  1   force =     0.00000046   -0.00000046    0.00026533
     atom   21 type  1   force =     0.00000000    0.00000000   -0.00028383
     atom   22 type  1   force =    -0.00000104    0.00000104   -0.00290062
     atom   23 type  1   force =     0.00000000    0.00000000    0.03368101
     atom   24 type  1   force =     0.00000053   -0.00000053    0.00342831
     atom   25 type  1   force =     0.00000000    0.00000000   -0.00345140
     atom   26 type  1   force =    -0.00000004   -0.00000004   -0.03369892
     atom   27 type  1   force =     0.00000000    0.00000000    0.00296082
     atom   28 type  1   force =     0.00000046    0.00000046    0.00026533
     atom   29 type  1   force =     0.00000000    0.00000000   -0.00028361
     atom   30 type  1   force =    -0.00000104   -0.00000104   -0.00290062
     atom   31 type  1   force =     0.00000000    0.00000000    0.03367977
     atom   32 type  1   force =     0.00000053    0.00000053    0.00342831
     The ionic contribution  to forces
     atom    1 type  1   force =    -0.00000001   -0.00000001   -9.85224724
     atom    2 type  1   force =     0.00000032    0.00000032  -13.49058609
     atom    3 type  1   force =    -0.00000001   -0.00000001   -1.96258659
     atom    4 type  1   force =    -0.00000703   -0.00000703   -5.93364548
     atom    5 type  1   force =    -0.00000000   -0.00000000    5.93419421
     atom    6 type  1   force =     0.00001935    0.00001935    1.96333762
     atom    7 type  1   force =    -0.00000001   -0.00000001   13.48985121
     atom    8 type  1   force =    -0.00000849   -0.00000849    9.85164641
     atom    9 type  1   force =    -0.00000001    0.00000001   -9.85222478
     atom   10 type  1   force =     0.00000032   -0.00000032  -13.49058606
     atom   11 type  1   force =    -0.00000001    0.00000001   -1.96260618
     atom   12 type  1   force =    -0.00000703    0.00000704   -5.93364550
     atom   13 type  1   force =    -0.00000000   -0.00000000    5.93426985
     atom   14 type  1   force =     0.00001935   -0.00001935    1.96333761
     atom   15 type  1   force =    -0.00000001    0.00000001   13.48984736
     atom   16 type  1   force =    -0.00000849    0.00000850    9.85164643
     atom   17 type  1   force =     0.00000001   -0.00000001   -9.85222478
     atom   18 type  1   force =    -0.00000032    0.00000032  -13.49058606
     atom   19 type  1   force =     0.00000001   -0.00000001   -1.96260618
     atom   20 type  1   force =     0.00000704   -0.00000703   -5.93364550
     atom   21 type  1   force =    -0.00000000   -0.00000000    5.93426985
     atom   22 type  1   force =    -0.00001935    0.00001935    1.96333761
     atom   23 type  1   force =     0.00000001   -0.00000001   13.48984736
     atom   24 type  1   force =     0.00000850   -0.00000849    9.85164643
     atom   25 type  1   force =     0.00000001    0.00000001   -9.85223598
     atom   26 type  1   force =    -0.00000032   -0.00000032  -13.49058605
     atom   27 type  1   force =     0.00000001    0.00000001   -1.96262331
     atom   28 type  1   force =     0.00000704    0.00000704   -5.93364550
     atom   29 type  1   force =    -0.00000000   -0.00000000    5.93421451
     atom   30 type  1   force =    -0.00001935   -0.00001935    1.96333761
     atom   31 type  1   force =     0.00000001    0.00000001   13.48985075
     atom   32 type  1   force =     0.00000850    0.00000850    9.85164645
     The local contribution  to forces
     atom    1 type  1   force =     0.00000407    0.00000407    9.72727685
     atom    2 type  1   force =     0.00000431    0.00000431   13.38063055
     atom    3 type  1   force =     0.00000407    0.00000407    1.93451990
     atom    4 type  1   force =     0.00001188    0.00001188    5.85743777
     atom    5 type  1   force =     0.00000407    0.00000407   -5.85796304
     atom    6 type  1   force =    -0.00001528   -0.00001528   -1.93528990
     atom    7 type  1   force =     0.00000349    0.00000349  -13.37984988
     atom    8 type  1   force =     0.00001312    0.00001312   -9.72661332
     atom    9 type  1   force =     0.00000407    0.00000499    9.72725476
     atom   10 type  1   force =     0.00000431    0.00000511   13.38062936
     atom   11 type  1   force =     0.00000407    0.00000441    1.93453734
     atom   12 type  1   force =     0.00001188   -0.00000249    5.85743838
     atom   13 type  1   force =     0.00000407    0.00000383   -5.85803741
     atom   14 type  1   force =    -0.00001528    0.00002410   -1.93528990
     atom   15 type  1   force =     0.00000349    0.00000442  -13.37984644
     atom   16 type  1   force =     0.00001312   -0.00000431   -9.72661392
     atom   17 type  1   force =     0.00000499    0.00000407    9.72725476
     atom   18 type  1   force =     0.00000511    0.00000431   13.38062936
     atom   19 type  1   force =     0.00000441    0.00000407    1.93453734
     atom   20 type  1   force =    -0.00000249    0.00001188    5.85743838
     atom   21 type  1   force =     0.00000383    0.00000407   -5.85803741
     atom   22 type  1   force =     0.00002410   -0.00001528   -1.93528990
     atom   23 type  1   force =     0.00000442    0.00000349  -13.37984644
     atom   24 type  1   force =    -0.00000431    0.00001312   -9.72661392
     atom   25 type  1   force =     0.00000499    0.00000499    9.72726643
     atom   26 type  1   force =     0.00000511    0.00000511   13.38062876
     atom   27 type  1   force =     0.00000441    0.00000441    1.93455527
     atom   28 type  1   force =    -0.00000249   -0.00000249    5.85743838
     atom   29 type  1   force =     0.00000383    0.00000383   -5.85798169
     atom   30 type  1   force =     0.00002410    0.00002410   -1.93528990
     atom   31 type  1   force =     0.00000442    0.00000442  -13.37984898
     atom   32 type  1   force =    -0.00000431   -0.00000431   -9.72661392
     The core correction contribution to forces
     atom    1 type  1   force =     0.00000000    0.00000000    0.00000000
     atom    2 type  1   force =     0.00000000    0.00000000    0.00000000
     atom    3 type  1   force =     0.00000000    0.00000000    0.00000000
     atom    4 type  1   force =     0.00000000    0.00000000    0.00000000
     atom    5 type  1   force =     0.00000000    0.00000000    0.00000000
     atom    6 type  1   force =     0.00000000    0.00000000    0.00000000
     atom    7 type  1   force =     0.00000000    0.00000000    0.00000000
     atom    8 type  1   force =     0.00000000    0.00000000    0.00000000
     atom    9 type  1   force =     0.00000000    0.00000000    0.00000000
     atom   10 type  1   force =     0.00000000    0.00000000    0.00000000
     atom   11 type  1   force =     0.00000000    0.00000000    0.00000000
     atom   12 type  1   force =     0.00000000    0.00000000    0.00000000
     atom   13 type  1   force =     0.00000000    0.00000000    0.00000000
     atom   14 type  1   force =     0.00000000    0.00000000    0.00000000
     atom   15 type  1   force =     0.00000000    0.00000000    0.00000000
     atom   16 type  1   force =     0.00000000    0.00000000    0.00000000
     atom   17 type  1   force =     0.00000000    0.00000000    0.00000000
     atom   18 type  1   force =     0.00000000    0.00000000    0.00000000
     atom   19 type  1   force =     0.00000000    0.00000000    0.00000000
     atom   20 type  1   force =     0.00000000    0.00000000    0.00000000
     atom   21 type  1   force =     0.00000000    0.00000000    0.00000000
     atom   22 type  1   force =     0.00000000    0.00000000    0.00000000
     atom   23 type  1   force =     0.00000000    0.00000000    0.00000000
     atom   24 type  1   force =     0.00000000    0.00000000    0.00000000
     atom   25 type  1   force =     0.00000000    0.00000000    0.00000000
     atom   26 type  1   force =     0.00000000    0.00000000    0.00000000
     atom   27 type  1   force =     0.00000000    0.00000000    0.00000000
     atom   28 type  1   force =     0.00000000    0.00000000    0.00000000
     atom   29 type  1   force =     0.00000000    0.00000000    0.00000000
     atom   30 type  1   force =     0.00000000    0.00000000    0.00000000
     atom   31 type  1   force =     0.00000000    0.00000000    0.00000000
     atom   32 type  1   force =     0.00000000    0.00000000    0.00000000
     The Hubbard contrib.    to forces
     atom    1 type  1   force =     0.00000000    0.00000000    0.00000000
     atom    2 type  1   force =     0.00000000    0.00000000    0.00000000
     atom    3 type  1   force =     0.00000000    0.00000000    0.00000000
     atom    4 type  1   force =     0.00000000    0.00000000    0.00000000
     atom    5 type  1   force =     0.00000000    0.00000000    0.00000000
     atom    6 type  1   force =     0.00000000    0.00000000    0.00000000
     atom    7 type  1   force =     0.00000000    0.00000000    0.00000000
     atom    8 type  1   force =     0.00000000    0.00000000    0.00000000
     atom    9 type  1   force =     0.00000000    0.00000000    0.00000000
     atom   10 type  1   force =     0.00000000    0.00000000    0.00000000
     atom   11 type  1   force =     0.00000000    0.00000000    0.00000000
     atom   12 type  1   force =     0.00000000    0.00000000    0.00000000
     atom   13 type  1   force =     0.00000000    0.00000000    0.00000000
     atom   14 type  1   force =     0.00000000    0.00000000    0.00000000
     atom   15 type  1   force =     0.00000000    0.00000000    0.00000000
     atom   16 type  1   force =     0.00000000    0.00000000    0.00000000
     atom   17 type  1   force =     0.00000000    0.00000000    0.00000000
     atom   18 type  1   force =     0.00000000    0.00000000    0.00000000
     atom   19 type  1   force =     0.00000000    0.00000000    0.00000000
     atom   20 type  1   force =     0.00000000    0.00000000    0.00000000
     atom   21 type  1   force =     0.00000000    0.00000000    0.00000000
     atom   22 type  1   force =     0.00000000    0.00000000    0.00000000
     atom   23 type  1   force =     0.00000000    0.00000000    0.00000000
     atom   24 type  1   force =     0.00000000    0.00000000    0.00000000
     atom   25 type  1   force =     0.00000000    0.00000000    0.00000000
     atom   26 type  1   force =     0.00000000    0.00000000    0.00000000
     atom   27 type  1   force =     0.00000000    0.00000000    0.00000000
     atom   28 type  1   force =     0.00000000    0.00000000    0.00000000
     atom   29 type  1   force =     0.00000000    0.00000000    0.00000000
     atom   30 type  1   force =     0.00000000    0.00000000    0.00000000
     atom   31 type  1   force =     0.00000000    0.00000000    0.00000000
     atom   32 type  1   force =     0.00000000    0.00000000    0.00000000
     The SCF correction term to forces
     atom    1 type  1   force =     0.00000000    0.00000000    0.00000065
     atom    2 type  1   force =    -0.00000000   -0.00000000    0.00000066
     atom    3 type  1   force =    -0.00000000    0.00000000    0.00000021
     atom    4 type  1   force =    -0.00000001   -0.00000001    0.00000053
     atom    5 type  1   force =     0.00000000    0.00000000    0.00000019
     atom    6 type  1   force =     0.00000001    0.00000001    0.00000035
     atom    7 type  1   force =    -0.00000000   -0.00000000   -0.00000061
     atom    8 type  1   force =    -0.00000000   -0.00000000    0.00000015
     atom    9 type  1   force =     0.00000000   -0.00000000    0.00000065
     atom   10 type  1   force =    -0.00000000    0.00000000    0.00000066
     atom   11 type  1   force =     0.00000000    0.00000000    0.00000021
     atom   12 type  1   force =    -0.00000001    0.00000001    0.00000053
     atom   13 type  1   force =    -0.00000000   -0.00000000    0.00000019
     atom   14 type  1   force =     0.00000001   -0.00000001    0.00000035
     atom   15 type  1   force =    -0.00000000    0.00000000   -0.00000059
     atom   16 type  1   force =    -0.00000000    0.00000000    0.00000015
     atom   17 type  1   force =    -0.00000000    0.00000000    0.00000065
     atom   18 type  1   force =     0.00000000   -0.00000000    0.00000066
     atom   19 type  1   force =    -0.00000000    0.00000000    0.00000021
     atom   20 type  1   force =     0.00000001   -0.00000001    0.00000053
     atom   21 type  1   force =    -0.00000000   -0.00000000    0.00000019
     atom   22 type  1   force =    -0.00000001    0.00000001    0.00000035
     atom   23 type  1   force =    -0.00000000    0.00000000   -0.00000059
     atom   24 type  1   force =     0.00000000   -0.00000000    0.00000015
     atom   25 type  1   force =    -0.00000000   -0.00000000    0.00000066
     atom   26 type  1   force =     0.00000000    0.00000000    0.00000066
     atom   27 type  1   force =    -0.00000000   -0.00000000    0.00000023
     atom   28 type  1   force =     0.00000001    0.00000001    0.00000053
     atom   29 type  1   force =    -0.00000000    0.00000000    0.00000017
     atom   30 type  1   force =    -0.00000001   -0.00000001    0.00000035
     atom   31 type  1   force =     0.00000000    0.00000000   -0.00000057
     atom   32 type  1   force =     0.00000000    0.00000000    0.00000015

     Total force =     0.000750     Total SCF correction =     0.000003
     Energy error            =      5.9E-07 Ry
     Gradient error          =      2.5E-04 Ry/Bohr

     bfgs converged in   9 scf cycles and   8 bfgs steps
     (criteria: energy <  1.0E-05 Ry, force <  3.9E-04 Ry/Bohr)

     End of BFGS Geometry Optimization

     Final energy             =    -481.3161111879 Ry

     File ./Li/Lithium.bfgs deleted, as requested
Begin final coordinates

ATOMIC_POSITIONS (angstrom)
Li              -0.0000000700       -0.0000000700       21.8130964303
Li               1.7175789337        1.7175789337       20.0141152698
Li              -0.0000000700       -0.0000000700       25.2625392734
Li               1.7175774298        1.7175774298       23.5179589395
Li              -0.0000000700       -0.0000000700       28.7230602651
Li               1.7175742641        1.7175742641       26.9768498143
Li              -0.0000000600       -0.0000000600       32.2283166005
Li               1.7175791335        1.7175791335       30.4284736072
Li              -0.0000000700        3.4351561600       21.8131133320
Li               1.7175789337        5.1527333963       20.0141152898
Li              -0.0000000700        3.4351561700       25.2625125488
Li               1.7175774298        5.1527349002       23.5179589295
Li              -0.0000000700        3.4351561800       28.7231197740
Li               1.7175742641        5.1527380759       26.9768498143
Li              -0.0000000600        3.4351561700       32.2283013273
Li               1.7175791335        5.1527332065       30.4284736172
Li               3.4351561600       -0.0000000700       21.8131133320
Li               5.1527333963        1.7175789337       20.0141152898
Li               3.4351561700       -0.0000000700       25.2625125488
Li               5.1527349002        1.7175774298       23.5179589295
Li               3.4351561800       -0.0000000700       28.7231197740
Li               5.1527380759        1.7175742641       26.9768498143
Li               3.4351561700       -0.0000000600       32.2283013273
Li               5.1527332065        1.7175791335       30.4284736172
Li               3.4351561600        3.4351561600       21.8131077887
Li               5.1527333963        5.1527333963       20.0141152998
Li               3.4351561700        3.4351561700       25.2624984316
Li               5.1527349002        5.1527349002       23.5179589295
Li               3.4351561800        3.4351561800       28.7230935328
Li               5.1527380759        5.1527380759       26.9768498143
Li               3.4351561700        3.4351561700       32.2283051662
Li               5.1527332065        5.1527332065       30.4284736172
End final coordinates



     Writing all to output data dir ./Li/Lithium.save/ :
     XML data file
     init_run     :     13.94s CPU     22.71s WALL (       1 calls)
     electrons    :   2889.78s CPU   3599.61s WALL (       9 calls)
     update_pot   :      0.57s CPU      0.71s WALL (       8 calls)
     forces       :     83.75s CPU     91.63s WALL (       9 calls)

     Called by init_run:
     wfcinit      :      2.51s CPU      3.38s WALL (       1 calls)
     wfcinit:wfcr :      2.37s CPU      3.23s WALL (      21 calls)
     potinit      :      0.69s CPU      0.74s WALL (       1 calls)
     hinit0       :      2.46s CPU      2.73s WALL (       1 calls)

     Called by electrons:
     c_bands      :   2219.55s CPU   2769.56s WALL (     158 calls)
     sum_band     :    178.57s CPU    244.31s WALL (     158 calls)
     v_of_rho     :      7.99s CPU      9.62s WALL (     159 calls)
     v_h          :      0.76s CPU      0.91s WALL (     159 calls)
     v_xc         :      7.23s CPU      8.71s WALL (     159 calls)
     newd         :      6.94s CPU      7.28s WALL (     159 calls)
     PAW_pot      :      1.48s CPU      1.84s WALL (     167 calls)
     mix_rho      :     23.16s CPU     29.33s WALL (     158 calls)

     Called by c_bands:
     init_us_2    :     20.45s CPU     21.47s WALL (    7014 calls)
     cegterg      :   2190.85s CPU   2737.22s WALL (    3654 calls)

     Called by sum_band:
     sum_band:wei :      0.22s CPU      0.25s WALL (     158 calls)
     sum_band:loo :    169.73s CPU    234.78s WALL (     158 calls)
     sum_band:buf :      2.22s CPU      2.42s WALL (    3318 calls)
     sum_band:ini :      9.45s CPU      9.56s WALL (    3318 calls)
     sum_band:cal :     25.45s CPU     30.48s WALL (    3486 calls)
     sum_band:bec :      0.54s CPU      0.61s WALL (    3486 calls)
     addusdens    :      7.05s CPU      7.13s WALL (     158 calls)
                                        0.00s GPU  (     158 calls)
     addusd:skk   :      1.69s CPU      1.70s WALL (     158 calls)
                                        0.00s GPU  (     158 calls)

     Called by *egterg:
     cdiaghg      :    603.91s CPU    628.18s WALL (   36906 calls)
     cegterg:over :    126.86s CPU    141.27s WALL (   33699 calls)
     cegterg:upda :     84.44s CPU     87.62s WALL (   33699 calls)
     cegterg:last :     25.54s CPU     25.81s WALL (    4243 calls)
     h_psi        :   1209.10s CPU   1704.77s WALL (   37374 calls)
     s_psi        :     84.95s CPU     86.75s WALL (   37374 calls)
     g_psi        :      1.42s CPU      1.49s WALL (   33699 calls)

     Called by h_psi:
     h_psi:calbec :    124.80s CPU    152.16s WALL (   37374 calls)
     vloc_psi     :    982.28s CPU   1445.54s WALL (   37374 calls)
                                        0.00s GPU  (   37374 calls)
     add_vuspsi   :     96.63s CPU    101.08s WALL (   37374 calls)

     General routines
     calbec       :    154.96s CPU    187.91s WALL (   41616 calls)
     fft          :      7.48s CPU      9.49s WALL (    2083 calls)
     ffts         :     17.92s CPU     22.75s WALL (   17660 calls)
     fftw         :   1077.52s CPU   1585.69s WALL ( 2013576 calls)
     interpolate  :      1.32s CPU      1.50s WALL (     159 calls)

     Parallel routines

     PAW routines
     PAW_pot      :      1.48s CPU      1.84s WALL (     167 calls)
     PAW_symme    :      0.03s CPU      0.04s WALL (     325 calls)

     Environ routines

     PWSCF        :  50m28.39s CPU      1h 2m WALL


   This run was terminated on:  13:13:53   3Jan2025            

=------------------------------------------------------------------------------=
   JOB DONE.
=------------------------------------------------------------------------------=
