
     Program PWSCF v.7.4 starts on 23Jan2025 at  0:35:55 

     This program is part of the open-source Quantum ESPRESSO suite
     for quantum simulation of materials; please cite
         "P. Giannozzi et al., J. Phys.:Condens. Matter 21 395502 (2009);
         "P. Giannozzi et al., J. Phys.:Condens. Matter 29 465901 (2017);
         "P. Giannozzi et al., J. Chem. Phys. 152 154105 (2020);
          URL http://www.quantum-espresso.org", 
     in publications or presentations arising from this work. More details at
     http://www.quantum-espresso.org/quote

     Parallel version (MPI & OpenMP), running on     384 processor cores
     Number of MPI processes:               384
     Threads/MPI process:                     1

     MPI processes distributed on     2 nodes
     668928 MiB available memory on the printing compute node when the environment starts
 
     Reading input from espresso.pwi
Warning: card &CELL ignored
Warning: card    PRESS_CONV_THR   = 0.1 ignored
Warning: card    CELL_DOFREE      = 'ALL' ignored
Warning: card / ignored
Warning: card &FCP ignored
Warning: card / ignored
Warning: card &RISM ignored
Warning: card / ignored

     Current dimensions of program PWSCF are:
     Max number of different atomic species (ntypx) = 10
     Max number of k-points (npk) =  40000
     Max angular momentum in pseudopotentials (lmaxx) =  4

     IMPORTANT: XC functional enforced from input :
     Exchange-correlation= PBE
                           (   1   4   3   4   0   0   0)
     Any further DFT definition will be discarded
     Please, verify this is what you really want

     Message from routine setup:
     using ibrav=0 with symmetry is DISCOURAGED, use correct ibrav instead
 
     K-points division:     npool     =       2
     R & G space division:  proc/nbgrp/npool/nimage =     192
     Subspace diagonalization in iterative solution of the eigenvalue problem:
     a serial algorithm will be used

 
     Parallelization info
     --------------------
     sticks:   dense  smooth     PW     G-vecs:    dense   smooth      PW
     Min          39      15      4                21743     5455     776
     Max          40      16      5                21820     5542     837
     Sum        7593    3025    841              4181595  1057151  152835
 
     Using Slab Decomposition
 


     bravais-lattice index     =            0
     lattice parameter (alat)  =      11.2436  a.u.
     unit-cell volume          =   10941.9819 (a.u.)^3
     number of atoms/cell      =           16
     number of atomic types    =            1
     number of electrons       =        48.00
     number of Kohn-Sham states=           36
     kinetic-energy cutoff     =      80.0000  Ry
     charge density cutoff     =     800.0000  Ry
     scf convergence threshold =      1.0E-06
     mixing beta               =       0.2000
     number of iterations used =            8  local-TF  mixing
     energy convergence thresh.=      1.0E-05
     force convergence thresh. =      3.9E-04
     Exchange-correlation= PBE
                           (   1   4   3   4   0   0   0)
     nstep                     =           50


     celldm(1)=  11.243615  celldm(2)=   0.000000  celldm(3)=   0.000000
     celldm(4)=   0.000000  celldm(5)=   0.000000  celldm(6)=   0.000000

     crystal axes: (cart. coord. in units of alat)
               a(1) = (   1.000000   0.000000   0.000000 )  
               a(2) = (  -0.333333   0.942809   0.000000 )  
               a(3) = (   0.000000   0.000000   8.164966 )  

     reciprocal axes: (cart. coord. in units 2 pi/alat)
               b(1) = (  1.000000  0.353553  0.000000 )  
               b(2) = (  0.000000  1.060660  0.000000 )  
               b(3) = (  0.000000  0.000000  0.122474 )  


     PseudoPot. # 1 for Li read from file:
     /iridisfs/home/ba3g18/Repos/Pseudopotentials/pslibrary.1.0.0/pbe/PSEUDOPOTENTIALS/Li.pbe-sl-kjpaw_psl.1.0.0.UPF
     MD5 check sum: 3f4d2cafebb47c6c3aa8ed472e6f074d
     Pseudo is Projector augmented-wave, Zval =  3.0
     Generated using 'atomic' code by A. Dal Corso  v.7.4
     Shape of augmentation charge: PSQ
     Using radial grid of 1017 points,  4 beta functions with: 
                l(1) =   0
                l(2) =   0
                l(3) =   1
                l(4) =   1
     Q(r) pseudized with 0 coefficients 


     atomic species   valence    mass     pseudopotential
     Li                3.00     6.94000     Li( 1.00)

      2 Sym. Ops. (no inversion) found



   Cartesian axes

     site n.     atom                  positions (alat units)
         1        Li     tau(   1) = (   0.1666579   0.2357050   3.4872297  )
         2        Li     tau(   2) = (   0.3333333   0.4714046   3.8800853  )
         3        Li     tau(   3) = (   0.1666784   0.2356995   4.2848742  )
         4        Li     tau(   4) = (   0.3333333   0.4714046   4.6777256  )
         5        Li     tau(   5) = (   0.0000068   0.7071111   3.4872614  )
         6        Li     tau(   6) = (   0.1666667   0.9428091   3.8801064  )
         7        Li     tau(   7) = (  -0.0000133   0.7070942   4.2848711  )
         8        Li     tau(   8) = (   0.1666667   0.9428090   4.6776968  )
         9        Li     tau(   9) = (   0.6666599   0.2356980   3.4872614  )
        10        Li     tau(  10) = (   0.8333333   0.4714046   3.8801037  )
        11        Li     tau(  11) = (   0.6666800   0.2357149   4.2848711  )
        12        Li     tau(  12) = (   0.8333333   0.4714046   4.6777289  )
        13        Li     tau(  13) = (   0.5000088   0.7071040   3.4872297  )
        14        Li     tau(  14) = (   0.6666667   0.9428091   3.8800852  )
        15        Li     tau(  15) = (   0.4999883   0.7071095   4.2848742  )
        16        Li     tau(  16) = (   0.6666667   0.9428090   4.6777237  )

     number of k points=    61  Marzari-Vanderbilt smearing, width (Ry)=  0.0100
                       cart. coord. in units 2pi/alat
        k(    1) = (   0.0000000   0.0000000   0.0000000), wk =   0.0165289
        k(    2) = (   0.0000000   0.0964237   0.0000000), wk =   0.0330579
        k(    3) = (   0.0000000   0.1928473   0.0000000), wk =   0.0330579
        k(    4) = (   0.0000000   0.2892710   0.0000000), wk =   0.0330579
        k(    5) = (   0.0000000   0.3856946   0.0000000), wk =   0.0330579
        k(    6) = (   0.0000000   0.4821183   0.0000000), wk =   0.0330579
        k(    7) = (   0.0909091   0.0321412   0.0000000), wk =   0.0330579
        k(    8) = (   0.0909091   0.1285648   0.0000000), wk =   0.0330579
        k(    9) = (   0.0909091   0.2249885   0.0000000), wk =   0.0330579
        k(   10) = (   0.0909091   0.3214122   0.0000000), wk =   0.0330579
        k(   11) = (   0.0909091   0.4178358   0.0000000), wk =   0.0330579
        k(   12) = (   0.0909091   0.5142595   0.0000000), wk =   0.0330579
        k(   13) = (   0.0909091  -0.4499771   0.0000000), wk =   0.0330579
        k(   14) = (   0.0909091  -0.3535534   0.0000000), wk =   0.0330579
        k(   15) = (   0.0909091  -0.2571298   0.0000000), wk =   0.0330579
        k(   16) = (   0.0909091  -0.1607061   0.0000000), wk =   0.0330579
        k(   17) = (   0.0909091  -0.0642825   0.0000000), wk =   0.0330579
        k(   18) = (   0.1818182   0.0642824   0.0000000), wk =   0.0330579
        k(   19) = (   0.1818182   0.1607060   0.0000000), wk =   0.0330579
        k(   20) = (   0.1818182   0.2571297   0.0000000), wk =   0.0330579
        k(   21) = (   0.1818182   0.3535533   0.0000000), wk =   0.0330579
        k(   22) = (   0.1818182   0.4499770   0.0000000), wk =   0.0330579
        k(   23) = (   0.1818182   0.5464007   0.0000000), wk =   0.0330579
        k(   24) = (   0.1818182  -0.4178359   0.0000000), wk =   0.0330579
        k(   25) = (   0.1818182  -0.3214123   0.0000000), wk =   0.0330579
        k(   26) = (   0.1818182  -0.2249886   0.0000000), wk =   0.0330579
        k(   27) = (   0.1818182  -0.1285649   0.0000000), wk =   0.0330579
        k(   28) = (   0.1818182  -0.0321413   0.0000000), wk =   0.0330579
        k(   29) = (   0.2727273   0.0964236   0.0000000), wk =   0.0330579
        k(   30) = (   0.2727273   0.1928472   0.0000000), wk =   0.0330579
        k(   31) = (   0.2727273   0.2892709   0.0000000), wk =   0.0330579
        k(   32) = (   0.2727273   0.3856945   0.0000000), wk =   0.0330579
        k(   33) = (   0.2727273   0.4821182   0.0000000), wk =   0.0330579
        k(   34) = (   0.2727273   0.5785418   0.0000000), wk =   0.0330579
        k(   35) = (   0.2727273  -0.3856947   0.0000000), wk =   0.0330579
        k(   36) = (   0.2727273  -0.2892711   0.0000000), wk =   0.0330579
        k(   37) = (   0.2727273  -0.1928474   0.0000000), wk =   0.0330579
        k(   38) = (   0.2727273  -0.0964238   0.0000000), wk =   0.0330579
        k(   39) = (   0.2727273  -0.0000001   0.0000000), wk =   0.0330579
        k(   40) = (   0.3636364   0.1285647   0.0000000), wk =   0.0330579
        k(   41) = (   0.3636364   0.2249884   0.0000000), wk =   0.0330579
        k(   42) = (   0.3636364   0.3214121   0.0000000), wk =   0.0330579
        k(   43) = (   0.3636364   0.4178357   0.0000000), wk =   0.0330579
        k(   44) = (   0.3636364   0.5142594   0.0000000), wk =   0.0330579
        k(   45) = (   0.3636364   0.6106830   0.0000000), wk =   0.0330579
        k(   46) = (   0.3636364  -0.3535535   0.0000000), wk =   0.0330579
        k(   47) = (   0.3636364  -0.2571299   0.0000000), wk =   0.0330579
        k(   48) = (   0.3636364  -0.1607062   0.0000000), wk =   0.0330579
        k(   49) = (   0.3636364  -0.0642826   0.0000000), wk =   0.0330579
        k(   50) = (   0.3636364   0.0321411   0.0000000), wk =   0.0330579
        k(   51) = (   0.4545455   0.1607059   0.0000000), wk =   0.0330579
        k(   52) = (   0.4545455   0.2571296   0.0000000), wk =   0.0330579
        k(   53) = (   0.4545455   0.3535532   0.0000000), wk =   0.0330579
        k(   54) = (   0.4545455   0.4499769   0.0000000), wk =   0.0330579
        k(   55) = (   0.4545455   0.5464006   0.0000000), wk =   0.0330579
        k(   56) = (   0.4545455   0.6428242   0.0000000), wk =   0.0330579
        k(   57) = (   0.4545455  -0.3214123   0.0000000), wk =   0.0330579
        k(   58) = (   0.4545455  -0.2249887   0.0000000), wk =   0.0330579
        k(   59) = (   0.4545455  -0.1285650   0.0000000), wk =   0.0330579
        k(   60) = (   0.4545455  -0.0321414   0.0000000), wk =   0.0330579
        k(   61) = (   0.4545455   0.0642823   0.0000000), wk =   0.0330579

     Dense  grid:  4181595 G-vectors     FFT dimensions: ( 108, 108, 864)

     Smooth grid:  1057151 G-vectors     FFT dimensions: (  72,  72, 540)

     Estimated max dynamical RAM per process >      63.81 MB

     Estimated total dynamical RAM >      14.75 GB

     Initial potential from superposition of free atoms

     starting charge      47.9263, renormalised to      48.0000

     negative rho (up, down):  1.990E-03 0.000E+00
     Starting wfcs are   80 randomized atomic wfcs
     Checking if some PAW data can be deallocated... 

     total cpu time spent up to now is        5.1 secs

     Self-consistent Calculation

     iteration #  1     ecut=    80.00 Ry     beta= 0.20
     Davidson diagonalization with overlap
     ethr =  1.00E-02,  avg # of iterations =  3.6

     negative rho (up, down):  3.714E-04 0.000E+00

     total cpu time spent up to now is        8.7 secs

     total energy              =    -240.66167454 Ry
     estimated scf accuracy    <       1.78182263 Ry

     iteration #  2     ecut=    80.00 Ry     beta= 0.20
     Davidson diagonalization with overlap
     ethr =  3.71E-03,  avg # of iterations =  1.2

     negative rho (up, down):  1.232E-06 0.000E+00

     total cpu time spent up to now is       11.2 secs

     total energy              =    -240.40602604 Ry
     estimated scf accuracy    <       1.29829054 Ry

     iteration #  3     ecut=    80.00 Ry     beta= 0.20
     Davidson diagonalization with overlap
     ethr =  2.70E-03,  avg # of iterations =  1.4

     negative rho (up, down):  4.974E-06 0.000E+00

     total cpu time spent up to now is       13.8 secs

     total energy              =    -240.51584323 Ry
     estimated scf accuracy    <       0.20478616 Ry

     iteration #  4     ecut=    80.00 Ry     beta= 0.20
     Davidson diagonalization with overlap
     ethr =  4.27E-04,  avg # of iterations =  4.0

     negative rho (up, down):  6.378E-08 0.000E+00

     total cpu time spent up to now is       16.7 secs

     total energy              =    -240.59051805 Ry
     estimated scf accuracy    <       0.82061266 Ry

     iteration #  5     ecut=    80.00 Ry     beta= 0.20
     Davidson diagonalization with overlap
     ethr =  4.27E-04,  avg # of iterations =  1.0

     total cpu time spent up to now is       18.9 secs

     total energy              =    -240.55930674 Ry
     estimated scf accuracy    <       0.46809974 Ry

     iteration #  6     ecut=    80.00 Ry     beta= 0.20
     Davidson diagonalization with overlap
     ethr =  4.27E-04,  avg # of iterations =  1.0

     negative rho (up, down):  1.602E-08 0.000E+00

     total cpu time spent up to now is       21.2 secs

     total energy              =    -240.60087934 Ry
     estimated scf accuracy    <       0.12681417 Ry

     iteration #  7     ecut=    80.00 Ry     beta= 0.20
     Davidson diagonalization with overlap
     ethr =  2.64E-04,  avg # of iterations =  1.1

     negative rho (up, down):  2.109E-08 0.000E+00

     total cpu time spent up to now is       23.5 secs

     total energy              =    -240.63535517 Ry
     estimated scf accuracy    <       0.61465532 Ry

     iteration #  8     ecut=    80.00 Ry     beta= 0.20
     Davidson diagonalization with overlap
     ethr =  2.64E-04,  avg # of iterations =  1.0

     total cpu time spent up to now is       25.8 secs

     total energy              =    -240.62781640 Ry
     estimated scf accuracy    <       0.68892621 Ry

     iteration #  9     ecut=    80.00 Ry     beta= 0.20
     Davidson diagonalization with overlap
     ethr =  2.64E-04,  avg # of iterations =  1.0

     negative rho (up, down):  1.585E-02 0.000E+00

     total cpu time spent up to now is       28.0 secs

     total energy              =    -240.58382769 Ry
     estimated scf accuracy    <       0.62873452 Ry

     iteration # 10     ecut=    80.00 Ry     beta= 0.20
     Davidson diagonalization with overlap
     ethr =  2.64E-04,  avg # of iterations =  1.0

     negative rho (up, down):  2.425E-02 0.000E+00

     total cpu time spent up to now is       30.3 secs

     total energy              =    -240.58643011 Ry
     estimated scf accuracy    <       0.31483324 Ry

     iteration # 11     ecut=    80.00 Ry     beta= 0.20
     Davidson diagonalization with overlap
     ethr =  2.64E-04,  avg # of iterations =  1.0

     negative rho (up, down):  3.144E-02 0.000E+00

     total cpu time spent up to now is       32.5 secs

     total energy              =    -240.56706659 Ry
     estimated scf accuracy    <       0.26734401 Ry

     iteration # 12     ecut=    80.00 Ry     beta= 0.20
     Davidson diagonalization with overlap
     ethr =  2.64E-04,  avg # of iterations =  1.0

     negative rho (up, down):  5.131E-02 0.000E+00

     total cpu time spent up to now is       34.7 secs

     total energy              =    -240.54884893 Ry
     estimated scf accuracy    <       0.11763533 Ry

     iteration # 13     ecut=    80.00 Ry     beta= 0.20
     Davidson diagonalization with overlap
     ethr =  2.45E-04,  avg # of iterations =  1.4

     negative rho (up, down):  2.871E-02 0.000E+00

     total cpu time spent up to now is       37.1 secs

     total energy              =    -240.56108111 Ry
     estimated scf accuracy    <       0.00907556 Ry

     iteration # 14     ecut=    80.00 Ry     beta= 0.20
     Davidson diagonalization with overlap
     ethr =  1.89E-05,  avg # of iterations =  4.9

     negative rho (up, down):  3.809E-02 0.000E+00

     total cpu time spent up to now is       40.7 secs

     total energy              =    -240.56036989 Ry
     estimated scf accuracy    <       0.08544488 Ry

     iteration # 15     ecut=    80.00 Ry     beta= 0.20
     Davidson diagonalization with overlap
     ethr =  1.89E-05,  avg # of iterations =  2.0

     negative rho (up, down):  4.470E-02 0.000E+00

     total cpu time spent up to now is       43.2 secs

     total energy              =    -240.55681712 Ry
     estimated scf accuracy    <       0.04709339 Ry

     iteration # 16     ecut=    80.00 Ry     beta= 0.20
     Davidson diagonalization with overlap
     ethr =  1.89E-05,  avg # of iterations =  3.2

     negative rho (up, down):  4.086E-02 0.000E+00

     total cpu time spent up to now is       45.8 secs

     total energy              =    -240.55785062 Ry
     estimated scf accuracy    <       0.02027894 Ry

     iteration # 17     ecut=    80.00 Ry     beta= 0.20
     Davidson diagonalization with overlap
     ethr =  1.89E-05,  avg # of iterations =  1.0

     negative rho (up, down):  3.973E-02 0.000E+00

     total cpu time spent up to now is       48.1 secs

     total energy              =    -240.55739073 Ry
     estimated scf accuracy    <       0.02345956 Ry

     iteration # 18     ecut=    80.00 Ry     beta= 0.20
     Davidson diagonalization with overlap
     ethr =  1.89E-05,  avg # of iterations =  1.0

     negative rho (up, down):  3.051E-02 0.000E+00

     total cpu time spent up to now is       50.3 secs

     total energy              =    -240.55197522 Ry
     estimated scf accuracy    <       0.02049940 Ry

     iteration # 19     ecut=    80.00 Ry     beta= 0.20
     Davidson diagonalization with overlap
     c_bands:  1 eigenvalues not converged
     c_bands:  1 eigenvalues not converged
     c_bands:  1 eigenvalues not converged
     c_bands:  1 eigenvalues not converged
     c_bands:  1 eigenvalues not converged
     c_bands:  1 eigenvalues not converged
     c_bands:  1 eigenvalues not converged
     c_bands:  1 eigenvalues not converged
     c_bands:  1 eigenvalues not converged
     c_bands:  1 eigenvalues not converged
     ethr =  1.89E-05,  avg # of iterations =  8.5

     negative rho (up, down):  2.024E-02 0.000E+00

     total cpu time spent up to now is       54.1 secs

     total energy              =    -240.55393732 Ry
     estimated scf accuracy    <       0.00189741 Ry

     iteration # 20     ecut=    80.00 Ry     beta= 0.20
     Davidson diagonalization with overlap
     c_bands:  2 eigenvalues not converged
     c_bands:  1 eigenvalues not converged
     c_bands:  1 eigenvalues not converged
     ethr =  3.95E-06,  avg # of iterations =  6.8

     negative rho (up, down):  2.564E-02 0.000E+00

     total cpu time spent up to now is       57.6 secs

     total energy              =    -240.55367482 Ry
     estimated scf accuracy    <       0.00343039 Ry

     iteration # 21     ecut=    80.00 Ry     beta= 0.20
     Davidson diagonalization with overlap
     c_bands:  1 eigenvalues not converged
     c_bands:  1 eigenvalues not converged
     c_bands:  1 eigenvalues not converged
     ethr =  3.95E-06,  avg # of iterations =  6.9

     negative rho (up, down):  2.919E-02 0.000E+00

     total cpu time spent up to now is       61.0 secs

     total energy              =    -240.55397821 Ry
     estimated scf accuracy    <       0.00062116 Ry

     iteration # 22     ecut=    80.00 Ry     beta= 0.20
     Davidson diagonalization with overlap
     c_bands:  1 eigenvalues not converged
     c_bands:  1 eigenvalues not converged
     c_bands:  2 eigenvalues not converged
     c_bands:  1 eigenvalues not converged
     c_bands:  1 eigenvalues not converged
     c_bands:  2 eigenvalues not converged
     c_bands:  1 eigenvalues not converged
     c_bands:  3 eigenvalues not converged
     c_bands:  1 eigenvalues not converged
     c_bands:  1 eigenvalues not converged
     c_bands:  1 eigenvalues not converged
     c_bands:  1 eigenvalues not converged
     c_bands:  2 eigenvalues not converged
     c_bands:  1 eigenvalues not converged
     c_bands:  1 eigenvalues not converged
     c_bands:  1 eigenvalues not converged
     c_bands:  1 eigenvalues not converged
     c_bands:  2 eigenvalues not converged
     c_bands:  1 eigenvalues not converged
     c_bands:  1 eigenvalues not converged
     c_bands:  1 eigenvalues not converged
     ethr =  1.29E-06,  avg # of iterations = 13.1

     negative rho (up, down):  1.095E-02 0.000E+00

     total cpu time spent up to now is       65.4 secs

     total energy              =    -240.55432821 Ry
     estimated scf accuracy    <       0.00052647 Ry

     iteration # 23     ecut=    80.00 Ry     beta= 0.20
     Davidson diagonalization with overlap
     c_bands:  1 eigenvalues not converged
     c_bands:  2 eigenvalues not converged
     c_bands:  1 eigenvalues not converged
     c_bands:  1 eigenvalues not converged
     c_bands:  1 eigenvalues not converged
     c_bands:  2 eigenvalues not converged
     c_bands:  1 eigenvalues not converged
     c_bands:  2 eigenvalues not converged
     c_bands:  2 eigenvalues not converged
     c_bands:  1 eigenvalues not converged
     c_bands:  1 eigenvalues not converged
     ethr =  1.10E-06,  avg # of iterations = 11.2

     negative rho (up, down):  9.108E-03 0.000E+00

     total cpu time spent up to now is       69.7 secs

     total energy              =    -240.55443712 Ry
     estimated scf accuracy    <       0.00011040 Ry

     iteration # 24     ecut=    80.00 Ry     beta= 0.20
     Davidson diagonalization with overlap
     c_bands:  1 eigenvalues not converged
     c_bands:  1 eigenvalues not converged
     ethr =  2.30E-07,  avg # of iterations =  5.4

     negative rho (up, down):  7.555E-03 0.000E+00

     total cpu time spent up to now is       72.7 secs

     total energy              =    -240.55446413 Ry
     estimated scf accuracy    <       0.00002079 Ry

     iteration # 25     ecut=    80.00 Ry     beta= 0.20
     Davidson diagonalization with overlap
     ethr =  4.33E-08,  avg # of iterations =  4.9

     negative rho (up, down):  5.206E-03 0.000E+00

     total cpu time spent up to now is       75.7 secs

     total energy              =    -240.55445770 Ry
     estimated scf accuracy    <       0.00001591 Ry

     iteration # 26     ecut=    80.00 Ry     beta= 0.20
     Davidson diagonalization with overlap
     ethr =  3.32E-08,  avg # of iterations =  6.0

     negative rho (up, down):  3.467E-03 0.000E+00

     total cpu time spent up to now is       78.8 secs

     total energy              =    -240.55445926 Ry
     estimated scf accuracy    <       0.00001155 Ry

     iteration # 27     ecut=    80.00 Ry     beta= 0.20
     Davidson diagonalization with overlap
     ethr =  2.41E-08,  avg # of iterations =  3.5

     negative rho (up, down):  9.923E-04 0.000E+00

     total cpu time spent up to now is       81.6 secs

     total energy              =    -240.55446554 Ry
     estimated scf accuracy    <       0.00000773 Ry

     iteration # 28     ecut=    80.00 Ry     beta= 0.20
     Davidson diagonalization with overlap
     c_bands:  1 eigenvalues not converged
     c_bands:  1 eigenvalues not converged
     c_bands:  1 eigenvalues not converged
     ethr =  1.61E-08,  avg # of iterations =  7.4

     negative rho (up, down):  3.906E-04 0.000E+00

     total cpu time spent up to now is       85.2 secs

     total energy              =    -240.55446685 Ry
     estimated scf accuracy    <       0.00001085 Ry

     iteration # 29     ecut=    80.00 Ry     beta= 0.20
     Davidson diagonalization with overlap
     ethr =  1.61E-08,  avg # of iterations =  3.5

     negative rho (up, down):  2.189E-04 0.000E+00

     total cpu time spent up to now is       88.0 secs

     total energy              =    -240.55446630 Ry
     estimated scf accuracy    <       0.00000280 Ry

     iteration # 30     ecut=    80.00 Ry     beta= 0.20
     Davidson diagonalization with overlap
     ethr =  5.84E-09,  avg # of iterations =  2.7

     negative rho (up, down):  2.320E-04 0.000E+00

     total cpu time spent up to now is       90.5 secs

     End of self-consistent calculation

          k = 0.0000 0.0000 0.0000 (131981 PWs)   bands (ev):

   -49.3237 -49.3236 -49.3141 -49.3140 -49.3140 -49.3139 -49.3075 -49.3074
   -48.8802 -48.8699 -48.8655 -48.8655 -48.8655 -48.8654 -48.8623 -48.8552
    -5.8236  -5.2167  -4.0943  -2.7812  -2.3884  -2.3884  -2.3884  -2.3884
    -2.1444  -2.1444  -2.1444  -2.1444  -2.0539  -2.0167  -1.3089   0.1036
     0.4941   0.6328   0.7881   0.8829

          k = 0.0000 0.0964 0.0000 (132074 PWs)   bands (ev):

   -49.3235 -49.3234 -49.3143 -49.3142 -49.3139 -49.3138 -49.3077 -49.3076
   -48.8800 -48.8698 -48.8664 -48.8658 -48.8649 -48.8648 -48.8624 -48.8554
    -5.7944  -5.1874  -4.0640  -2.9440  -2.7475  -2.5461  -2.5241  -2.2539
    -2.1319  -2.0561  -2.0298  -2.0149  -1.9795  -1.8161  -1.3553   0.0330
     0.5287   0.6715   0.8274   0.9214

          k = 0.0000 0.1928 0.0000 (132129 PWs)   bands (ev):

   -49.3229 -49.3228 -49.3148 -49.3147 -49.3136 -49.3134 -49.3081 -49.3079
   -48.8792 -48.8694 -48.8677 -48.8659 -48.8648 -48.8639 -48.8627 -48.8559
    -5.7069  -5.0997  -3.9733  -3.4751  -2.9602  -2.6496  -2.6468  -2.2672
    -2.1595  -2.0789  -1.8981  -1.8703  -1.8655  -1.4774  -1.3559  -0.1485
     0.6315   0.7877   0.9453   1.0367

          k = 0.0000 0.2893 0.0000 (132111 PWs)   bands (ev):

   -49.3220 -49.3219 -49.3157 -49.3156 -49.3129 -49.3128 -49.3087 -49.3085
   -48.8781 -48.8693 -48.8687 -48.8658 -48.8650 -48.8631 -48.8628 -48.8567
    -5.5609  -4.9536  -3.9611  -3.8233  -3.3992  -2.6986  -2.4809  -2.3612
    -2.2957  -2.2509  -1.7034  -1.6732  -1.6391  -1.5229  -1.1820  -0.3897
     0.4207   0.7979   0.8080   0.9819

          k = 0.0000 0.3857 0.0000 (132105 PWs)   bands (ev):

   -49.3209 -49.3208 -49.3169 -49.3168 -49.3122 -49.3120 -49.3094 -49.3093
   -48.8766 -48.8710 -48.8679 -48.8655 -48.8654 -48.8637 -48.8616 -48.8578
    -5.3564  -4.7500  -4.3948  -3.8090  -3.6160  -2.7058  -2.6961  -2.4350
    -2.2534  -2.1932  -1.8089  -1.4453  -1.4312  -1.3473  -1.1189  -0.6561
    -0.1532   0.3891   1.0126   1.2505

          k = 0.0000 0.4821 0.0000 (132111 PWs)   bands (ev):

   -49.3196 -49.3195 -49.3182 -49.3181 -49.3113 -49.3112 -49.3103 -49.3102
   -48.8748 -48.8729 -48.8671 -48.8662 -48.8649 -48.8643 -48.8603 -48.8590
    -5.0937  -4.7728  -4.4897  -4.1748  -3.3548  -3.0469  -2.6467  -2.5566
    -2.0966  -1.9719  -1.9657  -1.6542  -1.1942  -1.0816  -0.9281  -0.6584
    -0.6552  -0.1499   1.2313   1.3079

          k = 0.0909 0.0321 0.0000 (132074 PWs)   bands (ev):

   -49.3235 -49.3234 -49.3143 -49.3142 -49.3139 -49.3138 -49.3077 -49.3076
   -48.8800 -48.8698 -48.8664 -48.8658 -48.8649 -48.8648 -48.8624 -48.8554
    -5.7944  -5.1874  -4.0640  -2.9440  -2.7475  -2.5461  -2.5241  -2.2539
    -2.1319  -2.0561  -2.0298  -2.0149  -1.9795  -1.8161  -1.3553   0.0330
     0.5288   0.6715   0.8275   0.9214

          k = 0.0909 0.1286 0.0000 (132105 PWs)   bands (ev):

   -49.3233 -49.3231 -49.3142 -49.3142 -49.3142 -49.3140 -49.3077 -49.3076
   -48.8796 -48.8697 -48.8668 -48.8668 -48.8644 -48.8643 -48.8624 -48.8556
    -5.7458  -5.1390  -4.0144  -3.1001  -3.1001  -2.6923  -2.6369  -2.6369
    -1.9509  -1.9509  -1.9499  -1.9128  -1.6113  -1.6113  -1.2052   0.2069
     0.5852   0.7361   0.8928   0.9853

          k = 0.0909 0.2250 0.0000 (132121 PWs)   bands (ev):

   -49.3226 -49.3225 -49.3148 -49.3147 -49.3139 -49.3137 -49.3081 -49.3080
   -48.8787 -48.8693 -48.8681 -48.8669 -48.8643 -48.8635 -48.8625 -48.8562
    -5.6387  -5.0320  -3.9045  -3.6178  -3.1967  -3.0808  -2.6958  -2.5705
    -2.1280  -1.8866  -1.8531  -1.8070  -1.3553  -1.2232  -1.1560   0.2081
     0.7084   0.8780   1.0368   1.1251

          k = 0.0909 0.3214 0.0000 (132106 PWs)   bands (ev):

   -49.3217 -49.3216 -49.3158 -49.3156 -49.3133 -49.3132 -49.3086 -49.3085
   -48.8775 -48.8697 -48.8687 -48.8668 -48.8646 -48.8628 -48.8625 -48.8570
    -5.4730  -4.8667  -4.0868  -3.7356  -3.5128  -3.2362  -2.7021  -2.4424
    -2.3842  -1.8725  -1.7867  -1.5863  -1.2088  -1.1749  -1.0536  -0.0041
     0.2544   0.5897   0.8922   1.0996

          k = 0.0909 0.4178 0.0000 (132106 PWs)   bands (ev):

   -49.3205 -49.3204 -49.3169 -49.3168 -49.3125 -49.3124 -49.3094 -49.3093
   -48.8759 -48.8715 -48.8679 -48.8664 -48.8651 -48.8633 -48.8614 -48.8581
    -5.2487  -4.6438  -4.5019  -3.9090  -3.5099  -3.2210  -2.7909  -2.6577
    -2.1380  -1.9399  -1.6518  -1.4094  -1.3285  -1.2881  -0.7157  -0.3556
    -0.2958  -0.0636   1.1160   1.2062

          k = 0.0909 0.5143 0.0000 (132160 PWs)   bands (ev):

   -49.3192 -49.3191 -49.3183 -49.3181 -49.3117 -49.3115 -49.3103 -49.3102
   -48.8741 -48.8733 -48.8671 -48.8659 -48.8658 -48.8638 -48.8601 -48.8594
    -4.9658  -4.8606  -4.3645  -4.2583  -3.2318  -3.1545  -3.1232  -2.5653
    -2.0202  -1.8416  -1.7285  -1.4823  -1.4761  -0.9126  -0.7724  -0.7562
    -0.6650  -0.3552   1.1310   1.4174

          k = 0.0909-0.4500 0.0000 (132225 PWs)   bands (ev):

   -49.3196 -49.3195 -49.3178 -49.3177 -49.3112 -49.3111 -49.3107 -49.3106
   -48.8752 -48.8722 -48.8668 -48.8663 -48.8651 -48.8643 -48.8608 -48.8589
    -5.1618  -4.6249  -4.5552  -4.0312  -3.4169  -3.0406  -2.9096  -2.4282
    -2.0879  -2.0374  -1.6257  -1.5184  -1.2796  -1.2035  -1.1729  -1.1538
    -0.4606   0.0130   1.0761   1.1982

          k = 0.0909-0.3536 0.0000 (132210 PWs)   bands (ev):

   -49.3209 -49.3208 -49.3165 -49.3164 -49.3121 -49.3120 -49.3098 -49.3097
   -48.8768 -48.8703 -48.8677 -48.8656 -48.8648 -48.8644 -48.8622 -48.8577
    -5.4050  -4.7968  -4.2270  -3.6611  -3.6483  -2.8843  -2.5607  -2.3026
    -2.2512  -2.1267  -1.7759  -1.6610  -1.5217  -1.4965  -1.2345  -1.0459
     0.0664   0.3781   0.9716   1.1887

          k = 0.0909-0.2571 0.0000 (132262 PWs)   bands (ev):

   -49.3220 -49.3219 -49.3154 -49.3153 -49.3130 -49.3128 -49.3090 -49.3089
   -48.8782 -48.8685 -48.8685 -48.8652 -48.8651 -48.8637 -48.8635 -48.8568
    -5.5899  -4.9815  -3.8502  -3.7741  -3.2250  -2.6929  -2.5108  -2.2239
    -2.1285  -2.1054  -2.0410  -1.8488  -1.8441  -1.7427  -1.1612  -0.7855
     0.6616   0.7358   0.7699   0.7919

          k = 0.0909-0.1607 0.0000 (132205 PWs)   bands (ev):

   -49.3229 -49.3228 -49.3146 -49.3145 -49.3136 -49.3135 -49.3083 -49.3082
   -48.8793 -48.8692 -48.8669 -48.8653 -48.8650 -48.8647 -48.8631 -48.8560
    -5.7164  -5.1085  -3.9814  -3.2709  -2.7800  -2.6560  -2.4776  -2.4466
    -2.1547  -2.0458  -1.9841  -1.9288  -1.9113  -1.8081  -1.4550  -0.5064
     0.6228   0.7749   0.9322   1.0245

          k = 0.0909-0.0643 0.0000 (132130 PWs)   bands (ev):

   -49.3234 -49.3233 -49.3141 -49.3140 -49.3140 -49.3139 -49.3079 -49.3077
   -48.8798 -48.8696 -48.8657 -48.8657 -48.8653 -48.8652 -48.8627 -48.8555
    -5.7846  -5.1773  -4.0529  -2.7354  -2.7266  -2.7266  -2.3579  -2.3579
    -2.2561  -2.0020  -1.9721  -1.9721  -1.9663  -1.9663  -1.5700  -0.2238
     0.5414   0.6845   0.8405   0.9345

          k = 0.1818 0.0643 0.0000 (132129 PWs)   bands (ev):

   -49.3229 -49.3228 -49.3148 -49.3147 -49.3136 -49.3134 -49.3081 -49.3079
   -48.8792 -48.8694 -48.8677 -48.8659 -48.8648 -48.8639 -48.8627 -48.8559
    -5.7069  -5.0997  -3.9733  -3.4751  -2.9601  -2.6496  -2.6468  -2.2672
    -2.1595  -2.0789  -1.8981  -1.8703  -1.8655  -1.4774  -1.3559  -0.1485
     0.6315   0.7877   0.9452   1.0367

          k = 0.1818 0.1607 0.0000 (132121 PWs)   bands (ev):

   -49.3226 -49.3225 -49.3148 -49.3147 -49.3139 -49.3137 -49.3081 -49.3080
   -48.8787 -48.8693 -48.8681 -48.8669 -48.8643 -48.8635 -48.8625 -48.8562
    -5.6387  -5.0320  -3.9045  -3.6178  -3.1967  -3.0808  -2.6958  -2.5705
    -2.1280  -1.8866  -1.8531  -1.8070  -1.3553  -1.2232  -1.1560   0.2081
     0.7084   0.8779   1.0368   1.1258

          k = 0.1818 0.2571 0.0000 (132089 PWs)   bands (ev):

   -49.3220 -49.3219 -49.3145 -49.3145 -49.3145 -49.3143 -49.3084 -49.3083
   -48.8778 -48.8689 -48.8682 -48.8682 -48.8636 -48.8635 -48.8625 -48.8568
    -5.5118  -4.9056  -3.7756  -3.7005  -3.7004  -3.1433  -3.1433  -2.4281
    -2.1299  -2.1299  -1.6380  -1.6011  -1.0632  -1.0631  -0.8942   0.5168
     0.6326   0.7561   0.7771   0.8507

          k = 0.1818 0.3536 0.0000 (132117 PWs)   bands (ev):

   -49.3210 -49.3209 -49.3155 -49.3154 -49.3140 -49.3139 -49.3089 -49.3088
   -48.8765 -48.8698 -48.8683 -48.8681 -48.8639 -48.8627 -48.8626 -48.8577
    -5.3261  -4.7208  -4.1525  -3.7250  -3.5877  -3.5670  -3.1493  -2.4677
    -2.2221  -2.0839  -1.4497  -1.3914  -1.1348  -0.8816  -0.7694  -0.0420
     0.1608   0.1641   0.7202   0.8505

          k = 0.1818 0.4500 0.0000 (132191 PWs)   bands (ev):

   -49.3198 -49.3197 -49.3167 -49.3166 -49.3132 -49.3131 -49.3097 -49.3095
   -48.8748 -48.8715 -48.8676 -48.8676 -48.8645 -48.8630 -48.8615 -48.8589
    -5.0813  -4.5493  -4.4782  -3.9494  -3.6933  -3.3434  -3.1007  -2.8166
    -1.9902  -1.9581  -1.4171  -1.4076  -1.0673  -0.8318  -0.6813  -0.6803
    -0.4196  -0.3612   0.7583   1.0506

          k = 0.1818 0.5464 0.0000 (132260 PWs)   bands (ev):

   -49.3185 -49.3184 -49.3180 -49.3179 -49.3123 -49.3122 -49.3106 -49.3104
   -48.8733 -48.8730 -48.8670 -48.8668 -48.8654 -48.8635 -48.8603 -48.8603
    -4.8890  -4.7779  -4.2822  -4.1792  -3.6074  -3.1390  -3.0480  -2.9993
    -1.8491  -1.7399  -1.6482  -1.4369  -1.2870  -0.9972  -0.9575  -0.8120
    -0.6662  -0.4565   0.8230   0.8711

          k = 0.1818-0.4178 0.0000 (132275 PWs)   bands (ev):

   -49.3193 -49.3192 -49.3172 -49.3171 -49.3115 -49.3114 -49.3114 -49.3113
   -48.8751 -48.8710 -48.8663 -48.8662 -48.8661 -48.8640 -48.8617 -48.8592
    -5.1709  -4.5613  -4.4161  -3.8267  -3.4698  -3.4180  -2.8476  -2.7113
    -2.0373  -1.8126  -1.6617  -1.5090  -1.4205  -1.3233  -1.2275  -1.1866
    -0.2050  -0.1888   0.8414   1.2196

          k = 0.1818-0.3214 0.0000 (132335 PWs)   bands (ev):

   -49.3206 -49.3205 -49.3159 -49.3158 -49.3125 -49.3124 -49.3104 -49.3103
   -48.8766 -48.8691 -48.8672 -48.8655 -48.8653 -48.8645 -48.8632 -48.8581
    -5.3947  -4.7846  -3.9975  -3.6453  -3.4262  -3.2833  -2.6482  -2.3554
    -2.2851  -2.2748  -1.8755  -1.5207  -1.4841  -1.4582  -1.4299  -1.0756
     0.0781   0.3625   0.8408   0.9955

          k = 0.1818-0.2250 0.0000 (132276 PWs)   bands (ev):

   -49.3216 -49.3215 -49.3149 -49.3147 -49.3134 -49.3132 -49.3095 -49.3094
   -48.8779 -48.8681 -48.8674 -48.8651 -48.8648 -48.8646 -48.8645 -48.8571
    -5.5603  -4.9506  -3.8164  -3.5248  -3.0516  -2.9889  -2.6717  -2.4736
    -2.4046  -2.2375  -2.0307  -1.7042  -1.6682  -1.5371  -1.1566  -1.1161
     0.3934   0.8096   0.8520   0.9838

          k = 0.1818-0.1286 0.0000 (132244 PWs)   bands (ev):

   -49.3224 -49.3223 -49.3141 -49.3141 -49.3140 -49.3139 -49.3088 -49.3087
   -48.8788 -48.8688 -48.8659 -48.8659 -48.8651 -48.8650 -48.8637 -48.8564
    -5.6675  -5.0588  -3.9289  -3.0035  -3.0035  -2.7800  -2.5980  -2.5393
    -2.5393  -2.1218  -1.8467  -1.8458  -1.8458  -1.5158  -1.5158  -0.8464
     0.6832   0.7347   0.8395   0.9977

          k = 0.1818-0.0321 0.0000 (132205 PWs)   bands (ev):

   -49.3229 -49.3228 -49.3146 -49.3145 -49.3136 -49.3135 -49.3083 -49.3082
   -48.8793 -48.8692 -48.8669 -48.8653 -48.8650 -48.8647 -48.8631 -48.8560
    -5.7164  -5.1085  -3.9814  -3.2709  -2.7800  -2.6560  -2.4776  -2.4466
    -2.1547  -2.0458  -1.9841  -1.9288  -1.9113  -1.8081  -1.4550  -0.5064
     0.6228   0.7749   0.9322   1.0244

          k = 0.2727 0.0964 0.0000 (132111 PWs)   bands (ev):

   -49.3220 -49.3219 -49.3157 -49.3156 -49.3129 -49.3128 -49.3087 -49.3085
   -48.8781 -48.8693 -48.8687 -48.8658 -48.8650 -48.8631 -48.8628 -48.8567
    -5.5609  -4.9536  -3.9611  -3.8233  -3.3992  -2.6986  -2.4809  -2.3612
    -2.2957  -2.2509  -1.7034  -1.6732  -1.6391  -1.5229  -1.1820  -0.3897
     0.4207   0.7979   0.8080   0.9819

          k = 0.2727 0.1928 0.0000 (132106 PWs)   bands (ev):

   -49.3217 -49.3216 -49.3158 -49.3156 -49.3133 -49.3132 -49.3086 -49.3085
   -48.8775 -48.8697 -48.8687 -48.8668 -48.8646 -48.8628 -48.8625 -48.8570
    -5.4730  -4.8667  -4.0868  -3.7356  -3.5128  -3.2362  -2.7021  -2.4424
    -2.3842  -1.8725  -1.7867  -1.5863  -1.2088  -1.1749  -1.0536  -0.0041
     0.2544   0.5897   0.8922   1.0996

          k = 0.2727 0.2893 0.0000 (132117 PWs)   bands (ev):

   -49.3210 -49.3209 -49.3155 -49.3154 -49.3140 -49.3139 -49.3089 -49.3088
   -48.8765 -48.8698 -48.8683 -48.8681 -48.8639 -48.8627 -48.8626 -48.8577
    -5.3261  -4.7208  -4.1525  -3.7250  -3.5877  -3.5670  -3.1493  -2.4677
    -2.2221  -2.0839  -1.4497  -1.3914  -1.1348  -0.8816  -0.7694  -0.0420
     0.1608   0.1641   0.7204   0.8496

          k = 0.2727 0.3857 0.0000 (132188 PWs)   bands (ev):

   -49.3200 -49.3199 -49.3150 -49.3149 -49.3149 -49.3147 -49.3094 -49.3093
   -48.8751 -48.8696 -48.8696 -48.8678 -48.8630 -48.8630 -48.8628 -48.8587
    -5.1198  -4.5160  -4.1597  -4.1597  -3.5631  -3.5631  -3.3808  -2.4375
    -2.4375  -1.9976  -1.1189  -1.0820  -1.0558  -1.0557  -0.7011  -0.3763
    -0.2910   0.1504   0.1504   0.3489

          k = 0.2727 0.4821 0.0000 (132253 PWs)   bands (ev):

   -49.3189 -49.3187 -49.3161 -49.3160 -49.3142 -49.3141 -49.3102 -49.3101
   -48.8734 -48.8712 -48.8691 -48.8671 -48.8637 -48.8631 -48.8620 -48.8600
    -4.8542  -4.5379  -4.2532  -4.1096  -3.9311  -3.5026  -3.1179  -2.7836
    -2.3524  -1.7169  -1.3677  -1.3222  -0.9323  -0.8823  -0.8453  -0.7691
    -0.3621  -0.3494   0.2131   0.2607

          k = 0.2727 0.5785 0.0000 (132315 PWs)   bands (ev):

   -49.3176 -49.3175 -49.3174 -49.3173 -49.3133 -49.3132 -49.3111 -49.3110
   -48.8729 -48.8715 -48.8683 -48.8664 -48.8646 -48.8635 -48.8614 -48.8609
    -4.8586  -4.5293  -4.2473  -4.0037  -3.9338  -3.3869  -3.0949  -2.8045
    -2.2136  -1.8885  -1.6880  -1.4154  -1.3947  -0.8102  -0.7742  -0.7606
    -0.7409  -0.3424   0.3521   0.5337

          k = 0.2727-0.3857 0.0000 (132346 PWs)   bands (ev):

   -49.3187 -49.3186 -49.3163 -49.3162 -49.3123 -49.3122 -49.3121 -49.3120
   -48.8745 -48.8696 -48.8674 -48.8657 -48.8656 -48.8640 -48.8630 -48.8597
    -5.1213  -4.5087  -4.1460  -3.8432  -3.5613  -3.3588  -3.2174  -2.4527
    -2.3935  -2.0223  -1.9715  -1.9024  -1.1307  -1.1226  -1.0718  -0.8712
    -0.5391   0.1601   0.5667   0.7757

          k = 0.2727-0.2893 0.0000 (132344 PWs)   bands (ev):

   -49.3199 -49.3198 -49.3151 -49.3150 -49.3131 -49.3130 -49.3113 -49.3111
   -48.8760 -48.8678 -48.8665 -48.8664 -48.8652 -48.8646 -48.8645 -48.8587
    -5.3259  -4.7137  -3.7057  -3.6298  -3.5691  -3.1420  -2.9958  -2.8349
    -2.3278  -2.2013  -2.0898  -1.7804  -1.4812  -1.3940  -0.9625  -0.8765
    -0.2685   0.7345   0.9543   0.9717

          k = 0.2727-0.1928 0.0000 (132340 PWs)   bands (ev):

   -49.3209 -49.3208 -49.3141 -49.3141 -49.3140 -49.3139 -49.3103 -49.3102
   -48.8771 -48.8674 -48.8661 -48.8660 -48.8654 -48.8649 -48.8648 -48.8578
    -5.4722  -4.8612  -3.7223  -3.3651  -3.2119  -3.2119  -2.7240  -2.6900
    -2.6900  -2.3698  -1.7825  -1.7825  -1.5879  -1.4905  -1.0485  -1.0485
     0.0464   0.9159   0.9629   0.9629

          k = 0.2727-0.0964 0.0000 (132276 PWs)   bands (ev):

   -49.3216 -49.3215 -49.3149 -49.3147 -49.3134 -49.3132 -49.3095 -49.3094
   -48.8779 -48.8681 -48.8674 -48.8651 -48.8648 -48.8646 -48.8645 -48.8571
    -5.5603  -4.9506  -3.8164  -3.5248  -3.0516  -2.9889  -2.6717  -2.4736
    -2.4046  -2.2375  -2.0307  -1.7042  -1.6682  -1.5371  -1.1566  -1.1161
     0.3934   0.8096   0.8520   0.9839

          k = 0.2727-0.0000 0.0000 (132262 PWs)   bands (ev):

   -49.3220 -49.3219 -49.3154 -49.3153 -49.3130 -49.3128 -49.3090 -49.3089
   -48.8782 -48.8685 -48.8685 -48.8652 -48.8651 -48.8637 -48.8635 -48.8568
    -5.5899  -4.9815  -3.8502  -3.7741  -3.2250  -2.6929  -2.5108  -2.2239
    -2.1285  -2.1054  -2.0410  -1.8488  -1.8441  -1.7427  -1.1612  -0.7855
     0.6616   0.7359   0.7698   0.7917

          k = 0.3636 0.1286 0.0000 (132105 PWs)   bands (ev):

   -49.3209 -49.3208 -49.3169 -49.3168 -49.3122 -49.3120 -49.3094 -49.3093
   -48.8766 -48.8710 -48.8679 -48.8655 -48.8654 -48.8637 -48.8616 -48.8578
    -5.3564  -4.7500  -4.3948  -3.8090  -3.6160  -2.7058  -2.6961  -2.4350
    -2.2534  -2.1932  -1.8089  -1.4453  -1.4312  -1.3473  -1.1189  -0.6561
    -0.1532   0.3891   1.0126   1.2530

          k = 0.3636 0.2250 0.0000 (132106 PWs)   bands (ev):

   -49.3205 -49.3204 -49.3169 -49.3168 -49.3125 -49.3124 -49.3094 -49.3093
   -48.8759 -48.8715 -48.8679 -48.8664 -48.8651 -48.8633 -48.8614 -48.8581
    -5.2487  -4.6438  -4.5019  -3.9090  -3.5099  -3.2210  -2.7909  -2.6577
    -2.1380  -1.9399  -1.6518  -1.4094  -1.3285  -1.2881  -0.7157  -0.3556
    -0.2958  -0.0636   1.1160   1.2062

          k = 0.3636 0.3214 0.0000 (132191 PWs)   bands (ev):

   -49.3198 -49.3197 -49.3167 -49.3166 -49.3132 -49.3131 -49.3097 -49.3095
   -48.8748 -48.8715 -48.8676 -48.8676 -48.8645 -48.8630 -48.8615 -48.8589
    -5.0813  -4.5493  -4.4782  -3.9494  -3.6933  -3.3434  -3.1007  -2.8166
    -1.9902  -1.9581  -1.4171  -1.4076  -1.0673  -0.8319  -0.6813  -0.6803
    -0.4197  -0.3612   0.7583   0.7889

          k = 0.3636 0.4178 0.0000 (132251 PWs)   bands (ev):

   -49.3189 -49.3187 -49.3161 -49.3160 -49.3142 -49.3141 -49.3102 -49.3101
   -48.8734 -48.8712 -48.8691 -48.8671 -48.8637 -48.8631 -48.8620 -48.8600
    -4.8542  -4.5379  -4.2532  -4.1096  -3.9311  -3.5026  -3.1179  -2.7836
    -2.3524  -1.7169  -1.3677  -1.3222  -0.9323  -0.8823  -0.8453  -0.7691
    -0.3621  -0.3494   0.2131   0.2607

          k = 0.3636 0.5143 0.0000 (132306 PWs)   bands (ev):

   -49.3177 -49.3176 -49.3154 -49.3153 -49.3153 -49.3151 -49.3110 -49.3109
   -48.8717 -48.8706 -48.8706 -48.8665 -48.8633 -48.8627 -48.8627 -48.8613
    -4.5670  -4.4687  -4.4687  -3.9696  -3.8552  -3.8551  -2.8360  -2.6927
    -2.6927  -1.9145  -1.4211  -1.4073  -1.2598  -1.2597  -0.4824  -0.3936
    -0.3560  -0.2605  -0.2605   0.4842

          k = 0.3636 0.6107 0.0000 (132311 PWs)   bands (ev):

   -49.3166 -49.3165 -49.3165 -49.3163 -49.3144 -49.3143 -49.3119 -49.3118
   -48.8722 -48.8699 -48.8697 -48.8658 -48.8637 -48.8636 -48.8629 -48.8616
    -4.7701  -4.3426  -4.2200  -4.1543  -3.7226  -3.6290  -2.9916  -2.5451
    -2.5040  -2.4537  -1.9224  -1.5728  -1.0931  -1.0875  -0.9450  -0.6590
    -0.1888  -0.0948   0.0583   0.5035

          k = 0.3636-0.3536 0.0000 (132340 PWs)   bands (ev):

   -49.3178 -49.3177 -49.3152 -49.3151 -49.3133 -49.3132 -49.3130 -49.3129
   -48.8737 -48.8687 -48.8680 -48.8652 -48.8646 -48.8645 -48.8642 -48.8606
    -5.0135  -4.3978  -4.1603  -3.8140  -3.5345  -3.2402  -3.2352  -2.9333
    -2.3881  -2.3423  -2.1355  -1.8410  -1.3812  -0.9811  -0.8692  -0.7680
    -0.3938   0.1472   0.5853   0.7885

          k = 0.3636-0.2571 0.0000 (132366 PWs)   bands (ev):

   -49.3190 -49.3189 -49.3141 -49.3141 -49.3140 -49.3139 -49.3123 -49.3121
   -48.8750 -48.8675 -48.8662 -48.8662 -48.8656 -48.8648 -48.8647 -48.8595
    -5.1988  -4.5845  -3.9224  -3.4335  -3.3510  -3.3510  -3.2918  -2.7957
    -2.7957  -2.0863  -2.0523  -1.7646  -1.7645  -1.2262  -0.6446  -0.6445
    -0.5915   0.4646   0.9436   0.9436

          k = 0.3636-0.1607 0.0000 (132344 PWs)   bands (ev):

   -49.3199 -49.3198 -49.3151 -49.3150 -49.3131 -49.3130 -49.3113 -49.3111
   -48.8760 -48.8678 -48.8665 -48.8664 -48.8652 -48.8646 -48.8645 -48.8587
    -5.3259  -4.7137  -3.7057  -3.6298  -3.5691  -3.1420  -2.9958  -2.8349
    -2.3278  -2.2013  -2.0898  -1.7804  -1.4812  -1.3940  -0.9625  -0.8765
    -0.2685   0.7344   0.9543   0.9713

          k = 0.3636-0.0643 0.0000 (132337 PWs)   bands (ev):

   -49.3206 -49.3205 -49.3159 -49.3158 -49.3125 -49.3124 -49.3104 -49.3103
   -48.8766 -48.8691 -48.8672 -48.8655 -48.8653 -48.8645 -48.8632 -48.8581
    -5.3947  -4.7846  -3.9975  -3.6453  -3.4262  -3.2833  -2.6482  -2.3554
    -2.2851  -2.2748  -1.8755  -1.5207  -1.4841  -1.4582  -1.4299  -1.0756
     0.0781   0.3625   0.8408   0.9953

          k = 0.3636 0.0321 0.0000 (132210 PWs)   bands (ev):

   -49.3209 -49.3208 -49.3165 -49.3164 -49.3121 -49.3120 -49.3098 -49.3097
   -48.8768 -48.8703 -48.8677 -48.8656 -48.8648 -48.8644 -48.8622 -48.8577
    -5.4050  -4.7968  -4.2270  -3.6611  -3.6483  -2.8843  -2.5607  -2.3026
    -2.2512  -2.1267  -1.7759  -1.6610  -1.5217  -1.4965  -1.2345  -1.0459
     0.0664   0.3781   0.9716   1.1887

          k = 0.4545 0.1607 0.0000 (132111 PWs)   bands (ev):

   -49.3196 -49.3195 -49.3182 -49.3181 -49.3113 -49.3112 -49.3103 -49.3102
   -48.8748 -48.8729 -48.8671 -48.8662 -48.8649 -48.8643 -48.8603 -48.8590
    -5.0937  -4.7728  -4.4897  -4.1748  -3.3548  -3.0469  -2.6467  -2.5566
    -2.0966  -1.9719  -1.9657  -1.6542  -1.1942  -1.0816  -0.9281  -0.6584
    -0.6552  -0.1499   1.2313   1.3078

          k = 0.4545 0.2571 0.0000 (132160 PWs)   bands (ev):

   -49.3192 -49.3191 -49.3183 -49.3181 -49.3117 -49.3115 -49.3103 -49.3102
   -48.8741 -48.8733 -48.8671 -48.8659 -48.8658 -48.8638 -48.8601 -48.8594
    -4.9658  -4.8606  -4.3645  -4.2583  -3.2318  -3.1545  -3.1232  -2.5653
    -2.0202  -1.8416  -1.7285  -1.4823  -1.4761  -0.9126  -0.7724  -0.7562
    -0.6650  -0.3552   1.1310   1.4174

          k = 0.4545 0.3536 0.0000 (132260 PWs)   bands (ev):

   -49.3185 -49.3184 -49.3180 -49.3179 -49.3123 -49.3122 -49.3106 -49.3104
   -48.8733 -48.8730 -48.8670 -48.8668 -48.8654 -48.8635 -48.8603 -48.8603
    -4.8890  -4.7779  -4.2822  -4.1792  -3.6074  -3.1390  -3.0480  -2.9993
    -1.8491  -1.7399  -1.6482  -1.4369  -1.2870  -0.9972  -0.9575  -0.8120
    -0.6662  -0.4565   0.8230   0.8711

          k = 0.4545 0.4500 0.0000 (132317 PWs)   bands (ev):

   -49.3176 -49.3175 -49.3174 -49.3173 -49.3133 -49.3132 -49.3111 -49.3110
   -48.8729 -48.8715 -48.8683 -48.8664 -48.8646 -48.8635 -48.8614 -48.8609
    -4.8586  -4.5293  -4.2473  -4.0037  -3.9338  -3.3869  -3.0949  -2.8045
    -2.2136  -1.8885  -1.6880  -1.4154  -1.3947  -0.8102  -0.7742  -0.7606
    -0.7409  -0.3424   0.3521   0.5337

          k = 0.4545 0.5464 0.0000 (132311 PWs)   bands (ev):

   -49.3166 -49.3165 -49.3164 -49.3163 -49.3144 -49.3143 -49.3119 -49.3118
   -48.8722 -48.8699 -48.8697 -48.8658 -48.8638 -48.8636 -48.8629 -48.8616
    -4.7701  -4.3426  -4.2200  -4.1543  -3.7226  -3.6290  -2.9916  -2.5451
    -2.5040  -2.4537  -1.9224  -1.5728  -1.0931  -1.0875  -0.9450  -0.6590
    -0.1888  -0.0948   0.0583   0.5036

          k = 0.4545 0.6428 0.0000 (132378 PWs)   bands (ev):

   -49.3156 -49.3156 -49.3156 -49.3154 -49.3153 -49.3151 -49.3130 -49.3128
   -48.8712 -48.8712 -48.8681 -48.8652 -48.8645 -48.8642 -48.8626 -48.8626
    -4.6240  -4.6240  -4.0039  -4.0039  -3.8501  -3.2664  -2.9662  -2.8305
    -2.8305  -2.4091  -2.1523  -1.3956  -1.3955  -1.3517  -0.7424  -0.4668
    -0.4667  -0.0556   0.5352   0.5759

          k = 0.4545-0.3214 0.0000 (132370 PWs)   bands (ev):

   -49.3168 -49.3167 -49.3145 -49.3143 -49.3141 -49.3141 -49.3141 -49.3139
   -48.8725 -48.8700 -48.8663 -48.8662 -48.8647 -48.8647 -48.8636 -48.8615
    -4.8476  -4.4206  -4.2293  -3.7970  -3.4205  -3.4205  -3.0633  -2.8499
    -2.8498  -2.6132  -1.7642  -1.7641  -1.6477  -1.1591  -0.7624  -0.4192
    -0.4192  -0.1978   1.0798   1.0799

          k = 0.4545-0.2250 0.0000 (132340 PWs)   bands (ev):

   -49.3178 -49.3177 -49.3152 -49.3151 -49.3133 -49.3132 -49.3130 -49.3129
   -48.8737 -48.8687 -48.8680 -48.8652 -48.8646 -48.8645 -48.8642 -48.8606
    -5.0135  -4.3978  -4.1603  -3.8140  -3.5345  -3.2402  -3.2352  -2.9333
    -2.3881  -2.3423  -2.1355  -1.8410  -1.3812  -0.9811  -0.8692  -0.7680
    -0.3938   0.1472   0.5853   0.7885

          k = 0.4545-0.1286 0.0000 (132346 PWs)   bands (ev):

   -49.3187 -49.3186 -49.3163 -49.3162 -49.3123 -49.3122 -49.3121 -49.3120
   -48.8745 -48.8696 -48.8674 -48.8657 -48.8656 -48.8640 -48.8630 -48.8597
    -5.1213  -4.5087  -4.1460  -3.8432  -3.5613  -3.3588  -3.2174  -2.4527
    -2.3935  -2.0223  -1.9715  -1.9024  -1.1307  -1.1226  -1.0718  -0.8712
    -0.5391   0.1601   0.5667   0.7757

          k = 0.4545-0.0321 0.0000 (132275 PWs)   bands (ev):

   -49.3193 -49.3192 -49.3172 -49.3171 -49.3115 -49.3114 -49.3114 -49.3113
   -48.8751 -48.8710 -48.8663 -48.8662 -48.8661 -48.8640 -48.8617 -48.8592
    -5.1709  -4.5613  -4.4161  -3.8267  -3.4698  -3.4180  -2.8476  -2.7113
    -2.0373  -1.8126  -1.6617  -1.5090  -1.4205  -1.3233  -1.2275  -1.1866
    -0.2050  -0.1888   0.8414   1.0585

          k = 0.4545 0.0643 0.0000 (132225 PWs)   bands (ev):

   -49.3196 -49.3195 -49.3178 -49.3177 -49.3112 -49.3111 -49.3107 -49.3106
   -48.8752 -48.8722 -48.8668 -48.8663 -48.8651 -48.8643 -48.8608 -48.8589
    -5.1618  -4.6249  -4.5552  -4.0312  -3.4169  -3.0406  -2.9096  -2.4282
    -2.0879  -2.0374  -1.6257  -1.5184  -1.2796  -1.2035  -1.1729  -1.1538
    -0.4606   0.0130   1.0761   1.1982

     the Fermi energy is    -2.3938 ev

!    total energy              =    -240.55446681 Ry
     total all-electron energy =      -240.554597 Ry
     estimated scf accuracy    <       0.00000011 Ry
     smearing contrib. (-TS)   =      -0.00033735 Ry
     internal energy E=F+TS    =    -240.55412946 Ry

     The total energy is F=E-TS. E is the sum of the following terms:
     one-electron contribution =   -2602.11796570 Ry
     hartree contribution      =    1275.66036728 Ry
     xc contribution           =     -57.38381840 Ry
     ewald contribution        =    1141.87792610 Ry
     one-center paw contrib.   =       1.40936126 Ry

     convergence has been achieved in  30 iterations

     Forces acting on atoms (cartesian axes, Ry/au):

     atom    1 type  1   force =     0.00000155   -0.00000180    0.00004662
     atom    2 type  1   force =     0.00000000    0.00000000   -0.00009113
     atom    3 type  1   force =     0.00000092   -0.00000212    0.00007551
     atom    4 type  1   force =     0.00000000    0.00000000   -0.00003805
     atom    5 type  1   force =    -0.00000079    0.00000423    0.00004961
     atom    6 type  1   force =     0.00000000    0.00000000   -0.00008842
     atom    7 type  1   force =    -0.00000013   -0.00000094    0.00008619
     atom    8 type  1   force =     0.00000000    0.00000000   -0.00003488
     atom    9 type  1   force =     0.00000079   -0.00000423    0.00004961
     atom   10 type  1   force =     0.00000000    0.00000000   -0.00009442
     atom   11 type  1   force =     0.00000013    0.00000094    0.00008619
     atom   12 type  1   force =     0.00000000    0.00000000   -0.00003937
     atom   13 type  1   force =    -0.00000155    0.00000180    0.00004662
     atom   14 type  1   force =     0.00000000    0.00000000   -0.00009291
     atom   15 type  1   force =    -0.00000092    0.00000212    0.00007551
     atom   16 type  1   force =     0.00000000    0.00000000   -0.00003669

     Total force =     0.000274     Total SCF correction =     0.000205
     SCF correction compared to forces is large: reduce conv_thr to get better values

     BFGS Geometry Optimization
     Energy error            =      7.5E-08 Ry
     Gradient error          =      9.4E-05 Ry/Bohr

     bfgs converged in   1 scf cycles and   0 bfgs steps
     (criteria: energy <  1.0E-05 Ry, force <  3.9E-04 Ry/Bohr)

     End of BFGS Geometry Optimization

     Final energy             =    -240.5544668065 Ry
Begin final coordinates

ATOMIC_POSITIONS (angstrom)
Li               0.9915918500        1.4024131600       20.7485452800
Li               1.9832882700        2.8047934300       23.0859828200
Li               0.9917136700        1.4023803100       25.4944223500
Li               1.9832882800        2.8047934500       27.8318347700
Li               0.0000403700        4.2072151700       20.7487340200
Li               0.9916443500        5.6095863900       23.0861085700
Li              -0.0000794200        4.2071149300       25.4944037200
Li               0.9916443300        5.6095863500       27.8316634100
Li               3.9665362500        1.4023713000       20.7487340800
Li               4.9582206700        2.8047934200       23.0860925500
Li               3.9666560300        1.4024715100       25.4944037400
Li               4.9582206800        2.8047934400       27.8318544900
Li               2.9749847700        4.2071733100       20.7485452500
Li               3.9665767500        5.6095863800       23.0859820900
Li               2.9748629400        4.2072061300       25.4944223200
Li               3.9665767300        5.6095863300       27.8318233800
End final coordinates


     Message from routine punch:
     Nothing written, as per user request (disk_io='none')
 
     init_run     :      3.82s CPU      4.07s WALL (       1 calls)
     electrons    :     81.81s CPU     85.37s WALL (       1 calls)
     forces       :      0.20s CPU      0.21s WALL (       1 calls)

     Called by init_run:
     wfcinit      :      1.81s CPU      1.96s WALL (       1 calls)
     potinit      :      0.15s CPU      0.17s WALL (       1 calls)
     hinit0       :      0.02s CPU      0.05s WALL (       1 calls)

     Called by electrons:
     c_bands      :     64.80s CPU     67.29s WALL (      30 calls)
     sum_band     :     12.18s CPU     12.95s WALL (      30 calls)
     v_of_rho     :      1.07s CPU      1.12s WALL (      31 calls)
     newd         :      0.39s CPU      0.40s WALL (      31 calls)
     PAW_pot      :      0.44s CPU      0.55s WALL (      31 calls)
     mix_rho      :      2.49s CPU      2.57s WALL (      30 calls)

     Called by c_bands:
     init_us_2    :      0.66s CPU      0.71s WALL (    1922 calls)
     cegterg      :     62.55s CPU     64.95s WALL (     930 calls)

     Called by *egterg:
     cdiaghg      :      6.40s CPU      6.55s WALL (    5213 calls)
     h_psi        :     48.51s CPU     50.69s WALL (    5244 calls)
     s_psi        :      2.00s CPU      2.06s WALL (    5244 calls)
     g_psi        :      0.05s CPU      0.05s WALL (    4283 calls)

     Called by h_psi:
     h_psi:calbec :      3.90s CPU      4.08s WALL (    5244 calls)
     vloc_psi     :     41.13s CPU     43.05s WALL (    5244 calls)
                                        0.00s GPU  (    5244 calls)
     add_vuspsi   :      3.15s CPU      3.21s WALL (    5244 calls)

     General routines
     calbec       :      5.00s CPU      5.23s WALL (    6298 calls)
     fft          :      0.81s CPU      0.83s WALL (     403 calls)
     ffts         :      2.43s CPU      2.48s WALL (    3628 calls)
     fftw         :     46.94s CPU     49.17s WALL (  192612 calls)
     interpolate  :      0.08s CPU      0.08s WALL (      31 calls)
 
     Parallel routines
 
     PWSCF        :   1m26.25s CPU   1m33.58s WALL

 
   This run was terminated on:   0:37:28  23Jan2025            

=------------------------------------------------------------------------------=
   JOB DONE.
=------------------------------------------------------------------------------=
