
     Program PWSCF v.7.4 starts on  2Jan2025 at 21: 5: 3 

     This program is part of the open-source Quantum ESPRESSO suite
     for quantum simulation of materials; please cite
         "P. Giannozzi et al., J. Phys.:Condens. Matter 21 395502 (2009);
         "P. Giannozzi et al., J. Phys.:Condens. Matter 29 465901 (2017);
         "P. Giannozzi et al., J. Chem. Phys. 152 154105 (2020);
          URL http://www.quantum-espresso.org", 
     in publications or presentations arising from this work. More details at
     http://www.quantum-espresso.org/quote

     Parallel version (MPI & OpenMP), running on     256 processor cores
     Number of MPI processes:               256
     Threads/MPI process:                     1

     MPI processes distributed on     2 nodes
     228099 MiB available memory on the printing compute node when the environment starts

     Reading input from espresso.pwi
Warning: card &CELL ignored
Warning: card    PRESS_CONV_THR   = 0.1 ignored
Warning: card    CELL_DOFREE      = 'ALL' ignored
Warning: card / ignored
Warning: card &FCP ignored
Warning: card / ignored
Warning: card &RISM ignored
Warning: card / ignored

     Current dimensions of program PWSCF are:
     Max number of different atomic species (ntypx) = 10
     Max number of k-points (npk) =  40000
     Max angular momentum in pseudopotentials (lmaxx) =  4

     IMPORTANT: XC functional enforced from input :
     Exchange-correlation= PBE
                           (   1   4   3   4   0   0   0)
     Any further DFT definition will be discarded
     Please, verify this is what you really want


     Reading input from environ.in:
     * using ionic solvent mode
     * setting boundary derivatives method to SSCS default
     * setting electrolyte-boundary derivatives method to SSCS default

Environ Warning (1001): card EOF ignored

     
     Found identity + (  0.0000  0.5000  0.0000) symmetry
     This is a supercell, fractional translations are disabled

     R & G space division:  proc/nbgrp/npool/nimage =     256
     Subspace diagonalization in iterative solution of the eigenvalue problem:
     a serial algorithm will be used


     Parallelization info
     --------------------
     sticks:   dense  smooth     PW     G-vecs:    dense   smooth      PW
     Min          41      16      4                24769     6230     846
     Max          42      17      5                24868     6321     923
     Sum       10733    4281   1153              6359029  1608267  224795

     Using Slab Decomposition



     bravais-lattice index     =            6
     lattice parameter (alat)  =      12.9830  a.u.
     unit-cell volume          =   16640.2915 (a.u.)^3
     number of atoms/cell      =           32
     number of atomic types    =            1
     number of electrons       =        96.00
     number of Kohn-Sham states=           72
     kinetic-energy cutoff     =      80.0000  Ry
     charge density cutoff     =     800.0000  Ry
     scf convergence threshold =      1.0E-06
     mixing beta               =       0.2000
     number of iterations used =            8  local-TF  mixing
     energy convergence thresh.=      1.0E-05
     force convergence thresh. =      3.9E-04
     Exchange-correlation= PBE
                           (   1   4   3   4   0   0   0)
     nstep                     =          999


     ================================================================================

                                  Environ Setup Summary

     ================================================================================

     Please cite

          O. Andreussi, I. Dabo and N. Marzari, J. Chem. Phys. 136, 064102 (2012)
          F. Nattino, M. Truscott, N. Marzari, and O. Andreussi, J. Chem. Phys. 150, 041722 (2019)

     in publications or presentations arising from this work.

     ================================================================================

     Parameters
     ==========

     compensation onset threshold      =               0.1000E+00
     static permittivity               =                    89.90
     surface tension in input (dyn/cm) =                    37.30
     surface tension in internal units =               0.4792E-04

     Solvent Boundary
     ================

     solvent mode                      =                    ionic
     derivatives method                =                   lowmem
     electrolyte derivatives method    =                   lowmem
     numerical core for derivatives    =                      fft
     switching function adopted        =                     SCCS
     density limit for vacuum region   =               0.5000E-02
     density limit for bulk solvent    =               0.1000E-03
     soft-sphere radius mode           =                    bondi
     soft-sphere softness              =                     0.50
     alpha                             =                     1.32

     Electrostatic Setup
     ===================

     electrostatic problem to solve    =                    modpb
     numerical solver adopted          =                   newton
     type of auxiliary density adopted =                     none
     numerical core for poisson        =                      fft
     adopting a nested solver scheme
     inner solver                      =                       cg
     inner core                        =                      fft
     type of pbc corrections           =                parabolic
     numerical core for corrections    =                      1da

     ================================================================================


     >>>>> Grand-Canonical SCF is activated <<<<<
     Initial Total Charge  =     0.000000 e
     Target Fermi Energy   =    -2.404000 eV
     Thr. of Fermi Energy  =     0.001000 eV
     Wave-shift of Kerker  =     0.400000 bohr^-1
     Wave-shift of Hartree =     1.500000 bohr^-1
     Mixing Rate of Fermi  =     0.050000

     celldm(1)=  12.983009  celldm(2)=   0.000000  celldm(3)=   7.603873
     celldm(4)=   0.000000  celldm(5)=   0.000000  celldm(6)=   0.000000

     crystal axes: (cart. coord. in units of alat)
               a(1) = (   1.000000   0.000000   0.000000 )  
               a(2) = (   0.000000   1.000000   0.000000 )  
               a(3) = (   0.000000   0.000000   7.603873 )  

     reciprocal axes: (cart. coord. in units 2 pi/alat)
               b(1) = (  1.000000  0.000000  0.000000 )  
               b(2) = (  0.000000  1.000000  0.000000 )  
               b(3) = (  0.000000  0.000000  0.131512 )  


     PseudoPot. # 1 for Li read from file:
     /work/e89/e89/ba3g18/Repos/Pseudopotentials/Pslibrary/Li.pbe-sl-kjpaw_psl.1.0.0.UPF
     MD5 check sum: 3f4d2cafebb47c6c3aa8ed472e6f074d
     Pseudo is Projector augmented-wave, Zval =  3.0
     Generated using 'atomic' code by A. Dal Corso  v.7.4
     Shape of augmentation charge: PSQ
     Using radial grid of 1017 points,  4 beta functions with: 
                l(1) =   0
                l(2) =   0
                l(3) =   1
                l(4) =   1
     Q(r) pseudized with 0 coefficients 


     atomic species   valence    mass     pseudopotential
     Li                3.00     6.94000     Li( 1.00)

      8 Sym. Ops. (no inversion) found


                                    s                        frac. trans.

      isym =  1     identity                                     

 cryst.   s( 1) = (     1          0          0      )
                  (     0          1          0      )
                  (     0          0          1      )

 cart.    s( 1) = (  1.0000000  0.0000000  0.0000000 )
                  (  0.0000000  1.0000000  0.0000000 )
                  (  0.0000000  0.0000000  1.0000000 )


      isym =  2     180 deg rotation - cart. axis [0,0,1]        

 cryst.   s( 2) = (    -1          0          0      )
                  (     0         -1          0      )
                  (     0          0          1      )

 cart.    s( 2) = ( -1.0000000  0.0000000  0.0000000 )
                  (  0.0000000 -1.0000000  0.0000000 )
                  (  0.0000000  0.0000000  1.0000000 )


      isym =  3      90 deg rotation - cart. axis [0,0,-1]       

 cryst.   s( 3) = (     0         -1          0      )
                  (     1          0          0      )
                  (     0          0          1      )

 cart.    s( 3) = (  0.0000000  1.0000000  0.0000000 )
                  ( -1.0000000  0.0000000  0.0000000 )
                  (  0.0000000  0.0000000  1.0000000 )


      isym =  4      90 deg rotation - cart. axis [0,0,1]        

 cryst.   s( 4) = (     0          1          0      )
                  (    -1          0          0      )
                  (     0          0          1      )

 cart.    s( 4) = (  0.0000000 -1.0000000  0.0000000 )
                  (  1.0000000  0.0000000  0.0000000 )
                  (  0.0000000  0.0000000  1.0000000 )


      isym =  5     inv. 180 deg rotation - cart. axis [0,1,0]   

 cryst.   s( 5) = (     1          0          0      )
                  (     0         -1          0      )
                  (     0          0          1      )

 cart.    s( 5) = (  1.0000000  0.0000000  0.0000000 )
                  (  0.0000000 -1.0000000  0.0000000 )
                  (  0.0000000  0.0000000  1.0000000 )


      isym =  6     inv. 180 deg rotation - cart. axis [1,0,0]   

 cryst.   s( 6) = (    -1          0          0      )
                  (     0          1          0      )
                  (     0          0          1      )

 cart.    s( 6) = ( -1.0000000  0.0000000  0.0000000 )
                  (  0.0000000  1.0000000  0.0000000 )
                  (  0.0000000  0.0000000  1.0000000 )


      isym =  7     inv. 180 deg rotation - cart. axis [1,1,0]   

 cryst.   s( 7) = (     0         -1          0      )
                  (    -1          0          0      )
                  (     0          0          1      )

 cart.    s( 7) = (  0.0000000 -1.0000000  0.0000000 )
                  ( -1.0000000  0.0000000  0.0000000 )
                  (  0.0000000  0.0000000  1.0000000 )


      isym =  8     inv. 180 deg rotation - cart. axis [1,-1,0]  

 cryst.   s( 8) = (     0          1          0      )
                  (     1          0          0      )
                  (     0          0          1      )

 cart.    s( 8) = (  0.0000000  1.0000000  0.0000000 )
                  (  1.0000000  0.0000000  0.0000000 )
                  (  0.0000000  0.0000000  1.0000000 )


     point group C_4v (4mm) 
     there are  5 classes
     the character table:

       E     2C4   C2    2s_v  2s_d 
A_1    1.00  1.00  1.00  1.00  1.00
A_2    1.00  1.00  1.00 -1.00 -1.00
B_1    1.00 -1.00  1.00  1.00 -1.00
B_2    1.00 -1.00  1.00 -1.00  1.00
E      2.00  0.00 -2.00  0.00  0.00

     the symmetry operations in each class and the name of the first element:

     E        1
          identity                                               
     2C4      3    4
           90 deg rotation - cart. axis [0,0,-1]                 
     C2       2
          180 deg rotation - cart. axis [0,0,1]                  
     2s_v     5    6
          inv. 180 deg rotation - cart. axis [0,1,0]             
     2s_d     7    8
          inv. 180 deg rotation - cart. axis [1,1,0]             

   Cartesian axes

     site n.     atom                  positions (alat units)
         1        Li     tau(   1) = (  -0.0000000  -0.0000000   3.1775890  )
         2        Li     tau(   2) = (   0.2500007   0.2500007   2.9100037  )
         3        Li     tau(   3) = (  -0.0000000  -0.0000000   3.6735741  )
         4        Li     tau(   4) = (   0.2499971   0.2499971   3.4240120  )
         5        Li     tau(   5) = (  -0.0000000  -0.0000000   4.1797639  )
         6        Li     tau(   6) = (   0.2500013   0.2500013   3.9301063  )
         7        Li     tau(   7) = (  -0.0000000  -0.0000000   4.6941031  )
         8        Li     tau(   8) = (   0.2499985   0.2499985   4.4264072  )
         9        Li     tau(   9) = (  -0.0000000   0.5000000   3.1775890  )
        10        Li     tau(  10) = (   0.2500007   0.7499993   2.9100037  )
        11        Li     tau(  11) = (  -0.0000000   0.5000000   3.6735778  )
        12        Li     tau(  12) = (   0.2499971   0.7500029   3.4240120  )
        13        Li     tau(  13) = (  -0.0000000   0.5000000   4.1797660  )
        14        Li     tau(  14) = (   0.2500013   0.7499986   3.9301063  )
        15        Li     tau(  15) = (  -0.0000000   0.5000000   4.6941026  )
        16        Li     tau(  16) = (   0.2499985   0.7500015   4.4264072  )
        17        Li     tau(  17) = (   0.5000000  -0.0000000   3.1775890  )
        18        Li     tau(  18) = (   0.7499993   0.2500007   2.9100037  )
        19        Li     tau(  19) = (   0.5000000  -0.0000000   3.6735778  )
        20        Li     tau(  20) = (   0.7500029   0.2499971   3.4240120  )
        21        Li     tau(  21) = (   0.5000000  -0.0000000   4.1797660  )
        22        Li     tau(  22) = (   0.7499986   0.2500013   3.9301063  )
        23        Li     tau(  23) = (   0.5000000  -0.0000000   4.6941026  )
        24        Li     tau(  24) = (   0.7500015   0.2499985   4.4264072  )
        25        Li     tau(  25) = (   0.5000000   0.5000000   3.1775857  )
        26        Li     tau(  26) = (   0.7499993   0.7499993   2.9100037  )
        27        Li     tau(  27) = (   0.5000000   0.5000000   3.6735788  )
        28        Li     tau(  28) = (   0.7500029   0.7500029   3.4240120  )
        29        Li     tau(  29) = (   0.5000000   0.5000000   4.1797695  )
        30        Li     tau(  30) = (   0.7499986   0.7499986   3.9301063  )
        31        Li     tau(  31) = (   0.5000000   0.5000000   4.6941016  )
        32        Li     tau(  32) = (   0.7500015   0.7500015   4.4264072  )

   Crystallographic axes

     site n.     atom                  positions (cryst. coord.)
         1        Li     tau(   1) = ( -0.0000000 -0.0000000  0.4178909  )
         2        Li     tau(   2) = (  0.2500007  0.2500007  0.3827002  )
         3        Li     tau(   3) = ( -0.0000000 -0.0000000  0.4831188  )
         4        Li     tau(   4) = (  0.2499971  0.2499971  0.4502984  )
         5        Li     tau(   5) = ( -0.0000000 -0.0000000  0.5496888  )
         6        Li     tau(   6) = (  0.2500013  0.2500013  0.5168559  )
         7        Li     tau(   7) = ( -0.0000000 -0.0000000  0.6173306  )
         8        Li     tau(   8) = (  0.2499985  0.2499985  0.5821253  )
         9        Li     tau(   9) = ( -0.0000000  0.5000000  0.4178909  )
        10        Li     tau(  10) = (  0.2500007  0.7499993  0.3827002  )
        11        Li     tau(  11) = ( -0.0000000  0.5000000  0.4831193  )
        12        Li     tau(  12) = (  0.2499971  0.7500029  0.4502984  )
        13        Li     tau(  13) = ( -0.0000000  0.5000000  0.5496891  )
        14        Li     tau(  14) = (  0.2500013  0.7499986  0.5168559  )
        15        Li     tau(  15) = ( -0.0000000  0.5000000  0.6173305  )
        16        Li     tau(  16) = (  0.2499985  0.7500015  0.5821253  )
        17        Li     tau(  17) = (  0.5000000 -0.0000000  0.4178909  )
        18        Li     tau(  18) = (  0.7499993  0.2500007  0.3827002  )
        19        Li     tau(  19) = (  0.5000000 -0.0000000  0.4831193  )
        20        Li     tau(  20) = (  0.7500029  0.2499971  0.4502984  )
        21        Li     tau(  21) = (  0.5000000 -0.0000000  0.5496891  )
        22        Li     tau(  22) = (  0.7499986  0.2500013  0.5168559  )
        23        Li     tau(  23) = (  0.5000000 -0.0000000  0.6173305  )
        24        Li     tau(  24) = (  0.7500015  0.2499985  0.5821253  )
        25        Li     tau(  25) = (  0.5000000  0.5000000  0.4178904  )
        26        Li     tau(  26) = (  0.7499993  0.7499993  0.3827002  )
        27        Li     tau(  27) = (  0.5000000  0.5000000  0.4831194  )
        28        Li     tau(  28) = (  0.7500029  0.7500029  0.4502984  )
        29        Li     tau(  29) = (  0.5000000  0.5000000  0.5496895  )
        30        Li     tau(  30) = (  0.7499986  0.7499986  0.5168559  )
        31        Li     tau(  31) = (  0.5000000  0.5000000  0.6173304  )
        32        Li     tau(  32) = (  0.7500015  0.7500015  0.5821253  )

     number of k points=    21  Marzari-Vanderbilt smearing, width (Ry)=  0.0100
                       cart. coord. in units 2pi/alat
        k(    1) = (   0.0000000   0.0000000   0.0000000), wk =   0.0200000
        k(    2) = (   0.0000000   0.1000000   0.0000000), wk =   0.0800000
        k(    3) = (   0.0000000   0.2000000   0.0000000), wk =   0.0800000
        k(    4) = (   0.0000000   0.3000000   0.0000000), wk =   0.0800000
        k(    5) = (   0.0000000   0.4000000   0.0000000), wk =   0.0800000
        k(    6) = (   0.0000000  -0.5000000   0.0000000), wk =   0.0400000
        k(    7) = (   0.1000000   0.1000000   0.0000000), wk =   0.0800000
        k(    8) = (   0.1000000   0.2000000   0.0000000), wk =   0.1600000
        k(    9) = (   0.1000000   0.3000000   0.0000000), wk =   0.1600000
        k(   10) = (   0.1000000   0.4000000   0.0000000), wk =   0.1600000
        k(   11) = (   0.1000000  -0.5000000   0.0000000), wk =   0.0800000
        k(   12) = (   0.2000000   0.2000000   0.0000000), wk =   0.0800000
        k(   13) = (   0.2000000   0.3000000   0.0000000), wk =   0.1600000
        k(   14) = (   0.2000000   0.4000000   0.0000000), wk =   0.1600000
        k(   15) = (   0.2000000  -0.5000000   0.0000000), wk =   0.0800000
        k(   16) = (   0.3000000   0.3000000   0.0000000), wk =   0.0800000
        k(   17) = (   0.3000000   0.4000000   0.0000000), wk =   0.1600000
        k(   18) = (   0.3000000  -0.5000000   0.0000000), wk =   0.0800000
        k(   19) = (   0.4000000   0.4000000   0.0000000), wk =   0.0800000
        k(   20) = (   0.4000000  -0.5000000   0.0000000), wk =   0.0800000
        k(   21) = (  -0.5000000  -0.5000000   0.0000000), wk =   0.0200000

                       cryst. coord.
        k(    1) = (   0.0000000   0.0000000   0.0000000), wk =   0.0200000
        k(    2) = (   0.0000000   0.1000000   0.0000000), wk =   0.0800000
        k(    3) = (   0.0000000   0.2000000   0.0000000), wk =   0.0800000
        k(    4) = (   0.0000000   0.3000000   0.0000000), wk =   0.0800000
        k(    5) = (   0.0000000   0.4000000   0.0000000), wk =   0.0800000
        k(    6) = (   0.0000000  -0.5000000   0.0000000), wk =   0.0400000
        k(    7) = (   0.1000000   0.1000000   0.0000000), wk =   0.0800000
        k(    8) = (   0.1000000   0.2000000   0.0000000), wk =   0.1600000
        k(    9) = (   0.1000000   0.3000000   0.0000000), wk =   0.1600000
        k(   10) = (   0.1000000   0.4000000   0.0000000), wk =   0.1600000
        k(   11) = (   0.1000000  -0.5000000   0.0000000), wk =   0.0800000
        k(   12) = (   0.2000000   0.2000000   0.0000000), wk =   0.0800000
        k(   13) = (   0.2000000   0.3000000   0.0000000), wk =   0.1600000
        k(   14) = (   0.2000000   0.4000000   0.0000000), wk =   0.1600000
        k(   15) = (   0.2000000  -0.5000000   0.0000000), wk =   0.0800000
        k(   16) = (   0.3000000   0.3000000   0.0000000), wk =   0.0800000
        k(   17) = (   0.3000000   0.4000000   0.0000000), wk =   0.1600000
        k(   18) = (   0.3000000  -0.5000000   0.0000000), wk =   0.0800000
        k(   19) = (   0.4000000   0.4000000   0.0000000), wk =   0.0800000
        k(   20) = (   0.4000000  -0.5000000   0.0000000), wk =   0.0800000
        k(   21) = (  -0.5000000  -0.5000000   0.0000000), wk =   0.0200000

     Dense  grid:  6359029 G-vectors     FFT dimensions: ( 120, 120, 900)

     Smooth grid:  1608267 G-vectors     FFT dimensions: (  75,  75, 576)

     Dynamical RAM for                 wfc:       0.86 MB

     Dynamical RAM for     wfc (w. buffer):      18.97 MB

     Dynamical RAM for           str. fact:       0.38 MB

     Dynamical RAM for           local pot:       0.00 MB

     Dynamical RAM for          nlocal pot:       3.07 MB

     Dynamical RAM for                qrad:       0.65 MB

     Dynamical RAM for          rho,v,vnew:       2.46 MB

     Dynamical RAM for               rhoin:       0.82 MB

     Dynamical RAM for            rho*nmix:       6.07 MB

     Dynamical RAM for           G-vectors:       1.47 MB

     Dynamical RAM for          h,s,v(r/c):       3.80 MB

     Dynamical RAM for          <psi|beta>:       0.28 MB

     Dynamical RAM for                 psi:       3.45 MB

     Dynamical RAM for                hpsi:       3.45 MB

     Dynamical RAM for                spsi:       3.45 MB

     Dynamical RAM for      wfcinit/wfcrot:       1.84 MB

     Dynamical RAM for           addusdens:      28.45 MB

     Dynamical RAM for          addusforce:      52.18 MB

     Estimated static dynamical RAM per process >      30.77 MB

     Estimated max dynamical RAM per process >      97.03 MB

     Estimated total dynamical RAM >      22.26 GB

     Initial potential from superposition of free atoms

     starting charge      95.8525, renormalised to      96.0000

     negative rho (up, down):  2.937E-03 0.000E+00
     Starting wfcs are random
     Checking if some PAW data can be deallocated... 

     total cpu time spent up to now is       23.3 secs

     Self-consistent Calculation

     iteration #  1     ecut=    80.00 Ry     beta= 0.20
     Davidson diagonalization with overlap

---- Real-time Memory Report at c_bands before calling an iterative solver
           379 MiB given to the printing process from OS
             0 MiB allocation reported by mallinfo(arena+hblkhd)
        217190 MiB available memory on the node where the printing process lives
------------------
     c_bands:  1 eigenvalues not converged
     c_bands:  2 eigenvalues not converged
     c_bands:  1 eigenvalues not converged
     c_bands:  1 eigenvalues not converged
     c_bands:  2 eigenvalues not converged
     ethr =  1.00E-12,  avg # of iterations =112.8

     negative rho (up, down):  2.177E-03 0.000E+00

     total cpu time spent up to now is      213.3 secs

     total energy              =    -481.07717410 Ry
     estimated scf accuracy    <       0.10383922 Ry

     total charge of GC-SCF    =      -0.00070732 e
     the Fermi energy          =      -4.27591262 eV
                        (error :       1.87191262 eV)
     electrostatic embedding   =       0.00000000 Ry
     cavitation energy         =       0.01927463 Ry
     electrolyte free energy   =       0.00716218 Ry
     correction to one-el term =      -0.00000000 Ry

     iteration #  2     ecut=    80.00 Ry     beta= 0.20
     Davidson diagonalization with overlap

---- Real-time Memory Report at c_bands before calling an iterative solver
           379 MiB given to the printing process from OS
             0 MiB allocation reported by mallinfo(arena+hblkhd)
        214685 MiB available memory on the node where the printing process lives
------------------
     ethr =  1.00E-05,  avg # of iterations = 10.9

     negative rho (up, down):  1.718E-03 0.000E+00

     add environment contribution to local potential

     total cpu time spent up to now is      237.8 secs

     total energy              =    -481.24962102 Ry
     estimated scf accuracy    <       0.04326972 Ry

     total charge of GC-SCF    =       0.00123719 e
     the Fermi energy          =      -2.98147452 eV
                        (error :       0.57747452 eV)
     electrostatic embedding   =      -0.00000641 Ry
     cavitation energy         =       0.01927463 Ry
     electrolyte free energy   =       0.00716218 Ry
     correction to one-el term =      -0.00000000 Ry

     iteration #  3     ecut=    80.00 Ry     beta= 0.20
     Davidson diagonalization with overlap

---- Real-time Memory Report at c_bands before calling an iterative solver
           379 MiB given to the printing process from OS
             0 MiB allocation reported by mallinfo(arena+hblkhd)
        214664 MiB available memory on the node where the printing process lives
------------------
     ethr =  1.00E-05,  avg # of iterations = 18.8

     negative rho (up, down):  1.399E-03 0.000E+00

     add environment contribution to local potential

     total cpu time spent up to now is      270.6 secs

     total energy              =    -481.15935742 Ry
     estimated scf accuracy    <       0.02962520 Ry

     total charge of GC-SCF    =      -0.05300227 e
     the Fermi energy          =      -2.92474065 eV
                        (error :       0.52074065 eV)
     electrostatic embedding   =      -0.02115261 Ry
     cavitation energy         =       0.01927463 Ry
     electrolyte free energy   =      -0.00283256 Ry
     correction to one-el term =       0.33514203 Ry

     iteration #  4     ecut=    80.00 Ry     beta= 0.20
     Davidson diagonalization with overlap

---- Real-time Memory Report at c_bands before calling an iterative solver
           379 MiB given to the printing process from OS
             0 MiB allocation reported by mallinfo(arena+hblkhd)
        214682 MiB available memory on the node where the printing process lives
------------------
     ethr =  1.00E-05,  avg # of iterations = 12.9

     negative rho (up, down):  1.129E-03 0.000E+00

     add environment contribution to local potential

     total cpu time spent up to now is      297.2 secs

     total energy              =    -481.21208943 Ry
     estimated scf accuracy    <       0.01416214 Ry

     total charge of GC-SCF    =      -0.07434310 e
     the Fermi energy          =      -3.26681411 eV
                        (error :       0.86281411 eV)
     electrostatic embedding   =      -0.02304020 Ry
     cavitation energy         =       0.01927463 Ry
     electrolyte free energy   =      -0.00366124 Ry
     correction to one-el term =       3.44998317 Ry

     iteration #  5     ecut=    80.00 Ry     beta= 0.20
     Davidson diagonalization with overlap

---- Real-time Memory Report at c_bands before calling an iterative solver
           379 MiB given to the printing process from OS
             0 MiB allocation reported by mallinfo(arena+hblkhd)
        214626 MiB available memory on the node where the printing process lives
------------------
     ethr =  1.00E-05,  avg # of iterations = 12.1

     negative rho (up, down):  9.334E-04 0.000E+00

     add environment contribution to local potential

     total cpu time spent up to now is      320.0 secs

     total energy              =    -481.16688268 Ry
     estimated scf accuracy    <       0.00401922 Ry

     total charge of GC-SCF    =      -0.14286120 e
     the Fermi energy          =      -2.86085551 eV
                        (error :       0.45685551 eV)
     electrostatic embedding   =      -0.02256847 Ry
     cavitation energy         =       0.01927463 Ry
     electrolyte free energy   =      -0.00190989 Ry
     correction to one-el term =       4.14206792 Ry

     iteration #  6     ecut=    80.00 Ry     beta= 0.20
     Davidson diagonalization with overlap

---- Real-time Memory Report at c_bands before calling an iterative solver
           379 MiB given to the printing process from OS
             0 MiB allocation reported by mallinfo(arena+hblkhd)
        214614 MiB available memory on the node where the printing process lives
------------------
     ethr =  4.18E-06,  avg # of iterations = 16.0

     negative rho (up, down):  8.143E-04 0.000E+00

     add environment contribution to local potential

     total cpu time spent up to now is      349.7 secs

     total energy              =    -481.23366656 Ry
     estimated scf accuracy    <       0.00367103 Ry

     total charge of GC-SCF    =      -0.19706029 e
     the Fermi energy          =      -2.39992520 eV
                        (error :       0.00407480 eV)
     electrostatic embedding   =      -0.02745244 Ry
     cavitation energy         =       0.01927463 Ry
     electrolyte free energy   =      -0.00023530 Ry
     correction to one-el term =       9.65674553 Ry

     iteration #  7     ecut=    80.00 Ry     beta= 0.20
     Davidson diagonalization with overlap

---- Real-time Memory Report at c_bands before calling an iterative solver
           379 MiB given to the printing process from OS
             0 MiB allocation reported by mallinfo(arena+hblkhd)
        214597 MiB available memory on the node where the printing process lives
------------------
     ethr =  3.82E-06,  avg # of iterations = 11.8

     negative rho (up, down):  7.519E-04 0.000E+00

     add environment contribution to local potential

     total cpu time spent up to now is      372.0 secs

     total energy              =    -481.20734537 Ry
     estimated scf accuracy    <       0.00784466 Ry

     total charge of GC-SCF    =      -0.27482925 e
     the Fermi energy          =      -2.22391249 eV
                        (error :       0.18008751 eV)
     electrostatic embedding   =      -0.03617297 Ry
     cavitation energy         =       0.01927463 Ry
     electrolyte free energy   =      -0.00076274 Ry
     correction to one-el term =      12.79603932 Ry

     iteration #  8     ecut=    80.00 Ry     beta= 0.20
     Davidson diagonalization with overlap

---- Real-time Memory Report at c_bands before calling an iterative solver
           379 MiB given to the printing process from OS
             0 MiB allocation reported by mallinfo(arena+hblkhd)
        214573 MiB available memory on the node where the printing process lives
------------------
     ethr =  3.82E-06,  avg # of iterations =  7.6

     negative rho (up, down):  7.135E-04 0.000E+00

     add environment contribution to local potential

     total cpu time spent up to now is      389.7 secs

     total energy              =    -481.20024917 Ry
     estimated scf accuracy    <       0.00231330 Ry

     total charge of GC-SCF    =      -0.34530001 e
     the Fermi energy          =      -2.33042433 eV
                        (error :       0.07357567 eV)
     electrostatic embedding   =      -0.04935550 Ry
     cavitation energy         =       0.01927463 Ry
     electrolyte free energy   =      -0.00046803 Ry
     correction to one-el term =      15.57184959 Ry

     iteration #  9     ecut=    80.00 Ry     beta= 0.20
     Davidson diagonalization with overlap

---- Real-time Memory Report at c_bands before calling an iterative solver
           379 MiB given to the printing process from OS
             0 MiB allocation reported by mallinfo(arena+hblkhd)
        214551 MiB available memory on the node where the printing process lives
------------------
     ethr =  2.40E-06,  avg # of iterations =  8.7

     negative rho (up, down):  6.262E-04 0.000E+00

     add environment contribution to local potential

     total cpu time spent up to now is      408.8 secs

     total energy              =    -481.21220602 Ry
     estimated scf accuracy    <       0.00028107 Ry

     total charge of GC-SCF    =      -0.40027418 e
     the Fermi energy          =      -2.45621557 eV
                        (error :       0.05221557 eV)
     electrostatic embedding   =      -0.06249974 Ry
     cavitation energy         =       0.01927463 Ry
     electrolyte free energy   =      -0.00029219 Ry
     correction to one-el term =      17.13134879 Ry

     iteration # 10     ecut=    80.00 Ry     beta= 0.20
     Davidson diagonalization with overlap

---- Real-time Memory Report at c_bands before calling an iterative solver
           379 MiB given to the printing process from OS
             0 MiB allocation reported by mallinfo(arena+hblkhd)
        214533 MiB available memory on the node where the printing process lives
------------------
     ethr =  2.92E-07,  avg # of iterations =  8.9

     negative rho (up, down):  5.678E-04 0.000E+00

     add environment contribution to local potential

     total cpu time spent up to now is      429.3 secs

     total energy              =    -481.21301962 Ry
     estimated scf accuracy    <       0.00023313 Ry

     total charge of GC-SCF    =      -0.47804235 e
     the Fermi energy          =      -2.46140918 eV
                        (error :       0.05740918 eV)
     electrostatic embedding   =      -0.07238772 Ry
     cavitation energy         =       0.01927463 Ry
     electrolyte free energy   =      -0.00029165 Ry
     correction to one-el term =      18.49306108 Ry

     iteration # 11     ecut=    80.00 Ry     beta= 0.20
     Davidson diagonalization with overlap

---- Real-time Memory Report at c_bands before calling an iterative solver
           379 MiB given to the printing process from OS
             0 MiB allocation reported by mallinfo(arena+hblkhd)
        214515 MiB available memory on the node where the printing process lives
------------------
     ethr =  2.42E-07,  avg # of iterations =  8.3

     negative rho (up, down):  5.144E-04 0.000E+00

     add environment contribution to local potential

     total cpu time spent up to now is      449.2 secs

     total energy              =    -481.21402283 Ry
     estimated scf accuracy    <       0.00019289 Ry

     total charge of GC-SCF    =      -0.51535391 e
     the Fermi energy          =      -2.46353234 eV
                        (error :       0.05953234 eV)
     electrostatic embedding   =      -0.08973483 Ry
     cavitation energy         =       0.01927463 Ry
     electrolyte free energy   =      -0.00034031 Ry
     correction to one-el term =      20.78941148 Ry

     iteration # 12     ecut=    80.00 Ry     beta= 0.20
     Davidson diagonalization with overlap

---- Real-time Memory Report at c_bands before calling an iterative solver
           379 MiB given to the printing process from OS
             0 MiB allocation reported by mallinfo(arena+hblkhd)
        214512 MiB available memory on the node where the printing process lives
------------------
     ethr =  2.00E-07,  avg # of iterations =  7.5

     negative rho (up, down):  4.659E-04 0.000E+00

     add environment contribution to local potential

     total cpu time spent up to now is      466.5 secs

     total energy              =    -481.21416312 Ry
     estimated scf accuracy    <       0.00014081 Ry

     total charge of GC-SCF    =      -0.55679735 e
     the Fermi energy          =      -2.47289029 eV
                        (error :       0.06889029 eV)
     electrostatic embedding   =      -0.09922182 Ry
     cavitation energy         =       0.01927463 Ry
     electrolyte free energy   =      -0.00038195 Ry
     correction to one-el term =      21.79788406 Ry

     iteration # 13     ecut=    80.00 Ry     beta= 0.20
     Davidson diagonalization with overlap

---- Real-time Memory Report at c_bands before calling an iterative solver
           379 MiB given to the printing process from OS
             0 MiB allocation reported by mallinfo(arena+hblkhd)
        214504 MiB available memory on the node where the printing process lives
------------------
     ethr =  1.46E-07,  avg # of iterations =  8.3

     negative rho (up, down):  4.337E-04 0.000E+00

     add environment contribution to local potential

     total cpu time spent up to now is      485.2 secs

     total energy              =    -481.21538611 Ry
     estimated scf accuracy    <       0.00006701 Ry

     total charge of GC-SCF    =      -0.57424016 e
     the Fermi energy          =      -2.48333847 eV
                        (error :       0.07933847 eV)
     electrostatic embedding   =      -0.11026791 Ry
     cavitation energy         =       0.01927463 Ry
     electrolyte free energy   =      -0.00043686 Ry
     correction to one-el term =      22.83410630 Ry

     iteration # 14     ecut=    80.00 Ry     beta= 0.20
     Davidson diagonalization with overlap

---- Real-time Memory Report at c_bands before calling an iterative solver
           379 MiB given to the printing process from OS
             0 MiB allocation reported by mallinfo(arena+hblkhd)
        214509 MiB available memory on the node where the printing process lives
------------------
     ethr =  6.94E-08,  avg # of iterations =  7.0

     negative rho (up, down):  4.017E-04 0.000E+00

     add environment contribution to local potential

     total cpu time spent up to now is      501.9 secs

     total energy              =    -481.21475958 Ry
     estimated scf accuracy    <       0.00004563 Ry

     total charge of GC-SCF    =      -0.63941646 e
     the Fermi energy          =      -2.48992053 eV
                        (error :       0.08592053 eV)
     electrostatic embedding   =      -0.11505842 Ry
     cavitation energy         =       0.01927463 Ry
     electrolyte free energy   =      -0.00046167 Ry
     correction to one-el term =      23.22203941 Ry

     iteration # 15     ecut=    80.00 Ry     beta= 0.20
     Davidson diagonalization with overlap

---- Real-time Memory Report at c_bands before calling an iterative solver
           379 MiB given to the printing process from OS
             0 MiB allocation reported by mallinfo(arena+hblkhd)
        214511 MiB available memory on the node where the printing process lives
------------------
     ethr =  4.72E-08,  avg # of iterations = 10.8

     negative rho (up, down):  3.772E-04 0.000E+00

     add environment contribution to local potential

     total cpu time spent up to now is      525.9 secs

     total energy              =    -481.21560702 Ry
     estimated scf accuracy    <       0.00001648 Ry

     total charge of GC-SCF    =      -0.74583764 e
     the Fermi energy          =      -2.49114188 eV
                        (error :       0.08714188 eV)
     electrostatic embedding   =      -0.13433507 Ry
     cavitation energy         =       0.01927463 Ry
     electrolyte free energy   =      -0.00056359 Ry
     correction to one-el term =      25.14662266 Ry

     iteration # 16     ecut=    80.00 Ry     beta= 0.20
     Davidson diagonalization with overlap

---- Real-time Memory Report at c_bands before calling an iterative solver
           379 MiB given to the printing process from OS
             0 MiB allocation reported by mallinfo(arena+hblkhd)
        214515 MiB available memory on the node where the printing process lives
------------------
     ethr =  1.70E-08,  avg # of iterations = 13.2

     negative rho (up, down):  3.567E-04 0.000E+00

     add environment contribution to local potential

     total cpu time spent up to now is      551.4 secs

     total energy              =    -481.21680267 Ry
     estimated scf accuracy    <       0.00000669 Ry

     total charge of GC-SCF    =      -0.86503434 e
     the Fermi energy          =      -2.48806389 eV
                        (error :       0.08406389 eV)
     electrostatic embedding   =      -0.16916365 Ry
     cavitation energy         =       0.01927463 Ry
     electrolyte free energy   =      -0.00074912 Ry
     correction to one-el term =      28.39670116 Ry

     iteration # 17     ecut=    80.00 Ry     beta= 0.20
     Davidson diagonalization with overlap

---- Real-time Memory Report at c_bands before calling an iterative solver
           379 MiB given to the printing process from OS
             0 MiB allocation reported by mallinfo(arena+hblkhd)
        214500 MiB available memory on the node where the printing process lives
------------------
     ethr =  6.91E-09,  avg # of iterations = 15.0

     negative rho (up, down):  3.414E-04 0.000E+00

     add environment contribution to local potential

     total cpu time spent up to now is      579.5 secs

     total energy              =    -481.21769347 Ry
     estimated scf accuracy    <       0.00000683 Ry

     total charge of GC-SCF    =      -0.96428152 e
     the Fermi energy          =      -2.46935148 eV
                        (error :       0.06535148 eV)
     electrostatic embedding   =      -0.21269464 Ry
     cavitation energy         =       0.01927463 Ry
     electrolyte free energy   =      -0.00098821 Ry
     correction to one-el term =      32.19705787 Ry

     iteration # 18     ecut=    80.00 Ry     beta= 0.20
     Davidson diagonalization with overlap

---- Real-time Memory Report at c_bands before calling an iterative solver
           379 MiB given to the printing process from OS
             0 MiB allocation reported by mallinfo(arena+hblkhd)
        214485 MiB available memory on the node where the printing process lives
------------------
     ethr =  6.91E-09,  avg # of iterations = 14.2

     negative rho (up, down):  3.265E-04 0.000E+00

     add environment contribution to local potential

     total cpu time spent up to now is      606.0 secs

     total energy              =    -481.22001585 Ry
     estimated scf accuracy    <       0.00000521 Ry

     total charge of GC-SCF    =      -1.11971183 e
     the Fermi energy          =      -2.45786944 eV
                        (error :       0.05386944 eV)
     electrostatic embedding   =      -0.25303877 Ry
     cavitation energy         =       0.01927463 Ry
     electrolyte free energy   =      -0.00123907 Ry
     correction to one-el term =      35.28828143 Ry

     iteration # 19     ecut=    80.00 Ry     beta= 0.20
     Davidson diagonalization with overlap

---- Real-time Memory Report at c_bands before calling an iterative solver
           379 MiB given to the printing process from OS
             0 MiB allocation reported by mallinfo(arena+hblkhd)
        214469 MiB available memory on the node where the printing process lives
------------------
     ethr =  5.36E-09,  avg # of iterations = 18.2

     negative rho (up, down):  3.163E-04 0.000E+00

     add environment contribution to local potential

     total cpu time spent up to now is      639.3 secs

     total energy              =    -481.21995284 Ry
     estimated scf accuracy    <       0.00000340 Ry

     total charge of GC-SCF    =      -1.23241533 e
     the Fermi energy          =      -2.43861099 eV
                        (error :       0.03461099 eV)
     electrostatic embedding   =      -0.32325937 Ry
     cavitation energy         =       0.01927463 Ry
     electrolyte free energy   =      -0.00172147 Ry
     correction to one-el term =      40.08653711 Ry

     iteration # 20     ecut=    80.00 Ry     beta= 0.20
     Davidson diagonalization with overlap

---- Real-time Memory Report at c_bands before calling an iterative solver
           379 MiB given to the printing process from OS
             0 MiB allocation reported by mallinfo(arena+hblkhd)
        214488 MiB available memory on the node where the printing process lives
------------------
     ethr =  3.50E-09,  avg # of iterations = 15.1

     negative rho (up, down):  3.100E-04 0.000E+00

     add environment contribution to local potential

     total cpu time spent up to now is      668.5 secs

     total energy              =    -481.21943786 Ry
     estimated scf accuracy    <       0.00000150 Ry

     total charge of GC-SCF    =      -1.28890148 e
     the Fermi energy          =      -2.42590649 eV
                        (error :       0.02190649 eV)
     electrostatic embedding   =      -0.37967415 Ry
     cavitation energy         =       0.01927463 Ry
     electrolyte free energy   =      -0.00215361 Ry
     correction to one-el term =      43.52696794 Ry

     iteration # 21     ecut=    80.00 Ry     beta= 0.20
     Davidson diagonalization with overlap

---- Real-time Memory Report at c_bands before calling an iterative solver
           379 MiB given to the printing process from OS
             0 MiB allocation reported by mallinfo(arena+hblkhd)
        214492 MiB available memory on the node where the printing process lives
------------------
     ethr =  1.54E-09,  avg # of iterations = 13.5

     negative rho (up, down):  3.053E-04 0.000E+00

     add environment contribution to local potential

     total cpu time spent up to now is      694.9 secs

     total energy              =    -481.22047751 Ry
     estimated scf accuracy    <       0.00000093 Ry

     total charge of GC-SCF    =      -1.38412211 e
     the Fermi energy          =      -2.41905256 eV
                        (error :       0.01505256 eV)
     electrostatic embedding   =      -0.40959298 Ry
     cavitation energy         =       0.01927463 Ry
     electrolyte free energy   =      -0.00239641 Ry
     correction to one-el term =      45.24238240 Ry

     iteration # 22     ecut=    80.00 Ry     beta= 0.20
     Davidson diagonalization with overlap

---- Real-time Memory Report at c_bands before calling an iterative solver
           379 MiB given to the printing process from OS
             0 MiB allocation reported by mallinfo(arena+hblkhd)
        214512 MiB available memory on the node where the printing process lives
------------------
     ethr =  9.60E-10,  avg # of iterations = 18.0

     negative rho (up, down):  3.028E-04 0.000E+00

     add environment contribution to local potential

     total cpu time spent up to now is      729.1 secs

     total energy              =    -481.21942498 Ry
     estimated scf accuracy    <       0.00000026 Ry

     total charge of GC-SCF    =      -1.38797559 e
     the Fermi energy          =      -2.40706126 eV
                        (error :       0.00306126 eV)
     electrostatic embedding   =      -0.46268896 Ry
     cavitation energy         =       0.01927463 Ry
     electrolyte free energy   =      -0.00285373 Ry
     correction to one-el term =      48.14932548 Ry

     iteration # 23     ecut=    80.00 Ry     beta= 0.20
     Davidson diagonalization with overlap

---- Real-time Memory Report at c_bands before calling an iterative solver
           379 MiB given to the printing process from OS
             0 MiB allocation reported by mallinfo(arena+hblkhd)
        214484 MiB available memory on the node where the printing process lives
------------------
     ethr =  2.65E-10,  avg # of iterations = 10.2

     negative rho (up, down):  3.008E-04 0.000E+00

     add environment contribution to local potential

     total cpu time spent up to now is      752.3 secs

     total energy              =    -481.21946216 Ry
     estimated scf accuracy    <       0.00000012 Ry

     total charge of GC-SCF    =      -1.40498915 e
     the Fermi energy          =      -2.40706804 eV
                        (error :       0.00306804 eV)
     electrostatic embedding   =      -0.46473707 Ry
     cavitation energy         =       0.01927463 Ry
     electrolyte free energy   =      -0.00287205 Ry
     correction to one-el term =      48.23773409 Ry

     iteration # 24     ecut=    80.00 Ry     beta= 0.20
     Davidson diagonalization with overlap

---- Real-time Memory Report at c_bands before calling an iterative solver
           379 MiB given to the printing process from OS
             0 MiB allocation reported by mallinfo(arena+hblkhd)
        214485 MiB available memory on the node where the printing process lives
------------------
     ethr =  1.18E-10,  avg # of iterations = 15.2

     negative rho (up, down):  2.914E-04 0.000E+00

     total cpu time spent up to now is      778.2 secs

     End of self-consistent calculation

          k = 0.0000 0.0000 0.0000 (201165 PWs)   bands (ev):

   -49.5217 -49.5212 -49.5203 -49.5202 -49.5197 -49.5197 -49.5188 -49.5183
   -48.9495 -48.9483 -48.9457 -48.9457 -48.9445 -48.9445 -48.9442 -48.9430
   -48.9395 -48.9292 -48.9292 -48.9286 -48.9286 -48.9277 -48.9271 -48.9263
   -48.9113 -48.9113 -48.9100 -48.9100 -48.9098 -48.9085 -48.9082 -48.9064
    -5.8675  -5.5351  -4.9985  -4.3086  -3.5137  -3.4510  -3.4510  -3.4509
    -3.4509  -3.1427  -3.1427  -3.1427  -3.1427  -2.7101  -2.6763  -2.6763
    -2.6762  -2.6762  -2.2737  -2.2737  -2.2734  -2.2734  -1.9968  -1.9968
    -1.8437  -1.5467  -1.5467  -0.8230  -0.7846  -0.7846  -0.3740  -0.3740
    -0.3737  -0.3737  -0.3152  -0.1109  -0.0889   0.1465   0.1465   0.1870

     occupation numbers 
     1.0000   1.0000   1.0000   1.0000   1.0000   1.0000   1.0000   1.0000
     1.0000   1.0000   1.0000   1.0000   1.0000   1.0000   1.0000   1.0000
     1.0000   1.0000   1.0000   1.0000   1.0000   1.0000   1.0000   1.0000
     1.0000   1.0000   1.0000   1.0000   1.0000   1.0000   1.0000   1.0000
     1.0000   1.0000   1.0000   1.0000   1.0000   1.0000   1.0000   1.0000
     1.0000   1.0000   1.0000   1.0000   1.0000   1.0226   1.0414   1.0414
     1.0415   1.0415   0.0338   0.0338   0.0336   0.0336   0.0000   0.0000
     0.0000   0.0000   0.0000   0.0000   0.0000   0.0000   0.0000   0.0000
     0.0000   0.0000   0.0000   0.0000   0.0000   0.0000   0.0000   0.0000

          k = 0.0000 0.1000 0.0000 (201189 PWs)   bands (ev):

   -49.5217 -49.5211 -49.5203 -49.5202 -49.5197 -49.5196 -49.5189 -49.5183
   -48.9494 -48.9482 -48.9458 -48.9456 -48.9446 -48.9445 -48.9442 -48.9431
   -48.9393 -48.9302 -48.9291 -48.9286 -48.9278 -48.9277 -48.9271 -48.9263
   -48.9113 -48.9112 -48.9099 -48.9099 -48.9098 -48.9085 -48.9082 -48.9065
    -5.8437  -5.5112  -4.9743  -4.2841  -3.9147  -3.5945  -3.4886  -3.4283
    -3.4282  -3.1186  -3.1186  -3.0906  -2.9361  -2.6842  -2.6494  -2.6493
    -2.6482  -2.5355  -2.2661  -2.2432  -2.2430  -2.1518  -2.0634  -2.0634
    -1.8184  -1.6250  -1.6250  -0.8922  -0.8922  -0.7986  -0.4292  -0.3748
    -0.3509  -0.3505  -0.2862  -0.0796  -0.0586  -0.0384  -0.0383   0.2165

     occupation numbers 
     1.0000   1.0000   1.0000   1.0000   1.0000   1.0000   1.0000   1.0000
     1.0000   1.0000   1.0000   1.0000   1.0000   1.0000   1.0000   1.0000
     1.0000   1.0000   1.0000   1.0000   1.0000   1.0000   1.0000   1.0000
     1.0000   1.0000   1.0000   1.0000   1.0000   1.0000   1.0000   1.0000
     1.0000   1.0000   1.0000   1.0000   1.0000   1.0000   1.0000   1.0000
     1.0000   1.0000   1.0000   1.0000   1.0000   1.0365   1.0597   1.0598
     1.0605   1.0149   0.0278   0.0148   0.0147   0.0007   0.0000   0.0000
     0.0000   0.0000   0.0000   0.0000   0.0000   0.0000   0.0000   0.0000
     0.0000   0.0000   0.0000   0.0000   0.0000   0.0000   0.0000   0.0000

          k = 0.0000 0.2000 0.0000 (201103 PWs)   bands (ev):

   -49.5216 -49.5210 -49.5204 -49.5201 -49.5198 -49.5195 -49.5190 -49.5184
   -48.9491 -48.9480 -48.9460 -48.9455 -48.9449 -48.9444 -48.9443 -48.9432
   -48.9389 -48.9317 -48.9290 -48.9285 -48.9278 -48.9273 -48.9270 -48.9263
   -48.9112 -48.9109 -48.9099 -48.9098 -48.9096 -48.9086 -48.9084 -48.9067
    -5.7723  -5.4395  -4.9017  -4.3284  -4.2110  -4.0010  -3.4763  -3.4136
    -3.3608  -3.3607  -3.0466  -3.0466  -2.8499  -2.6070  -2.5689  -2.5688
    -2.3723  -2.2349  -2.2349  -2.2261  -2.1520  -2.1517  -2.1262  -1.9275
    -1.8219  -1.8219  -1.7434  -1.1469  -1.1469  -0.7273  -0.4819  -0.4296
    -0.4187  -0.4185  -0.2822  -0.2818  -0.2007   0.0142   0.0312   0.3040

     occupation numbers 
     1.0000   1.0000   1.0000   1.0000   1.0000   1.0000   1.0000   1.0000
     1.0000   1.0000   1.0000   1.0000   1.0000   1.0000   1.0000   1.0000
     1.0000   1.0000   1.0000   1.0000   1.0000   1.0000   1.0000   1.0000
     1.0000   1.0000   1.0000   1.0000   1.0000   1.0000   1.0000   1.0000
     1.0000   1.0000   1.0000   1.0000   1.0000   1.0000   1.0000   1.0000
     1.0000   1.0000   1.0000   1.0000   1.0004   1.0821   1.0711   1.0710
     0.2549   0.0117   0.0117   0.0089   0.0007   0.0007   0.0003   0.0000
     0.0000   0.0000   0.0000   0.0000   0.0000   0.0000   0.0000   0.0000
     0.0000   0.0000   0.0000   0.0000   0.0000   0.0000   0.0000   0.0000

          k = 0.0000 0.3000 0.0000 (201139 PWs)   bands (ev):

   -49.5214 -49.5208 -49.5206 -49.5200 -49.5200 -49.5194 -49.5191 -49.5185
   -48.9487 -48.9475 -48.9464 -48.9454 -48.9453 -48.9445 -48.9442 -48.9433
   -48.9382 -48.9332 -48.9288 -48.9283 -48.9280 -48.9274 -48.9265 -48.9262
   -48.9110 -48.9105 -48.9101 -48.9097 -48.9092 -48.9088 -48.9086 -48.9071
    -5.6530  -5.3198  -4.7808  -4.6919  -4.3607  -4.0898  -3.8259  -3.2902
    -3.2496  -3.2496  -3.1637  -2.9280  -2.9280  -2.4809  -2.4580  -2.4580
    -2.4359  -2.4358  -2.4284  -2.0712  -2.0712  -2.0004  -2.0001  -1.8293
    -1.7323  -1.6227  -1.6181  -1.4509  -1.4509  -0.8228  -0.8225  -0.6174
    -0.4666  -0.4662  -0.1702  -0.1698  -0.0675   0.1693   0.1756   0.4406

     occupation numbers 
     1.0000   1.0000   1.0000   1.0000   1.0000   1.0000   1.0000   1.0000
     1.0000   1.0000   1.0000   1.0000   1.0000   1.0000   1.0000   1.0000
     1.0000   1.0000   1.0000   1.0000   1.0000   1.0000   1.0000   1.0000
     1.0000   1.0000   1.0000   1.0000   1.0000   1.0000   1.0000   1.0000
     1.0000   1.0000   1.0000   1.0000   1.0000   1.0000   1.0000   1.0000
     1.0000   1.0000   1.0000   1.0000   1.0000   0.8093   0.6905   0.6903
     0.5683   0.5678   0.5270   0.0000   0.0000   0.0000   0.0000   0.0000
     0.0000   0.0000   0.0000   0.0000   0.0000   0.0000   0.0000   0.0000
     0.0000   0.0000   0.0000   0.0000   0.0000   0.0000   0.0000   0.0000

          k = 0.0000 0.4000 0.0000 (201125 PWs)   bands (ev):

   -49.5212 -49.5208 -49.5206 -49.5202 -49.5198 -49.5193 -49.5192 -49.5187
   -48.9481 -48.9470 -48.9470 -48.9458 -48.9451 -48.9447 -48.9440 -48.9435
   -48.9372 -48.9347 -48.9286 -48.9282 -48.9281 -48.9276 -48.9262 -48.9261
   -48.9108 -48.9103 -48.9100 -48.9095 -48.9090 -48.9090 -48.9087 -48.9076
    -5.4858  -5.1521  -5.0057  -4.6726  -4.6121  -4.1333  -3.9216  -3.4538
    -3.1213  -3.0974  -3.0974  -2.7651  -2.7651  -2.6909  -2.6908  -2.6737
    -2.3264  -2.3263  -2.3114  -2.2524  -2.2523  -1.9139  -1.7892  -1.7889
    -1.7508  -1.7507  -1.4670  -1.2865  -1.1956  -1.1953  -1.1071  -0.4956
    -0.4110  -0.3189  -0.0195  -0.0191   0.0638   0.2736   0.3622   0.3627

     occupation numbers 
     1.0000   1.0000   1.0000   1.0000   1.0000   1.0000   1.0000   1.0000
     1.0000   1.0000   1.0000   1.0000   1.0000   1.0000   1.0000   1.0000
     1.0000   1.0000   1.0000   1.0000   1.0000   1.0000   1.0000   1.0000
     1.0000   1.0000   1.0000   1.0000   1.0000   1.0000   1.0000   1.0000
     1.0000   1.0000   1.0000   1.0000   1.0000   1.0000   1.0000   1.0000
     1.0000   1.0000   1.0000   1.0061   1.0061   1.0325   1.0325   1.0431
     0.1123   0.1122   0.0822   0.0192   0.0191   0.0000   0.0000   0.0000
     0.0000   0.0000   0.0000   0.0000   0.0000   0.0000   0.0000   0.0000
     0.0000   0.0000   0.0000   0.0000   0.0000   0.0000   0.0000   0.0000

          k = 0.0000-0.5000 0.0000 (201080 PWs)   bands (ev):

   -49.5210 -49.5210 -49.5204 -49.5204 -49.5196 -49.5195 -49.5190 -49.5190
   -48.9475 -48.9475 -48.9464 -48.9464 -48.9449 -48.9449 -48.9438 -48.9438
   -48.9361 -48.9360 -48.9284 -48.9284 -48.9279 -48.9278 -48.9261 -48.9261
   -48.9105 -48.9105 -48.9095 -48.9095 -48.9092 -48.9092 -48.9081 -48.9081
    -5.2701  -5.2701  -4.9364  -4.9364  -4.3959  -4.3959  -3.7085  -3.7085
    -2.9122  -2.9122  -2.9086  -2.9086  -2.9085  -2.9085  -2.5621  -2.5621
    -2.5621  -2.5621  -2.1113  -2.1113  -2.0219  -2.0219  -2.0218  -2.0218
    -1.5199  -1.5199  -1.5197  -1.5197  -1.3101  -1.3101  -0.5316  -0.5316
    -0.1828  -0.1828  -0.0756  -0.0755   0.1622   0.1622   0.1626   0.1626

     occupation numbers 
     1.0000   1.0000   1.0000   1.0000   1.0000   1.0000   1.0000   1.0000
     1.0000   1.0000   1.0000   1.0000   1.0000   1.0000   1.0000   1.0000
     1.0000   1.0000   1.0000   1.0000   1.0000   1.0000   1.0000   1.0000
     1.0000   1.0000   1.0000   1.0000   1.0000   1.0000   1.0000   1.0000
     1.0000   1.0000   1.0000   1.0000   1.0000   1.0000   1.0000   1.0000
     1.0000   1.0000   1.0000   1.0000   1.0000   1.0000   1.0638   1.0638
     1.0638   1.0638   0.0001   0.0001   0.0000   0.0000   0.0000   0.0000
     0.0000   0.0000   0.0000   0.0000   0.0000   0.0000   0.0000   0.0000
     0.0000   0.0000   0.0000   0.0000   0.0000   0.0000   0.0000   0.0000

          k = 0.1000 0.1000 0.0000 (201192 PWs)   bands (ev):

   -49.5217 -49.5211 -49.5203 -49.5202 -49.5197 -49.5197 -49.5189 -49.5183
   -48.9493 -48.9482 -48.9457 -48.9457 -48.9446 -48.9446 -48.9442 -48.9431
   -48.9392 -48.9302 -48.9302 -48.9278 -48.9278 -48.9277 -48.9271 -48.9263
   -48.9112 -48.9111 -48.9099 -48.9099 -48.9099 -48.9086 -48.9083 -48.9066
    -5.8199  -5.4873  -4.9501  -4.2597  -3.8917  -3.8917  -3.5704  -3.5704
    -3.4634  -3.0645  -3.0645  -2.9140  -2.9140  -2.6581  -2.6239  -2.6239
    -2.5066  -2.5066  -2.2933  -2.2377  -2.2377  -2.1205  -2.1205  -1.9345
    -1.8780  -1.7929  -1.4845  -1.1942  -0.7740  -0.7224  -0.4067  -0.4067
    -0.4028  -0.3503  -0.3503  -0.2570  -0.0482  -0.0283   0.2086   0.2463

     occupation numbers 
     1.0000   1.0000   1.0000   1.0000   1.0000   1.0000   1.0000   1.0000
     1.0000   1.0000   1.0000   1.0000   1.0000   1.0000   1.0000   1.0000
     1.0000   1.0000   1.0000   1.0000   1.0000   1.0000   1.0000   1.0000
     1.0000   1.0000   1.0000   1.0000   1.0000   1.0000   1.0000   1.0000
     1.0000   1.0000   1.0000   1.0000   1.0000   1.0000   1.0000   1.0000
     1.0000   1.0000   1.0000   1.0000   1.0000   1.0537   1.0755   1.0755
     0.9229   0.9229   0.0546   0.0127   0.0127   0.0002   0.0002   0.0000
     0.0000   0.0000   0.0000   0.0000   0.0000   0.0000   0.0000   0.0000
     0.0000   0.0000   0.0000   0.0000   0.0000   0.0000   0.0000   0.0000

          k = 0.1000 0.2000 0.0000 (201095 PWs)   bands (ev):

   -49.5216 -49.5210 -49.5204 -49.5202 -49.5198 -49.5196 -49.5190 -49.5184
   -48.9490 -48.9479 -48.9460 -48.9456 -48.9448 -48.9445 -48.9444 -48.9432
   -48.9388 -48.9316 -48.9300 -48.9280 -48.9277 -48.9271 -48.9270 -48.9262
   -48.9111 -48.9109 -48.9100 -48.9098 -48.9096 -48.9086 -48.9084 -48.9068
    -5.7485  -5.4155  -4.8774  -4.3051  -4.1864  -3.9769  -3.8228  -3.4983
    -3.4507  -3.3883  -2.9863  -2.8484  -2.8224  -2.5807  -2.5695  -2.5517
    -2.4203  -2.3509  -2.1957  -2.1765  -2.1531  -2.1013  -2.0266  -1.9413
    -1.8972  -1.7175  -1.5370  -1.5032  -0.7972  -0.7812  -0.7020  -0.4587
    -0.4045  -0.3403  -0.2773  -0.1713  -0.1680   0.0457   0.0617   0.3342

     occupation numbers 
     1.0000   1.0000   1.0000   1.0000   1.0000   1.0000   1.0000   1.0000
     1.0000   1.0000   1.0000   1.0000   1.0000   1.0000   1.0000   1.0000
     1.0000   1.0000   1.0000   1.0000   1.0000   1.0000   1.0000   1.0000
     1.0000   1.0000   1.0000   1.0000   1.0000   1.0000   1.0000   1.0000
     1.0000   1.0000   1.0000   1.0000   1.0000   1.0000   1.0000   1.0000
     1.0000   1.0000   1.0000   1.0004   1.0011   1.0795   1.0716   1.0486
     0.4832   0.1783   0.0034   0.0017   0.0007   0.0001   0.0000   0.0000
     0.0000   0.0000   0.0000   0.0000   0.0000   0.0000   0.0000   0.0000
     0.0000   0.0000   0.0000   0.0000   0.0000   0.0000   0.0000   0.0000

          k = 0.1000 0.3000 0.0000 (201150 PWs)   bands (ev):

   -49.5214 -49.5208 -49.5205 -49.5200 -49.5199 -49.5194 -49.5192 -49.5186
   -48.9486 -48.9475 -48.9464 -48.9454 -48.9452 -48.9445 -48.9443 -48.9434
   -48.9381 -48.9331 -48.9298 -48.9284 -48.9276 -48.9271 -48.9265 -48.9262
   -48.9109 -48.9105 -48.9101 -48.9096 -48.9092 -48.9088 -48.9087 -48.9072
    -5.6293  -5.2958  -4.7564  -4.6684  -4.3366  -4.0650  -3.8006  -3.7089
    -3.3791  -3.2646  -3.1371  -2.8569  -2.8518  -2.7413  -2.4774  -2.4542
    -2.4334  -2.3995  -2.2771  -2.0602  -2.0133  -1.8715  -1.8702  -1.8011
    -1.7086  -1.6542  -1.5960  -1.5912  -1.1761  -1.0176  -0.6260  -0.5908
    -0.4427  -0.4413  -0.2332  -0.1580  -0.0374   0.2010   0.2066   0.3514

     occupation numbers 
     1.0000   1.0000   1.0000   1.0000   1.0000   1.0000   1.0000   1.0000
     1.0000   1.0000   1.0000   1.0000   1.0000   1.0000   1.0000   1.0000
     1.0000   1.0000   1.0000   1.0000   1.0000   1.0000   1.0000   1.0000
     1.0000   1.0000   1.0000   1.0000   1.0000   1.0000   1.0000   1.0000
     1.0000   1.0000   1.0000   1.0000   1.0000   1.0000   1.0000   1.0000
     1.0000   1.0000   1.0000   1.0003   1.0004   1.0113   0.7920   0.6697
     0.5548   0.3761   0.0369   0.0000   0.0000   0.0000   0.0000   0.0000
     0.0000   0.0000   0.0000   0.0000   0.0000   0.0000   0.0000   0.0000
     0.0000   0.0000   0.0000   0.0000   0.0000   0.0000   0.0000   0.0000

          k = 0.1000 0.4000 0.0000 (201132 PWs)   bands (ev):

   -49.5212 -49.5207 -49.5206 -49.5201 -49.5198 -49.5194 -49.5192 -49.5188
   -48.9481 -48.9469 -48.9469 -48.9458 -48.9452 -48.9447 -48.9441 -48.9436
   -48.9371 -48.9346 -48.9295 -48.9287 -48.9275 -48.9272 -48.9262 -48.9261
   -48.9107 -48.9103 -48.9100 -48.9094 -48.9090 -48.9090 -48.9087 -48.9076
    -5.4620  -5.1281  -4.9820  -4.6485  -4.5875  -4.1084  -3.8965  -3.5513
    -3.4279  -3.2140  -3.1171  -3.0952  -2.7578  -2.6776  -2.6462  -2.5971
    -2.2841  -2.2731  -2.2360  -2.1800  -2.0783  -1.8841  -1.8627  -1.8211
    -1.6514  -1.5231  -1.4391  -1.3051  -1.2560  -1.0868  -1.0283  -0.4668
    -0.3897  -0.2916  -0.0926   0.0033   0.0953   0.2293   0.3003   0.4115

     occupation numbers 
     1.0000   1.0000   1.0000   1.0000   1.0000   1.0000   1.0000   1.0000
     1.0000   1.0000   1.0000   1.0000   1.0000   1.0000   1.0000   1.0000
     1.0000   1.0000   1.0000   1.0000   1.0000   1.0000   1.0000   1.0000
     1.0000   1.0000   1.0000   1.0000   1.0000   1.0000   1.0000   1.0000
     1.0000   1.0000   1.0000   1.0000   1.0000   1.0000   1.0000   1.0000
     1.0000   1.0000   1.0000   1.0000   1.0074   1.0406   1.0619   1.0833
     0.0438   0.0334   0.0120   0.0020   0.0000   0.0000   0.0000   0.0000
     0.0000   0.0000   0.0000   0.0000   0.0000   0.0000   0.0000   0.0000
     0.0000   0.0000   0.0000   0.0000   0.0000   0.0000   0.0000   0.0000

          k = 0.1000-0.5000 0.0000 (201002 PWs)   bands (ev):

   -49.5210 -49.5210 -49.5204 -49.5204 -49.5196 -49.5196 -49.5190 -49.5190
   -48.9475 -48.9475 -48.9463 -48.9463 -48.9450 -48.9450 -48.9438 -48.9438
   -48.9359 -48.9359 -48.9291 -48.9291 -48.9273 -48.9273 -48.9261 -48.9261
   -48.9105 -48.9105 -48.9095 -48.9095 -48.9092 -48.9092 -48.9082 -48.9082
    -5.2464  -5.2464  -4.9124  -4.9123  -4.3712  -4.3712  -3.6830  -3.6830
    -3.3527  -3.3527  -3.0056  -3.0056  -2.8855  -2.8855  -2.4508  -2.4508
    -2.4239  -2.4239  -2.0829  -2.0829  -2.0782  -2.0782  -1.8258  -1.8258
    -1.5814  -1.5814  -1.3706  -1.3706  -1.2803  -1.2803  -0.5050  -0.5050
    -0.1619  -0.1619  -0.0497  -0.0497   0.0690   0.0690   0.1980   0.1980

     occupation numbers 
     1.0000   1.0000   1.0000   1.0000   1.0000   1.0000   1.0000   1.0000
     1.0000   1.0000   1.0000   1.0000   1.0000   1.0000   1.0000   1.0000
     1.0000   1.0000   1.0000   1.0000   1.0000   1.0000   1.0000   1.0000
     1.0000   1.0000   1.0000   1.0000   1.0000   1.0000   1.0000   1.0000
     1.0000   1.0000   1.0000   1.0000   1.0000   1.0000   1.0000   1.0000
     1.0000   1.0000   1.0000   1.0000   1.0001   1.0001   0.6506   0.6506
     0.5024   0.5024   0.0000   0.0000   0.0000   0.0000   0.0000   0.0000
     0.0000   0.0000   0.0000   0.0000   0.0000   0.0000   0.0000   0.0000
     0.0000   0.0000   0.0000   0.0000   0.0000   0.0000   0.0000   0.0000

          k = 0.2000 0.2000 0.0000 (201180 PWs)   bands (ev):

   -49.5215 -49.5209 -49.5203 -49.5203 -49.5197 -49.5197 -49.5191 -49.5185
   -48.9488 -48.9476 -48.9459 -48.9459 -48.9447 -48.9447 -48.9445 -48.9433
   -48.9383 -48.9314 -48.9314 -48.9285 -48.9270 -48.9269 -48.9269 -48.9262
   -48.9108 -48.9108 -48.9100 -48.9095 -48.9095 -48.9087 -48.9086 -48.9070
    -5.6771  -5.3437  -4.8045  -4.2352  -4.2352  -4.1128  -3.9047  -3.9047
    -3.3741  -3.3741  -3.3127  -2.9056  -2.7400  -2.7400  -2.5282  -2.5026
    -2.2875  -2.2875  -2.1048  -2.1048  -2.0273  -2.0273  -1.9126  -1.8064
    -1.8064  -1.7476  -1.6407  -1.2977  -1.1835  -0.6279  -0.5359  -0.3904
    -0.3904  -0.3778  -0.3303  -0.3303  -0.0845   0.1399   0.1527   0.3106

     occupation numbers 
     1.0000   1.0000   1.0000   1.0000   1.0000   1.0000   1.0000   1.0000
     1.0000   1.0000   1.0000   1.0000   1.0000   1.0000   1.0000   1.0000
     1.0000   1.0000   1.0000   1.0000   1.0000   1.0000   1.0000   1.0000
     1.0000   1.0000   1.0000   1.0000   1.0000   1.0000   1.0000   1.0000
     1.0000   1.0000   1.0000   1.0000   1.0000   1.0000   1.0000   1.0000
     1.0000   1.0000   1.0000   1.0000   1.0117   1.0117   0.9955   0.9067
     0.0477   0.0477   0.0001   0.0001   0.0000   0.0000   0.0000   0.0000
     0.0000   0.0000   0.0000   0.0000   0.0000   0.0000   0.0000   0.0000
     0.0000   0.0000   0.0000   0.0000   0.0000   0.0000   0.0000   0.0000

          k = 0.2000 0.3000 0.0000 (201109 PWs)   bands (ev):

   -49.5213 -49.5207 -49.5204 -49.5201 -49.5198 -49.5195 -49.5193 -49.5187
   -48.9484 -48.9472 -48.9462 -48.9457 -48.9451 -48.9447 -48.9445 -48.9435
   -48.9377 -48.9328 -48.9311 -48.9290 -48.9269 -48.9268 -48.9264 -48.9261
   -48.9107 -48.9104 -48.9101 -48.9094 -48.9092 -48.9088 -48.9088 -48.9073
    -5.5579  -5.2239  -4.6832  -4.5979  -4.2643  -4.1193  -3.9908  -3.7849
    -3.7250  -3.2469  -3.2218  -3.1881  -3.0575  -2.8567  -2.6033  -2.3748
    -2.3132  -2.2622  -2.1860  -1.9543  -1.9067  -1.7206  -1.6980  -1.6558
    -1.6354  -1.5509  -1.5168  -1.5118  -1.2670  -0.7725  -0.5973  -0.5125
    -0.3728  -0.3679  -0.2817  -0.2099   0.0520   0.1571   0.2959   0.2995

     occupation numbers 
     1.0000   1.0000   1.0000   1.0000   1.0000   1.0000   1.0000   1.0000
     1.0000   1.0000   1.0000   1.0000   1.0000   1.0000   1.0000   1.0000
     1.0000   1.0000   1.0000   1.0000   1.0000   1.0000   1.0000   1.0000
     1.0000   1.0000   1.0000   1.0000   1.0000   1.0000   1.0000   1.0000
     1.0000   1.0000   1.0000   1.0000   1.0000   1.0000   1.0000   1.0000
     1.0000   1.0000   1.0000   1.0000   1.0000   1.0003   1.0828   0.2647
     0.0854   0.0251   0.0024   0.0000   0.0000   0.0000   0.0000   0.0000
     0.0000   0.0000   0.0000   0.0000   0.0000   0.0000   0.0000   0.0000
     0.0000   0.0000   0.0000   0.0000   0.0000   0.0000   0.0000   0.0000

          k = 0.2000 0.4000 0.0000 (201067 PWs)   bands (ev):

   -49.5211 -49.5206 -49.5205 -49.5200 -49.5199 -49.5195 -49.5193 -49.5189
   -48.9478 -48.9467 -48.9467 -48.9456 -48.9454 -48.9449 -48.9443 -48.9438
   -48.9367 -48.9343 -48.9306 -48.9296 -48.9268 -48.9267 -48.9262 -48.9261
   -48.9106 -48.9103 -48.9100 -48.9093 -48.9091 -48.9090 -48.9087 -48.9078
    -5.3907  -5.0561  -4.9111  -4.5763  -4.5139  -4.0336  -3.9582  -3.8216
    -3.6184  -3.5064  -3.3503  -3.1514  -3.0702  -3.0174  -2.5750  -2.5637
    -2.4137  -2.2026  -2.0540  -1.8841  -1.7949  -1.7705  -1.7568  -1.7342
    -1.4474  -1.3851  -1.3559  -1.1648  -1.1459  -1.0289  -0.8833  -0.3814
    -0.3292  -0.2105  -0.1435  -0.0501   0.1112   0.1897   0.3164   0.3724

     occupation numbers 
     1.0000   1.0000   1.0000   1.0000   1.0000   1.0000   1.0000   1.0000
     1.0000   1.0000   1.0000   1.0000   1.0000   1.0000   1.0000   1.0000
     1.0000   1.0000   1.0000   1.0000   1.0000   1.0000   1.0000   1.0000
     1.0000   1.0000   1.0000   1.0000   1.0000   1.0000   1.0000   1.0000
     1.0000   1.0000   1.0000   1.0000   1.0000   1.0000   1.0000   1.0000
     1.0000   1.0000   1.0000   1.0000   1.0000   1.0000   1.0761   1.0657
     0.4479   0.0043   0.0000   0.0000   0.0000   0.0000   0.0000   0.0000
     0.0000   0.0000   0.0000   0.0000   0.0000   0.0000   0.0000   0.0000
     0.0000   0.0000   0.0000   0.0000   0.0000   0.0000   0.0000   0.0000

          k = 0.2000-0.5000 0.0000 (201048 PWs)   bands (ev):

   -49.5209 -49.5208 -49.5203 -49.5203 -49.5197 -49.5197 -49.5191 -49.5191
   -48.9473 -48.9473 -48.9462 -48.9461 -48.9452 -48.9452 -48.9440 -48.9440
   -48.9356 -48.9356 -48.9301 -48.9301 -48.9268 -48.9267 -48.9261 -48.9261
   -48.9104 -48.9104 -48.9095 -48.9095 -48.9091 -48.9091 -48.9082 -48.9082
    -5.1753  -5.1753  -4.8402  -4.8402  -4.2971  -4.2971  -3.7531  -3.7531
    -3.6070  -3.6070  -3.4065  -3.4065  -2.8455  -2.8455  -2.8058  -2.8058
    -2.1728  -2.1728  -1.9983  -1.9983  -1.9061  -1.9061  -1.5668  -1.5668
    -1.4702  -1.4702  -1.1912  -1.1912  -1.1854  -1.1854  -0.4292  -0.4292
    -0.1020  -0.1020   0.0017   0.0017   0.0242   0.0243   0.1351   0.1351

     occupation numbers 
     1.0000   1.0000   1.0000   1.0000   1.0000   1.0000   1.0000   1.0000
     1.0000   1.0000   1.0000   1.0000   1.0000   1.0000   1.0000   1.0000
     1.0000   1.0000   1.0000   1.0000   1.0000   1.0000   1.0000   1.0000
     1.0000   1.0000   1.0000   1.0000   1.0000   1.0000   1.0000   1.0000
     1.0000   1.0000   1.0000   1.0000   1.0000   1.0000   1.0000   1.0000
     1.0000   1.0000   1.0000   1.0000   1.0005   1.0005   1.0019   1.0019
     0.0015   0.0015   0.0000   0.0000   0.0000   0.0000   0.0000   0.0000
     0.0000   0.0000   0.0000   0.0000   0.0000   0.0000   0.0000   0.0000
     0.0000   0.0000   0.0000   0.0000   0.0000   0.0000   0.0000   0.0000

          k = 0.3000 0.3000 0.0000 (201060 PWs)   bands (ev):

   -49.5211 -49.5205 -49.5203 -49.5203 -49.5197 -49.5197 -49.5194 -49.5188
   -48.9480 -48.9468 -48.9460 -48.9460 -48.9449 -48.9449 -48.9449 -48.9437
   -48.9370 -48.9324 -48.9324 -48.9297 -48.9266 -48.9264 -48.9264 -48.9261
   -48.9104 -48.9104 -48.9102 -48.9091 -48.9091 -48.9090 -48.9089 -48.9076
    -5.4388  -5.1039  -4.5615  -4.4807  -4.4807  -4.1442  -4.1442  -3.8679
    -3.5995  -3.5995  -3.5577  -3.2003  -3.0621  -2.9255  -2.9255  -2.6175
    -2.2446  -2.1701  -2.1701  -1.9075  -1.6053  -1.6053  -1.5016  -1.5016
    -1.4366  -1.3884  -1.3838  -1.3838  -1.0921  -0.9870  -0.3890  -0.3010
    -0.2639  -0.2639  -0.2506  -0.2506  -0.2256   0.1948   0.3702   0.4532

     occupation numbers 
     1.0000   1.0000   1.0000   1.0000   1.0000   1.0000   1.0000   1.0000
     1.0000   1.0000   1.0000   1.0000   1.0000   1.0000   1.0000   1.0000
     1.0000   1.0000   1.0000   1.0000   1.0000   1.0000   1.0000   1.0000
     1.0000   1.0000   1.0000   1.0000   1.0000   1.0000   1.0000   1.0000
     1.0000   1.0000   1.0000   1.0000   1.0000   1.0000   1.0000   1.0000
     1.0000   1.0000   1.0000   1.0000   1.0000   1.0000   1.0000   1.0785
     0.0154   0.0014   0.0014   0.0000   0.0000   0.0000   0.0000   0.0000
     0.0000   0.0000   0.0000   0.0000   0.0000   0.0000   0.0000   0.0000
     0.0000   0.0000   0.0000   0.0000   0.0000   0.0000   0.0000   0.0000

          k = 0.3000 0.4000 0.0000 (200978 PWs)   bands (ev):

   -49.5209 -49.5205 -49.5203 -49.5201 -49.5199 -49.5196 -49.5195 -49.5190
   -48.9475 -48.9465 -48.9464 -48.9458 -48.9453 -48.9452 -48.9446 -48.9440
   -48.9361 -48.9338 -48.9319 -48.9305 -48.9264 -48.9264 -48.9261 -48.9260
   -48.9103 -48.9102 -48.9100 -48.9093 -48.9090 -48.9089 -48.9087 -48.9080
    -5.2718  -4.9360  -4.7930  -4.4561  -4.3915  -4.3171  -3.9768  -3.9093
    -3.8542  -3.6972  -3.5033  -3.4246  -3.2216  -2.9318  -2.8891  -2.7421
    -2.4273  -2.2295  -2.0688  -1.9717  -1.6473  -1.4808  -1.4229  -1.3349
    -1.2959  -1.2201  -1.2174  -1.0141  -0.9454  -0.9202  -0.6858  -0.2436
    -0.2430  -0.1330  -0.1006  -0.0793  -0.0290   0.1994   0.3467   0.4251

     occupation numbers 
     1.0000   1.0000   1.0000   1.0000   1.0000   1.0000   1.0000   1.0000
     1.0000   1.0000   1.0000   1.0000   1.0000   1.0000   1.0000   1.0000
     1.0000   1.0000   1.0000   1.0000   1.0000   1.0000   1.0000   1.0000
     1.0000   1.0000   1.0000   1.0000   1.0000   1.0000   1.0000   1.0000
     1.0000   1.0000   1.0000   1.0000   1.0000   1.0000   1.0000   1.0000
     1.0000   1.0000   1.0000   1.0000   1.0000   1.0000   1.0001   1.0111
     0.5212   0.0099   0.0000   0.0000   0.0000   0.0000   0.0000   0.0000
     0.0000   0.0000   0.0000   0.0000   0.0000   0.0000   0.0000   0.0000
     0.0000   0.0000   0.0000   0.0000   0.0000   0.0000   0.0000   0.0000

          k = 0.3000-0.5000 0.0000 (201006 PWs)   bands (ev):

   -49.5207 -49.5207 -49.5201 -49.5201 -49.5199 -49.5198 -49.5193 -49.5193
   -48.9470 -48.9470 -48.9459 -48.9458 -48.9455 -48.9455 -48.9443 -48.9443
   -48.9350 -48.9350 -48.9312 -48.9312 -48.9264 -48.9263 -48.9260 -48.9260
   -48.9103 -48.9103 -48.9096 -48.9096 -48.9090 -48.9090 -48.9083 -48.9083
    -5.0566  -5.0566  -4.7200  -4.7200  -4.1738  -4.1738  -4.1079  -4.1079
    -3.7628  -3.7628  -3.4808  -3.4808  -3.2015  -3.2015  -2.6742  -2.6742
    -2.5092  -2.5092  -1.8589  -1.8589  -1.7207  -1.7207  -1.3733  -1.3733
    -1.0443  -1.0442  -1.0392  -1.0392  -1.0222  -1.0222  -0.3247  -0.3247
    -0.0235  -0.0235  -0.0103  -0.0103   0.0585   0.0586   0.1279   0.1279

     occupation numbers 
     1.0000   1.0000   1.0000   1.0000   1.0000   1.0000   1.0000   1.0000
     1.0000   1.0000   1.0000   1.0000   1.0000   1.0000   1.0000   1.0000
     1.0000   1.0000   1.0000   1.0000   1.0000   1.0000   1.0000   1.0000
     1.0000   1.0000   1.0000   1.0000   1.0000   1.0000   1.0000   1.0000
     1.0000   1.0000   1.0000   1.0000   1.0000   1.0000   1.0000   1.0000
     1.0000   1.0000   1.0000   1.0000   1.0000   1.0000   1.0428   1.0428
     0.9328   0.9327   0.0000   0.0000   0.0000   0.0000   0.0000   0.0000
     0.0000   0.0000   0.0000   0.0000   0.0000   0.0000   0.0000   0.0000
     0.0000   0.0000   0.0000   0.0000   0.0000   0.0000   0.0000   0.0000

          k = 0.4000 0.4000 0.0000 (200868 PWs)   bands (ev):

   -49.5207 -49.5203 -49.5203 -49.5201 -49.5198 -49.5197 -49.5197 -49.5192
   -48.9471 -48.9462 -48.9462 -48.9459 -48.9455 -48.9450 -48.9450 -48.9443
   -48.9353 -48.9331 -48.9331 -48.9314 -48.9262 -48.9261 -48.9261 -48.9260
   -48.9102 -48.9101 -48.9100 -48.9095 -48.9089 -48.9088 -48.9088 -48.9082
    -5.1051  -4.7679  -4.6279  -4.6279  -4.2881  -4.2881  -4.2206  -4.1578
    -3.8110  -3.7360  -3.7360  -3.5246  -3.2458  -3.0429  -3.0429  -2.7126
    -2.5431  -2.2389  -2.2389  -1.8871  -1.7244  -1.4432  -1.4432  -1.0396
    -1.0023  -0.8994  -0.8652  -0.8652  -0.8080  -0.8080  -0.5532  -0.1694
    -0.1694  -0.1107  -0.0658   0.0924   0.0924   0.2076   0.2275   0.5590

     occupation numbers 
     1.0000   1.0000   1.0000   1.0000   1.0000   1.0000   1.0000   1.0000
     1.0000   1.0000   1.0000   1.0000   1.0000   1.0000   1.0000   1.0000
     1.0000   1.0000   1.0000   1.0000   1.0000   1.0000   1.0000   1.0000
     1.0000   1.0000   1.0000   1.0000   1.0000   1.0000   1.0000   1.0000
     1.0000   1.0000   1.0000   1.0000   1.0000   1.0000   1.0000   1.0000
     1.0000   1.0000   1.0000   1.0000   1.0000   1.0000   1.0000   1.0214
     1.0324   0.0131   0.0131   0.0000   0.0000   0.0000   0.0000   0.0000
     0.0000   0.0000   0.0000   0.0000   0.0000   0.0000   0.0000   0.0000
     0.0000   0.0000   0.0000   0.0000   0.0000   0.0000   0.0000   0.0000

          k = 0.4000-0.5000 0.0000 (200830 PWs)   bands (ev):

   -49.5205 -49.5205 -49.5201 -49.5200 -49.5199 -49.5199 -49.5195 -49.5195
   -48.9466 -48.9466 -48.9458 -48.9458 -48.9455 -48.9455 -48.9447 -48.9447
   -48.9343 -48.9342 -48.9323 -48.9323 -48.9261 -48.9261 -48.9260 -48.9260
   -48.9101 -48.9101 -48.9098 -48.9098 -48.9088 -48.9088 -48.9085 -48.9085
    -4.8905  -4.8905  -4.5519  -4.5519  -4.4160  -4.4160  -4.0729  -4.0729
    -4.0018  -4.0018  -3.5144  -3.5144  -3.3055  -3.3055  -2.8158  -2.8158
    -2.4928  -2.4928  -2.0021  -2.0021  -1.6682  -1.6682  -1.1880  -1.1880
    -0.8528  -0.8528  -0.8431  -0.8431  -0.5699  -0.5699  -0.2753  -0.2753
    -0.1760  -0.1760   0.1220   0.1220   0.1829   0.1830   0.2651   0.2651

     occupation numbers 
     1.0000   1.0000   1.0000   1.0000   1.0000   1.0000   1.0000   1.0000
     1.0000   1.0000   1.0000   1.0000   1.0000   1.0000   1.0000   1.0000
     1.0000   1.0000   1.0000   1.0000   1.0000   1.0000   1.0000   1.0000
     1.0000   1.0000   1.0000   1.0000   1.0000   1.0000   1.0000   1.0000
     1.0000   1.0000   1.0000   1.0000   1.0000   1.0000   1.0000   1.0000
     1.0000   1.0000   1.0000   1.0000   1.0000   1.0000   1.0013   1.0013
     0.8650   0.8650   0.0000   0.0000   0.0000   0.0000   0.0000   0.0000
     0.0000   0.0000   0.0000   0.0000   0.0000   0.0000   0.0000   0.0000
     0.0000   0.0000   0.0000   0.0000   0.0000   0.0000   0.0000   0.0000

          k =-0.5000-0.5000 0.0000 (200724 PWs)   bands (ev):

   -49.5203 -49.5203 -49.5203 -49.5202 -49.5197 -49.5197 -49.5197 -49.5197
   -48.9462 -48.9462 -48.9462 -48.9462 -48.9451 -48.9451 -48.9451 -48.9451
   -48.9333 -48.9333 -48.9333 -48.9333 -48.9260 -48.9260 -48.9260 -48.9260
   -48.9100 -48.9100 -48.9099 -48.9099 -48.9087 -48.9087 -48.9087 -48.9087
    -4.6770  -4.6770  -4.6770  -4.6770  -4.3361  -4.3361  -4.3361  -4.3361
    -3.7816  -3.7816  -3.7816  -3.7816  -3.0829  -3.0829  -3.0829  -3.0829
    -2.2659  -2.2659  -2.2659  -2.2659  -1.4352  -1.4352  -1.4352  -1.4352
    -0.6045  -0.6045  -0.6045  -0.6045  -0.4465  -0.4465  -0.4465  -0.4465
     0.0021   0.0021   0.0021   0.0021   0.3205   0.3205   0.3205   0.3205

     occupation numbers 
     1.0000   1.0000   1.0000   1.0000   1.0000   1.0000   1.0000   1.0000
     1.0000   1.0000   1.0000   1.0000   1.0000   1.0000   1.0000   1.0000
     1.0000   1.0000   1.0000   1.0000   1.0000   1.0000   1.0000   1.0000
     1.0000   1.0000   1.0000   1.0000   1.0000   1.0000   1.0000   1.0000
     1.0000   1.0000   1.0000   1.0000   1.0000   1.0000   1.0000   1.0000
     1.0000   1.0000   1.0000   1.0000   1.0000   1.0000   1.0000   1.0000
     0.0277   0.0277   0.0277   0.0277   0.0000   0.0000   0.0000   0.0000
     0.0000   0.0000   0.0000   0.0000   0.0000   0.0000   0.0000   0.0000
     0.0000   0.0000   0.0000   0.0000   0.0000   0.0000   0.0000   0.0000

     the Fermi energy is    -2.4045 ev

!    total energy              =    -481.21942956 Ry
     total all-electron energy =      -481.219690 Ry
     estimated scf accuracy    <       0.00000007 Ry

!    total charge of GC-SCF    =      -1.40541151 e
     smearing contrib. (-TS)   =       0.00023256 Ry
     internal energy E=F+TS    =    -481.21966212 Ry

     The total energy is F=E-TS. E is the sum of the following terms:
     one-electron contribution =   -6536.04079383 Ry
     hartree contribution      =    3217.22613617 Ry
     xc contribution           =    -115.04596665 Ry
     ewald contribution        =    2901.26816291 Ry
     one-center paw contrib.   =       2.82292225 Ry
      -> PAW hartree energy AE =       7.50495858 Ry
      -> PAW hartree energy PS =      -7.28235920 Ry
      -> PAW xc energy AE      =      -3.49980237 Ry
      -> PAW xc energy PS      =       3.36539947 Ry
      -> total E_H with PAW    =    3217.44873556 Ry
      -> total E_XC with PAW   =    -115.18036955 Ry
     pot.stat. contrib. (-muN) =       0.24832320 Ry
     electrostatic embedding   =      -0.47453435 Ry
     cavitation energy         =       0.01927463 Ry
     electrolyte free energy   =      -0.00295933 Ry
     correction to one-el term =      48.75977288 Ry

     WARNING: you are using the parabolic pbc correction;
              the potential shift above must be added to 
              band and Fermi energies.

     convergence has been achieved in  24 iterations
     The dielectric solvent contribution to forces
     atom    1 type  1   force =     0.00000000    0.00000000    0.05248986
     atom    2 type  1   force =     0.00000005    0.00000005    0.04855159
     atom    3 type  1   force =     0.00000000    0.00000000    0.01035442
     atom    4 type  1   force =    -0.00000016   -0.00000016    0.03067758
     atom    5 type  1   force =     0.00000000    0.00000000   -0.03065147
     atom    6 type  1   force =     0.00000005    0.00000005   -0.01032931
     atom    7 type  1   force =     0.00000000    0.00000000   -0.04851962
     atom    8 type  1   force =    -0.00000010   -0.00000010   -0.05246601
     atom    9 type  1   force =     0.00000000   -0.00000000    0.05248955
     atom   10 type  1   force =     0.00000005   -0.00000005    0.04855159
[...]
     atom   19 type  1   force =     0.00000000    0.00000000    0.00062586
     atom   20 type  1   force =     0.00000084   -0.00000084    0.00039886
     atom   21 type  1   force =     0.00000000    0.00000000   -0.00037669
     atom   22 type  1   force =    -0.00000021    0.00000021   -0.00058820
     atom   23 type  1   force =     0.00000000    0.00000000    0.04778016
     atom   24 type  1   force =     0.00000041   -0.00000041    0.00326505
     atom   25 type  1   force =     0.00000000    0.00000000   -0.00328393
     atom   26 type  1   force =     0.00000001    0.00000001   -0.04781653
     atom   27 type  1   force =     0.00000000    0.00000000    0.00062683
     atom   28 type  1   force =     0.00000084    0.00000084    0.00039886
     atom   29 type  1   force =     0.00000000    0.00000000   -0.00037672
     atom   30 type  1   force =    -0.00000021   -0.00000021   -0.00058820
     atom   31 type  1   force =     0.00000000    0.00000000    0.04778033
     atom   32 type  1   force =     0.00000041    0.00000041    0.00326505
     The ionic contribution  to forces
     atom    1 type  1   force =    -0.00000001   -0.00000001   -9.85714479
     atom    2 type  1   force =    -0.00000282   -0.00000282  -13.48625802
     atom    3 type  1   force =    -0.00000001   -0.00000001   -1.97506169
     atom    4 type  1   force =    -0.00001747   -0.00001747   -5.92332705
     atom    5 type  1   force =    -0.00000000   -0.00000000    5.92370501
     atom    6 type  1   force =     0.00000127    0.00000127    1.97602923
     atom    7 type  1   force =    -0.00000001   -0.00000001   13.48532608
     atom    8 type  1   force =    -0.00000571   -0.00000571    9.85673516
     atom    9 type  1   force =    -0.00000001    0.00000001   -9.85713917
     atom   10 type  1   force =    -0.00000282    0.00000282  -13.48625800
     atom   11 type  1   force =    -0.00000001    0.00000001   -1.97509600
     atom   12 type  1   force =    -0.00001747    0.00001748   -5.92332707
     atom   13 type  1   force =    -0.00000000   -0.00000000    5.92371509
     atom   14 type  1   force =     0.00000127   -0.00000127    1.97602923
     atom   15 type  1   force =    -0.00000001    0.00000001   13.48531451
     atom   16 type  1   force =    -0.00000571    0.00000572    9.85673519
     atom   17 type  1   force =     0.00000001   -0.00000001   -9.85713917
     atom   18 type  1   force =     0.00000282   -0.00000282  -13.48625800
     atom   19 type  1   force =     0.00000001   -0.00000001   -1.97509600
     atom   20 type  1   force =     0.00001748   -0.00001747   -5.92332707
     atom   21 type  1   force =    -0.00000000   -0.00000000    5.92371509
     atom   22 type  1   force =    -0.00000127    0.00000127    1.97602923
     atom   23 type  1   force =     0.00000001   -0.00000001   13.48531451
     atom   24 type  1   force =     0.00000572   -0.00000571    9.85673519
     atom   25 type  1   force =     0.00000001    0.00000001   -9.85711215
     atom   26 type  1   force =     0.00000282    0.00000282  -13.48625798
     atom   27 type  1   force =     0.00000001    0.00000001   -1.97507490
     atom   28 type  1   force =     0.00001748    0.00001748   -5.92332707
     atom   29 type  1   force =    -0.00000000   -0.00000000    5.92375233
     atom   30 type  1   force =    -0.00000127   -0.00000127    1.97602922
     atom   31 type  1   force =     0.00000001    0.00000001   13.48530384
     atom   32 type  1   force =     0.00000572    0.00000572    9.85673520
     The local contribution  to forces
     atom    1 type  1   force =     0.00000407    0.00000407    9.80714537
     atom    2 type  1   force =     0.00000713    0.00000713   13.48472555
     atom    3 type  1   force =     0.00000407    0.00000407    1.96407156
     atom    4 type  1   force =     0.00002244    0.00002244    5.89164507
     atom    5 type  1   force =     0.00000407    0.00000407   -5.89206498
     atom    6 type  1   force =     0.00000307    0.00000307   -1.96508110
     atom    7 type  1   force =     0.00000350    0.00000350  -13.48381638
     atom    8 type  1   force =     0.00001041    0.00001041   -9.80675077
     atom    9 type  1   force =     0.00000407    0.00000499    9.80714049
     atom   10 type  1   force =     0.00000713    0.00000229   13.48472435
     atom   11 type  1   force =     0.00000407    0.00000441    1.96410605
     atom   12 type  1   force =     0.00002244   -0.00001304    5.89164567
     atom   13 type  1   force =     0.00000407    0.00000383   -5.89207428
     atom   14 type  1   force =     0.00000307    0.00000575   -1.96508110
     atom   15 type  1   force =     0.00000350    0.00000442  -13.48380338
     atom   16 type  1   force =     0.00001041   -0.00000160   -9.80675138
     atom   17 type  1   force =     0.00000499    0.00000407    9.80714049
     atom   18 type  1   force =     0.00000229    0.00000713   13.48472435
     atom   19 type  1   force =     0.00000441    0.00000407    1.96410605
     atom   20 type  1   force =    -0.00001304    0.00002244    5.89164567
     atom   21 type  1   force =     0.00000383    0.00000407   -5.89207428
     atom   22 type  1   force =     0.00000575    0.00000307   -1.96508110
     atom   23 type  1   force =     0.00000442    0.00000350  -13.48380338
     atom   24 type  1   force =    -0.00000160    0.00001041   -9.80675138
     atom   25 type  1   force =     0.00000499    0.00000499    9.80711316
     atom   26 type  1   force =     0.00000229    0.00000229   13.48472375
     atom   27 type  1   force =     0.00000441    0.00000441    1.96408387
     atom   28 type  1   force =    -0.00001304   -0.00001304    5.89164567
     atom   29 type  1   force =     0.00000383    0.00000383   -5.89211192
     atom   30 type  1   force =     0.00000575    0.00000575   -1.96508110
     atom   31 type  1   force =     0.00000442    0.00000442  -13.48379162
     atom   32 type  1   force =    -0.00000160   -0.00000160   -9.80675138
     The core correction contribution to forces
     atom    1 type  1   force =     0.00000000    0.00000000    0.00000000
     atom    2 type  1   force =     0.00000000    0.00000000    0.00000000
     atom    3 type  1   force =     0.00000000    0.00000000    0.00000000
     atom    4 type  1   force =     0.00000000    0.00000000    0.00000000
     atom    5 type  1   force =     0.00000000    0.00000000    0.00000000
     atom    6 type  1   force =     0.00000000    0.00000000    0.00000000
     atom    7 type  1   force =     0.00000000    0.00000000    0.00000000
     atom    8 type  1   force =     0.00000000    0.00000000    0.00000000
     atom    9 type  1   force =     0.00000000    0.00000000    0.00000000
     atom   10 type  1   force =     0.00000000    0.00000000    0.00000000
     atom   11 type  1   force =     0.00000000    0.00000000    0.00000000
     atom   12 type  1   force =     0.00000000    0.00000000    0.00000000
     atom   13 type  1   force =     0.00000000    0.00000000    0.00000000
     atom   14 type  1   force =     0.00000000    0.00000000    0.00000000
     atom   15 type  1   force =     0.00000000    0.00000000    0.00000000
     atom   16 type  1   force =     0.00000000    0.00000000    0.00000000
     atom   17 type  1   force =     0.00000000    0.00000000    0.00000000
     atom   18 type  1   force =     0.00000000    0.00000000    0.00000000
     atom   19 type  1   force =     0.00000000    0.00000000    0.00000000
     atom   20 type  1   force =     0.00000000    0.00000000    0.00000000
     atom   21 type  1   force =     0.00000000    0.00000000    0.00000000
     atom   22 type  1   force =     0.00000000    0.00000000    0.00000000
     atom   23 type  1   force =     0.00000000    0.00000000    0.00000000
     atom   24 type  1   force =     0.00000000    0.00000000    0.00000000
     atom   25 type  1   force =     0.00000000    0.00000000    0.00000000
     atom   26 type  1   force =     0.00000000    0.00000000    0.00000000
     atom   27 type  1   force =     0.00000000    0.00000000    0.00000000
     atom   28 type  1   force =     0.00000000    0.00000000    0.00000000
     atom   29 type  1   force =     0.00000000    0.00000000    0.00000000
     atom   30 type  1   force =     0.00000000    0.00000000    0.00000000
     atom   31 type  1   force =     0.00000000    0.00000000    0.00000000
     atom   32 type  1   force =     0.00000000    0.00000000    0.00000000
     The Hubbard contrib.    to forces
     atom    1 type  1   force =     0.00000000    0.00000000    0.00000000
     atom    2 type  1   force =     0.00000000    0.00000000    0.00000000
     atom    3 type  1   force =     0.00000000    0.00000000    0.00000000
     atom    4 type  1   force =     0.00000000    0.00000000    0.00000000
     atom    5 type  1   force =     0.00000000    0.00000000    0.00000000
     atom    6 type  1   force =     0.00000000    0.00000000    0.00000000
     atom    7 type  1   force =     0.00000000    0.00000000    0.00000000
     atom    8 type  1   force =     0.00000000    0.00000000    0.00000000
     atom    9 type  1   force =     0.00000000    0.00000000    0.00000000
     atom   10 type  1   force =     0.00000000    0.00000000    0.00000000
     atom   11 type  1   force =     0.00000000    0.00000000    0.00000000
     atom   12 type  1   force =     0.00000000    0.00000000    0.00000000
     atom   13 type  1   force =     0.00000000    0.00000000    0.00000000
     atom   14 type  1   force =     0.00000000    0.00000000    0.00000000
     atom   15 type  1   force =     0.00000000    0.00000000    0.00000000
     atom   16 type  1   force =     0.00000000    0.00000000    0.00000000
     atom   17 type  1   force =     0.00000000    0.00000000    0.00000000
     atom   18 type  1   force =     0.00000000    0.00000000    0.00000000
     atom   19 type  1   force =     0.00000000    0.00000000    0.00000000
     atom   20 type  1   force =     0.00000000    0.00000000    0.00000000
     atom   21 type  1   force =     0.00000000    0.00000000    0.00000000
     atom   22 type  1   force =     0.00000000    0.00000000    0.00000000
     atom   23 type  1   force =     0.00000000    0.00000000    0.00000000
     atom   24 type  1   force =     0.00000000    0.00000000    0.00000000
     atom   25 type  1   force =     0.00000000    0.00000000    0.00000000
     atom   26 type  1   force =     0.00000000    0.00000000    0.00000000
     atom   27 type  1   force =     0.00000000    0.00000000    0.00000000
     atom   28 type  1   force =     0.00000000    0.00000000    0.00000000
     atom   29 type  1   force =     0.00000000    0.00000000    0.00000000
     atom   30 type  1   force =     0.00000000    0.00000000    0.00000000
     atom   31 type  1   force =     0.00000000    0.00000000    0.00000000
     atom   32 type  1   force =     0.00000000    0.00000000    0.00000000
     The SCF correction term to forces
     atom    1 type  1   force =     0.00000000    0.00000000    0.00000002
     atom    2 type  1   force =     0.00000000    0.00000000    0.00000314
     atom    3 type  1   force =     0.00000000    0.00000000   -0.00000004
     atom    4 type  1   force =    -0.00000000   -0.00000000    0.00000017
     atom    5 type  1   force =     0.00000000    0.00000000    0.00000002
     atom    6 type  1   force =    -0.00000000   -0.00000000    0.00000023
     atom    7 type  1   force =     0.00000000    0.00000000   -0.00000343
     atom    8 type  1   force =    -0.00000000   -0.00000000    0.00000002
     atom    9 type  1   force =     0.00000000   -0.00000000    0.00000003
     atom   10 type  1   force =     0.00000000   -0.00000000    0.00000314
     atom   11 type  1   force =     0.00000000   -0.00000000   -0.00000004
     atom   12 type  1   force =    -0.00000000    0.00000000    0.00000017
     atom   13 type  1   force =     0.00000000    0.00000000    0.00000002
     atom   14 type  1   force =    -0.00000000    0.00000000    0.00000023
     atom   15 type  1   force =     0.00000000   -0.00000000   -0.00000345
     atom   16 type  1   force =    -0.00000000    0.00000000    0.00000002
     atom   17 type  1   force =    -0.00000000    0.00000000    0.00000003
     atom   18 type  1   force =    -0.00000000    0.00000000    0.00000314
     atom   19 type  1   force =    -0.00000000    0.00000000   -0.00000004
     atom   20 type  1   force =     0.00000000   -0.00000000    0.00000017
     atom   21 type  1   force =    -0.00000000    0.00000000    0.00000002
     atom   22 type  1   force =     0.00000000   -0.00000000    0.00000023
     atom   23 type  1   force =    -0.00000000    0.00000000   -0.00000345
     atom   24 type  1   force =     0.00000000   -0.00000000    0.00000002
     atom   25 type  1   force =    -0.00000000   -0.00000000    0.00000004
     atom   26 type  1   force =    -0.00000000   -0.00000000    0.00000314
     atom   27 type  1   force =    -0.00000000   -0.00000000   -0.00000003
     atom   28 type  1   force =     0.00000000    0.00000000    0.00000017
     atom   29 type  1   force =    -0.00000000   -0.00000000    0.00000004
     atom   30 type  1   force =     0.00000000    0.00000000    0.00000023
     atom   31 type  1   force =    -0.00000000    0.00000000   -0.00000349
     atom   32 type  1   force =     0.00000000    0.00000000    0.00000002

     Total force =     0.000891     Total SCF correction =     0.000009
     Energy error            =      8.3E-07 Ry
     Gradient error          =      2.8E-04 Ry/Bohr

     bfgs converged in  10 scf cycles and   9 bfgs steps
     (criteria: energy <  1.0E-05 Ry, force <  3.9E-04 Ry/Bohr)

     End of BFGS Geometry Optimization

     Final energy             =    -481.2199601594 Ry

     File ./Li/Lithium.bfgs deleted, as requested
Begin final coordinates

ATOMIC_POSITIONS (angstrom)
Li              -0.0000000700       -0.0000000700       21.8069524611
Li               1.7175822883        1.7175822883       20.0112493216
Li              -0.0000000700       -0.0000000700       25.2517543955
Li               1.7175822530        1.7175822530       23.5275340421
Li              -0.0000000700       -0.0000000700       28.7128555010
Li               1.7175816857        1.7175816857       26.9878299431
Li              -0.0000000600       -0.0000000600       32.2315353949
Li               1.7175755926        1.7175755926       30.4347235465
Li              -0.0000000700        3.4351561600       21.8069614111
Li               1.7175822883        5.1527300417       20.0112493416
Li              -0.0000000700        3.4351561700       25.2517274754
Li               1.7175822530        5.1527300770       23.5275340321
Li              -0.0000000700        3.4351561800       28.7128629752
Li               1.7175816857        5.1527306543       26.9878299431
Li              -0.0000000600        3.4351561700       32.2315228849
Li               1.7175755926        5.1527367474       30.4347235565
Li               3.4351561600       -0.0000000700       21.8069614111
Li               5.1527300417        1.7175822883       20.0112493416
Li               3.4351561700       -0.0000000700       25.2517274754
Li               5.1527300770        1.7175822530       23.5275340321
Li               3.4351561800       -0.0000000700       28.7128629752
Li               5.1527306543        1.7175816857       26.9878299431
Li               3.4351561700       -0.0000000600       32.2315228849
Li               5.1527367474        1.7175755926       30.4347235565
Li               3.4351561600        3.4351561600       21.8069805168
Li               5.1527300417        5.1527300417       20.0112493516
Li               3.4351561700        3.4351561700       25.2517332548
Li               5.1527300770        5.1527300770       23.5275340321
Li               3.4351561800        3.4351561800       28.7128843413
Li               5.1527306543        5.1527306543       26.9878299431
Li               3.4351561700        3.4351561700       32.2315092042
Li               5.1527367474        5.1527367474       30.4347235565
End final coordinates



     Writing all to output data dir ./Li/Lithium.save/ :
     XML data file
     init_run     :     15.11s CPU     23.09s WALL (       1 calls)
     electrons    :   3640.43s CPU   4522.19s WALL (      10 calls)
     update_pot   :      0.70s CPU      0.82s WALL (       9 calls)
     forces       :     91.54s CPU     98.58s WALL (      10 calls)

     Called by init_run:
     wfcinit      :      2.50s CPU      3.44s WALL (       1 calls)
     wfcinit:wfcr :      2.35s CPU      3.29s WALL (      21 calls)
     potinit      :      0.70s CPU      0.75s WALL (       1 calls)
     hinit0       :      2.55s CPU      2.77s WALL (       1 calls)

     Called by electrons:
     c_bands      :   2967.65s CPU   3677.74s WALL (     197 calls)
     sum_band     :    227.18s CPU    313.88s WALL (     197 calls)
     v_of_rho     :     10.23s CPU     12.13s WALL (     198 calls)
     v_h          :      0.97s CPU      1.17s WALL (     198 calls)
     v_xc         :      9.26s CPU     10.95s WALL (     198 calls)
     newd         :      8.85s CPU      9.28s WALL (     198 calls)
     PAW_pot      :      1.82s CPU      2.29s WALL (     207 calls)
     mix_rho      :     29.20s CPU     37.66s WALL (     197 calls)

     Called by c_bands:
     init_us_2    :     27.72s CPU     28.90s WALL (    8694 calls)
     cegterg      :   2931.16s CPU   3637.07s WALL (    4460 calls)

     Called by sum_band:
     sum_band:wei :      0.26s CPU      0.30s WALL (     197 calls)
     sum_band:loo :    215.83s CPU    301.72s WALL (     197 calls)
     sum_band:buf :      2.68s CPU      2.90s WALL (    4137 calls)
     sum_band:ini :     12.92s CPU     12.99s WALL (    4137 calls)
     sum_band:cal :     33.08s CPU     38.53s WALL (    4326 calls)
     sum_band:bec :      0.65s CPU      0.72s WALL (    4326 calls)
     addusdens    :      9.14s CPU      9.20s WALL (     197 calls)
                                        0.00s GPU  (     197 calls)
     addusd:skk   :      2.22s CPU      2.22s WALL (     197 calls)
                                        0.00s GPU  (     197 calls)

     Called by *egterg:
     cdiaghg      :    842.39s CPU    874.06s WALL (   48354 calls)
     cegterg:over :    170.14s CPU    189.29s WALL (   44375 calls)
     cegterg:upda :    116.23s CPU    120.33s WALL (   44375 calls)
     cegterg:last :     36.23s CPU     36.59s WALL (    5369 calls)
     h_psi        :   1580.72s CPU   2219.74s WALL (   48856 calls)
     s_psi        :    112.30s CPU    114.59s WALL (   48856 calls)
     g_psi        :      1.87s CPU      1.95s WALL (   44375 calls)

     Called by h_psi:
     h_psi:calbec :    166.52s CPU    200.68s WALL (   48856 calls)
     vloc_psi     :   1283.53s CPU   1882.07s WALL (   48856 calls)
                                        0.00s GPU  (   48856 calls)
     add_vuspsi   :    123.54s CPU    129.04s WALL (   48856 calls)

     General routines
     calbec       :    204.76s CPU    245.07s WALL (   54022 calls)
     fft          :      9.10s CPU     11.52s WALL (    2592 calls)
     ffts         :     22.33s CPU     28.81s WALL (   22289 calls)
     fftw         :   1401.78s CPU   2061.41s WALL ( 2585794 calls)
     interpolate  :      1.48s CPU      1.71s WALL (     198 calls)

     Parallel routines

     PAW routines
     PAW_pot      :      1.82s CPU      2.29s WALL (     207 calls)
     PAW_symme    :      0.04s CPU      0.05s WALL (     404 calls)

     Environ routines

     PWSCF        :      1h 3m CPU      1h18m WALL


   This run was terminated on:  22:23:10   2Jan2025            

=------------------------------------------------------------------------------=
   JOB DONE.
=------------------------------------------------------------------------------=
