
     Program PWSCF v.7.4 starts on  6Jan2025 at  8:22:12 
        Git branch: develop
        Last git commit: e877ff360aceba4b8d76ffc2fb1c70545fc5dd57
        Last git commit date: Sat Jan 4 12:56:15 2025 +0000
        Last git commit subject: Merge branch 'orthoU' into 'develop'

     This program is part of the open-source Quantum ESPRESSO suite
     for quantum simulation of materials; please cite
         "P. Giannozzi et al., J. Phys.:Condens. Matter 21 395502 (2009);
         "P. Giannozzi et al., J. Phys.:Condens. Matter 29 465901 (2017);
         "P. Giannozzi et al., J. Chem. Phys. 152 154105 (2020);
          URL http://www.quantum-espresso.org", 
     in publications or presentations arising from this work. More details at
     http://www.quantum-espresso.org/quote

     Parallel version (MPI), running on   440 processors

     MPI processes distributed on    11 nodes
     176385 MiB available memory on the printing compute node when the environment starts
 
     Reading input from espresso.pwi
Warning: card &CELL ignored
Warning: card    PRESS_CONV_THR   = 0.1 ignored
Warning: card    CELL_DOFREE      = 'ALL' ignored
Warning: card / ignored
Warning: card &FCP ignored
Warning: card / ignored
Warning: card &RISM ignored
Warning: card / ignored

     Current dimensions of program PWSCF are:
     Max number of different atomic species (ntypx) = 10
     Max number of k-points (npk) =  40000
     Max angular momentum in pseudopotentials (lmaxx) =  4

     IMPORTANT: XC functional enforced from input :
     Exchange-correlation= PBE
                           (   1   4   3   4   0   0   0)
     Any further DFT definition will be discarded
     Please, verify this is what you really want

 
     Reading input from environ.in:
     * using ionic solvent mode
     * setting boundary derivatives method to SSCS default
     * setting electrolyte-boundary derivatives method to SSCS default

Environ Warning (1001): card EOF ignored

     
     Found identity + (  0.5000 -0.0000  0.0000) symmetry
     This is a supercell, fractional translations are disabled
 
     K-points division:     npool     =       2
     R & G space division:  proc/nbgrp/npool/nimage =     220
     Subspace diagonalization in iterative solution of the eigenvalue problem:
     a serial algorithm will be used

 
     Parallelization info
     --------------------
     sticks:   dense  smooth     PW     G-vecs:    dense   smooth      PW
     Min          80      32      8                46668    11802    1580
     Max          81      33      9                46741    11837    1633
     Sum       17801    7131   1879             10277287  2600241  352547
 
     Using Slab Decomposition
 


     bravais-lattice index     =           12
     lattice parameter (alat)  =      18.3607  a.u.
     unit-cell volume          =   26895.2624 (a.u.)^3
     number of atoms/cell      =           44
     number of atomic types    =            1
     number of electrons       =       132.00
     number of Kohn-Sham states=           99
     kinetic-energy cutoff     =      80.0000  Ry
     charge density cutoff     =     800.0000  Ry
     scf convergence threshold =      1.0E-14
     mixing beta               =       0.2000
     number of iterations used =            8  local-TF  mixing
     Exchange-correlation= PBE
                           (   1   4   3   4   0   0   0)

     ================================================================================
 
                                  Environ Setup Summary

     ================================================================================
 
     Please cite

          O. Andreussi, I. Dabo and N. Marzari, J. Chem. Phys. 136, 064102 (2012)
          F. Nattino, M. Truscott, N. Marzari, and O. Andreussi, J. Chem. Phys. 150, 041722 (2019)

     in publications or presentations arising from this work.

     ================================================================================
 
     Parameters
     ==========

     compensation onset threshold      =               0.1000E+00
     static permittivity               =                    89.90
     surface tension in input (dyn/cm) =                    37.30
     surface tension in internal units =               0.4792E-04

     Solvent Boundary
     ================

     solvent mode                      =                    ionic
     derivatives method                =                   lowmem
     electrolyte derivatives method    =                   lowmem
     numerical core for derivatives    =                      fft
     switching function adopted        =                     SCCS
     density limit for vacuum region   =               0.5000E-02
     density limit for bulk solvent    =               0.1000E-03
     soft-sphere radius mode           =                    bondi
     soft-sphere softness              =                     0.50
     alpha                             =                     1.32

     Electrostatic Setup
     ===================

     electrostatic problem to solve    =                    modpb
     numerical solver adopted          =                   newton
     type of auxiliary density adopted =                     none
     numerical core for poisson        =                      fft
     adopting a nested solver scheme
     inner solver                      =                       cg
     inner core                        =                      fft
     type of pbc corrections           =                parabolic
     numerical core for corrections    =                      1da

     ================================================================================
 

     >>>>> Grand-Canonical SCF is activated <<<<<
     Initial Total Charge  =     0.000000 e
     Target Fermi Energy   =    -3.904000 eV
     Thr. of Fermi Energy  =     0.001000 eV
     Wave-shift of Kerker  =     0.400000 bohr^-1
     Wave-shift of Hartree =     1.500000 bohr^-1
     Mixing Rate of Fermi  =     0.050000

     celldm(1)=  18.360747  celldm(2)=   0.866025  celldm(3)=   5.240449
     celldm(4)=  -0.288675  celldm(5)=   0.000000  celldm(6)=   0.000000

     crystal axes: (cart. coord. in units of alat)
               a(1) = (   1.000000   0.000000   0.000000 )  
               a(2) = (  -0.250000   0.829156   0.000000 )  
               a(3) = (   0.000000   0.000000   5.240449 )  

     reciprocal axes: (cart. coord. in units 2 pi/alat)
               b(1) = (  1.000000  0.301511  0.000000 )  
               b(2) = (  0.000000  1.206046  0.000000 )  
               b(3) = (  0.000000  0.000000  0.190823 )  


     PseudoPot. # 1 for Li read from file:
     /home/mmm1182/Repos/Pseudopotentials/pslibrary/Li.pbe-sl-kjpaw_psl.1.0.0.UPF
     MD5 check sum: f40bb4162937df3f7c561f1969c76545
     Pseudo is Projector augmented-wave, Zval =  3.0
     Generated using 'atomic' code by A. Dal Corso  v.7.3.1
     Shape of augmentation charge: PSQ
     Using radial grid of 1017 points,  4 beta functions with: 
                l(1) =   0
                l(2) =   0
                l(3) =   1
                l(4) =   1
     Q(r) pseudized with 0 coefficients 


     atomic species   valence    mass     pseudopotential
     Li                3.00     6.94000     Li( 1.00)

     No symmetry found


                                    s                        frac. trans.

      isym =  1     identity                                     

 cryst.   s( 1) = (     1          0          0      )
                  (     0          1          0      )
                  (     0          0          1      )

 cart.    s( 1) = (  1.0000000  0.0000000  0.0000000 )
                  (  0.0000000  1.0000000  0.0000000 )
                  (  0.0000000  0.0000000  1.0000000 )


     point group C_1 (1)    
     there are  1 classes
     the character table:

       E    
A      1.00

     the symmetry operations in each class and the name of the first element:

     E        1
          identity                                               

   Cartesian axes

     site n.     atom                  positions (alat units)
         1        Li     tau(   1) = (  -0.2500307   0.7117620   2.0150772  )
         2        Li     tau(   2) = (   0.2498857   0.2678729   3.1832286  )
         3        Li     tau(   3) = (  -0.0000140   0.4752254   3.0308699  )
         4        Li     tau(   4) = (   0.2500279   0.6718831   2.9105629  )
         5        Li     tau(   5) = (   0.2499519   0.0831819   2.7993432  )
         6        Li     tau(   6) = (  -0.0000026   0.3047183   2.7090483  )
         7        Li     tau(   7) = (   0.2500130   0.5214363   2.6008929  )
         8        Li     tau(   8) = (  -0.0000158   0.7501570   2.4873776  )
         9        Li     tau(   9) = (   0.0000306   0.1609323   2.3551333  )
        10        Li     tau(  10) = (   0.2499894   0.3766243   2.2625074  )
        11        Li     tau(  11) = (  -0.0000044   0.5686625   2.1847150  )
        12        Li     tau(  12) = (   0.0000106   0.1510205   2.9779412  )
        13        Li     tau(  13) = (   0.2499696   0.3667102   2.8853168  )
        14        Li     tau(  14) = (   0.0000155   0.6066415   2.7530728  )
        15        Li     tau(  15) = (   0.2499868   0.8353621   2.6395572  )
        16        Li     tau(  16) = (   0.2500029   0.2229246   2.5314007  )
        17        Li     tau(  17) = (   0.0000481   0.4444630   2.4411047  )
        18        Li     tau(  18) = (   0.2499719   0.6849182   2.3298884  )
        19        Li     tau(  19) = (   0.2500141   0.0524209   2.2095819  )
        20        Li     tau(  20) = (   0.0001144   0.2597724   2.0572238  )
        21        Li     tau(  21) = (   0.2500305   0.6450449   3.2253745  )
        22        Li     tau(  22) = (   0.0000040   0.7881406   3.0557334  )
        23        Li     tau(  23) = (   0.2499693   0.7117619   2.0150773  )
        24        Li     tau(  24) = (   0.7498857   0.2678729   3.1832286  )
        25        Li     tau(  25) = (   0.4999860   0.4752254   3.0308700  )
        26        Li     tau(  26) = (   0.7500279   0.6718830   2.9105629  )
        27        Li     tau(  27) = (   0.7499518   0.0831818   2.7993432  )
        28        Li     tau(  28) = (   0.4999973   0.3047182   2.7090483  )
        29        Li     tau(  29) = (   0.7500131   0.5214363   2.6008928  )
        30        Li     tau(  30) = (   0.4999842   0.7501569   2.4873776  )
        31        Li     tau(  31) = (   0.5000306   0.1609323   2.3551333  )
        32        Li     tau(  32) = (   0.7499894   0.3766243   2.2625074  )
        33        Li     tau(  33) = (   0.4999957   0.5686624   2.1847150  )
        34        Li     tau(  34) = (   0.5000106   0.1510206   2.9779412  )
        35        Li     tau(  35) = (   0.7499695   0.3667102   2.8853169  )
        36        Li     tau(  36) = (   0.5000155   0.6066415   2.7530728  )
        37        Li     tau(  37) = (   0.7499868   0.8353621   2.6395572  )
        38        Li     tau(  38) = (   0.7500029   0.2229246   2.5314008  )
        39        Li     tau(  39) = (   0.5000480   0.4444630   2.4411047  )
        40        Li     tau(  40) = (   0.7499718   0.6849182   2.3298884  )
        41        Li     tau(  41) = (   0.7500141   0.0524209   2.2095819  )
        42        Li     tau(  42) = (   0.5001144   0.2597723   2.0572239  )
        43        Li     tau(  43) = (   0.7500306   0.6450450   3.2253745  )
        44        Li     tau(  44) = (   0.5000040   0.7881406   3.0557335  )

   Crystallographic axes

     site n.     atom                  positions (cryst. coord.)
         1        Li     tau(   1) = ( -0.0354264  0.8584174  0.3845238  )
         2        Li     tau(   2) = (  0.3306524  0.3230669  0.6074343  )
         3        Li     tau(   3) = (  0.1432719  0.5731435  0.5783607  )
         4        Li     tau(   4) = (  0.4526083  0.8103217  0.5554033  )
         5        Li     tau(   5) = (  0.2750321  0.1003211  0.5341800  )
         6        Li     tau(   6) = (  0.0918734  0.3675041  0.5169497  )
         7        Li     tau(   7) = (  0.4072320  0.6288760  0.4963111  )
         8        Li     tau(   8) = (  0.2261651  0.9047236  0.4746497  )
         9        Li     tau(   9) = (  0.0485535  0.1940917  0.4494144  )
        10        Li     tau(  10) = (  0.3635459  0.4542261  0.4317392  )
        11        Li     tau(  11) = (  0.1714539  0.6858329  0.4168946  )
        12        Li     tau(  12) = (  0.0455450  0.1821377  0.5682607  )
        13        Li     tau(  13) = (  0.3605369  0.4422692  0.5505858  )
        14        Li     tau(  14) = (  0.1829249  0.7316374  0.5253506  )
        15        Li     tau(  15) = (  0.5018580  1.0074848  0.5036891  )
        16        Li     tau(  16) = (  0.3172172  0.2688573  0.4830504  )
        17        Li     tau(  17) = (  0.1340587  0.5360427  0.4658198  )
        18        Li     tau(  18) = (  0.4564825  0.8260426  0.4445971  )
        19        Li     tau(  19) = (  0.2658196  0.0632220  0.4216398  )
        20        Li     tau(  20) = (  0.0784387  0.3132974  0.3925663  )
        21        Li     tau(  21) = (  0.4445189  0.7779536  0.6154767  )
        22        Li     tau(  22) = (  0.2376373  0.9505335  0.5831053  )
        23        Li     tau(  23) = (  0.4645736  0.8584173  0.3845238  )
        24        Li     tau(  24) = (  0.8306524  0.3230669  0.6074343  )
        25        Li     tau(  25) = (  0.6432719  0.5731435  0.5783607  )
        26        Li     tau(  26) = (  0.9526083  0.8103216  0.5554033  )
        27        Li     tau(  27) = (  0.7750321  0.1003210  0.5341800  )
        28        Li     tau(  28) = (  0.5918734  0.3675041  0.5169497  )
        29        Li     tau(  29) = (  0.9072321  0.6288760  0.4963111  )
        30        Li     tau(  30) = (  0.7261651  0.9047235  0.4746497  )
        31        Li     tau(  31) = (  0.5485535  0.1940917  0.4494144  )
        32        Li     tau(  32) = (  0.8635459  0.4542261  0.4317392  )
        33        Li     tau(  33) = (  0.6714539  0.6858329  0.4168946  )
        34        Li     tau(  34) = (  0.5455450  0.1821377  0.5682607  )
        35        Li     tau(  35) = (  0.8605368  0.4422692  0.5505858  )
        36        Li     tau(  36) = (  0.6829249  0.7316373  0.5253506  )
        37        Li     tau(  37) = (  1.0018580  1.0074849  0.5036891  )
        38        Li     tau(  38) = (  0.8172172  0.2688572  0.4830504  )
        39        Li     tau(  39) = (  0.6340587  0.5360427  0.4658198  )
        40        Li     tau(  40) = (  0.9564825  0.8260427  0.4445971  )
        41        Li     tau(  41) = (  0.7658196  0.0632220  0.4216398  )
        42        Li     tau(  42) = (  0.5784388  0.3132973  0.3925663  )
        43        Li     tau(  43) = (  0.9445191  0.7779537  0.6154767  )
        44        Li     tau(  44) = (  0.7376373  0.9505335  0.5831053  )

     number of k points=    29  Marzari-Vanderbilt smearing, width (Ry)=  0.0100
                       cart. coord. in units 2pi/alat
        k(    1) = (   0.0000000   0.0000000   0.0000000), wk =   0.0357143
        k(    2) = (   0.0000000   0.1507557   0.0000000), wk =   0.0714286
        k(    3) = (   0.0000000   0.3015114   0.0000000), wk =   0.0714286
        k(    4) = (   0.0000000   0.4522671   0.0000000), wk =   0.0714286
        k(    5) = (   0.0000000  -0.6030228   0.0000000), wk =   0.0357143
        k(    6) = (   0.1428571   0.0430731   0.0000000), wk =   0.0714286
        k(    7) = (   0.1428571   0.1938288   0.0000000), wk =   0.0714286
        k(    8) = (   0.1428571   0.3445845   0.0000000), wk =   0.0714286
        k(    9) = (   0.1428571   0.4953402   0.0000000), wk =   0.0714286
        k(   10) = (   0.1428571  -0.5599498   0.0000000), wk =   0.0714286
        k(   11) = (   0.1428571  -0.4091941   0.0000000), wk =   0.0714286
        k(   12) = (   0.1428571  -0.2584384   0.0000000), wk =   0.0714286
        k(   13) = (   0.1428571  -0.1076826   0.0000000), wk =   0.0714286
        k(   14) = (   0.2857143   0.0861461   0.0000000), wk =   0.0714286
        k(   15) = (   0.2857143   0.2369018   0.0000000), wk =   0.0714286
        k(   16) = (   0.2857143   0.3876575   0.0000000), wk =   0.0714286
        k(   17) = (   0.2857143   0.5384132   0.0000000), wk =   0.0714286
        k(   18) = (   0.2857143  -0.5168767   0.0000000), wk =   0.0714286
        k(   19) = (   0.2857143  -0.3661210   0.0000000), wk =   0.0714286
        k(   20) = (   0.2857143  -0.2153653   0.0000000), wk =   0.0714286
        k(   21) = (   0.2857143  -0.0646096   0.0000000), wk =   0.0714286
        k(   22) = (   0.4285714   0.1292192   0.0000000), wk =   0.0714286
        k(   23) = (   0.4285714   0.2799749   0.0000000), wk =   0.0714286
        k(   24) = (   0.4285714   0.4307306   0.0000000), wk =   0.0714286
        k(   25) = (   0.4285714   0.5814863   0.0000000), wk =   0.0714286
        k(   26) = (   0.4285714  -0.4738037   0.0000000), wk =   0.0714286
        k(   27) = (   0.4285714  -0.3230479   0.0000000), wk =   0.0714286
        k(   28) = (   0.4285714  -0.1722922   0.0000000), wk =   0.0714286
        k(   29) = (   0.4285714  -0.0215365   0.0000000), wk =   0.0714286

                       cryst. coord.
        k(    1) = (   0.0000000   0.0000000   0.0000000), wk =   0.0357143
        k(    2) = (   0.0000000   0.1250000   0.0000000), wk =   0.0714286
        k(    3) = (   0.0000000   0.2500000   0.0000000), wk =   0.0714286
        k(    4) = (   0.0000000   0.3750000   0.0000000), wk =   0.0714286
        k(    5) = (   0.0000000  -0.5000000   0.0000000), wk =   0.0357143
        k(    6) = (   0.1428571   0.0000000   0.0000000), wk =   0.0714286
        k(    7) = (   0.1428571   0.1250000   0.0000000), wk =   0.0714286
        k(    8) = (   0.1428571   0.2500000   0.0000000), wk =   0.0714286
        k(    9) = (   0.1428571   0.3750000   0.0000000), wk =   0.0714286
        k(   10) = (   0.1428571  -0.5000000   0.0000000), wk =   0.0714286
        k(   11) = (   0.1428571  -0.3750000   0.0000000), wk =   0.0714286
        k(   12) = (   0.1428571  -0.2500000   0.0000000), wk =   0.0714286
        k(   13) = (   0.1428571  -0.1250000   0.0000000), wk =   0.0714286
        k(   14) = (   0.2857143   0.0000000   0.0000000), wk =   0.0714286
        k(   15) = (   0.2857143   0.1250000   0.0000000), wk =   0.0714286
        k(   16) = (   0.2857143   0.2500000   0.0000000), wk =   0.0714286
        k(   17) = (   0.2857143   0.3750000   0.0000000), wk =   0.0714286
        k(   18) = (   0.2857143  -0.5000000   0.0000000), wk =   0.0714286
        k(   19) = (   0.2857143  -0.3750000   0.0000000), wk =   0.0714286
        k(   20) = (   0.2857143  -0.2500000   0.0000000), wk =   0.0714286
        k(   21) = (   0.2857143  -0.1250000   0.0000000), wk =   0.0714286
        k(   22) = (   0.4285714   0.0000000   0.0000000), wk =   0.0714286
        k(   23) = (   0.4285714   0.1250000   0.0000000), wk =   0.0714286
        k(   24) = (   0.4285714   0.2500000   0.0000000), wk =   0.0714286
        k(   25) = (   0.4285714   0.3750000   0.0000000), wk =   0.0714286
        k(   26) = (   0.4285714  -0.5000000   0.0000000), wk =   0.0714286
        k(   27) = (   0.4285714  -0.3750000   0.0000000), wk =   0.0714286
        k(   28) = (   0.4285714  -0.2500000   0.0000000), wk =   0.0714286
        k(   29) = (   0.4285714  -0.1250000   0.0000000), wk =   0.0714286

     Dense  grid: 10277287 G-vectors     FFT dimensions: ( 180, 144, 900)

     Smooth grid:  2600241 G-vectors     FFT dimensions: ( 108,  96, 576)

     Dynamical RAM for                 wfc:       2.23 MB

     Dynamical RAM for     wfc (w. buffer):      35.70 MB

     Dynamical RAM for           str. fact:       0.71 MB

     Dynamical RAM for           local pot:       0.00 MB

     Dynamical RAM for          nlocal pot:       7.93 MB

     Dynamical RAM for                qrad:       0.65 MB

     Dynamical RAM for          rho,v,vnew:       5.11 MB

     Dynamical RAM for               rhoin:       1.70 MB

     Dynamical RAM for            rho*nmix:      11.41 MB

     Dynamical RAM for           G-vectors:       2.76 MB

     Dynamical RAM for          h,s,v(r/c):       7.18 MB

     Dynamical RAM for          <psi|beta>:       0.53 MB

     Dynamical RAM for                 psi:       8.92 MB

     Dynamical RAM for                hpsi:       8.92 MB

     Dynamical RAM for                spsi:       8.92 MB

     Dynamical RAM for      wfcinit/wfcrot:       4.69 MB

     Dynamical RAM for           addusdens:      31.38 MB

     Dynamical RAM for          addusforce:      62.08 MB

     Estimated static dynamical RAM per process >      60.94 MB

     Estimated max dynamical RAM per process >     156.82 MB

     Estimated total dynamical RAM >      55.31 GB

     Initial potential from superposition of free atoms

     starting charge     131.7972, renormalised to     132.0000

     negative rho (up, down):  4.312E-03 0.000E+00
     Starting wfcs are random
     Checking if some PAW data can be deallocated... 

     total cpu time spent up to now is       19.1 secs

     per-process dynamical memory:   191.5 Mb

     Self-consistent Calculation

     iteration #  1     ecut=    80.00 Ry     beta= 0.20
     Davidson diagonalization with overlap

---- Real-time Memory Report at c_bands before calling an iterative solver
           846 MiB given to the printing process from OS
           187 MiB allocation reported by mallinfo(arena+hblkhd)
        170013 MiB available memory on the node where the printing process lives
------------------
     c_bands:  1 eigenvalues not converged
     c_bands:  1 eigenvalues not converged
     c_bands:  1 eigenvalues not converged
     c_bands:  1 eigenvalues not converged
     ethr =  1.00E-12,  avg # of iterations =108.8

     negative rho (up, down):  3.218E-03 0.000E+00

     total cpu time spent up to now is      256.1 secs

     total energy              =    -661.43344095 Ry
     estimated scf accuracy    <       0.16436805 Ry

     total charge of GC-SCF    =       0.09150976 e
     the Fermi energy          =      -4.40079416 eV
                        (error :       0.49679416 eV)
     electrostatic embedding   =       0.00000000 Ry
     cavitation energy         =       0.03781286 Ry
     electrolyte free energy   =       0.01157605 Ry
     correction to one-el term =       0.00000000 Ry

     iteration #  2     ecut=    80.00 Ry     beta= 0.20
     Davidson diagonalization with overlap

---- Real-time Memory Report at c_bands before calling an iterative solver
           846 MiB given to the printing process from OS
           237 MiB allocation reported by mallinfo(arena+hblkhd)
        167443 MiB available memory on the node where the printing process lives
------------------
     ethr =  1.00E-05,  avg # of iterations = 12.6

     negative rho (up, down):  2.433E-03 0.000E+00

     add environment contribution to local potential

     total cpu time spent up to now is      292.9 secs

     total energy              =    -661.55916705 Ry
     estimated scf accuracy    <       0.04778355 Ry

     total charge of GC-SCF    =       0.18408640 e
     the Fermi energy          =      -3.65850044 eV
                        (error :       0.24549956 eV)
     electrostatic embedding   =       0.00070548 Ry
     cavitation energy         =       0.03781286 Ry
     electrolyte free energy   =       0.01157605 Ry
     correction to one-el term =       0.00000000 Ry

     iteration #  3     ecut=    80.00 Ry     beta= 0.20
     Davidson diagonalization with overlap

---- Real-time Memory Report at c_bands before calling an iterative solver
           846 MiB given to the printing process from OS
           237 MiB allocation reported by mallinfo(arena+hblkhd)
        167422 MiB available memory on the node where the printing process lives
------------------
     ethr =  1.00E-05,  avg # of iterations = 30.7

     negative rho (up, down):  1.954E-03 0.000E+00

     add environment contribution to local potential

     total cpu time spent up to now is      350.9 secs

     total energy              =    -661.57794123 Ry
     estimated scf accuracy    <       0.02473025 Ry

     total charge of GC-SCF    =       0.27067605 e
     the Fermi energy          =      -2.95828782 eV
                        (error :       0.94571218 eV)
     electrostatic embedding   =      -0.03575479 Ry
     cavitation energy         =       0.03781286 Ry
     electrolyte free energy   =      -0.00527561 Ry
     correction to one-el term =      -6.00936110 Ry

     iteration #  4     ecut=    80.00 Ry     beta= 0.20
     Davidson diagonalization with overlap

---- Real-time Memory Report at c_bands before calling an iterative solver
           846 MiB given to the printing process from OS
           237 MiB allocation reported by mallinfo(arena+hblkhd)
        167370 MiB available memory on the node where the printing process lives
------------------
     ethr =  1.00E-05,  avg # of iterations = 11.8

     negative rho (up, down):  1.542E-03 0.000E+00

     add environment contribution to local potential

     total cpu time spent up to now is      387.9 secs

     total energy              =    -661.56222583 Ry
     estimated scf accuracy    <       0.01892761 Ry

     total charge of GC-SCF    =       0.50730599 e
     the Fermi energy          =      -3.34548238 eV
                        (error :       0.55851762 eV)
     electrostatic embedding   =      -0.03623375 Ry
     cavitation energy         =       0.03781286 Ry
     electrolyte free energy   =      -0.00767586 Ry
     correction to one-el term =      -7.49786771 Ry

     iteration #  5     ecut=    80.00 Ry     beta= 0.20
     Davidson diagonalization with overlap

---- Real-time Memory Report at c_bands before calling an iterative solver
           846 MiB given to the printing process from OS
           237 MiB allocation reported by mallinfo(arena+hblkhd)
        167372 MiB available memory on the node where the printing process lives
------------------
     ethr =  1.00E-05,  avg # of iterations = 17.9

     negative rho (up, down):  1.255E-03 0.000E+00

     add environment contribution to local potential

     total cpu time spent up to now is      428.8 secs

     total energy              =    -661.52744344 Ry
     estimated scf accuracy    <       0.00915963 Ry

     total charge of GC-SCF    =       1.01943205 e
     the Fermi energy          =      -3.15451209 eV
                        (error :       0.74948791 eV)
     electrostatic embedding   =      -0.04901888 Ry
     cavitation energy         =       0.03781286 Ry
     electrolyte free energy   =      -0.00612986 Ry
     correction to one-el term =     -13.32780524 Ry

     iteration #  6     ecut=    80.00 Ry     beta= 0.20
     Davidson diagonalization with overlap

---- Real-time Memory Report at c_bands before calling an iterative solver
           846 MiB given to the printing process from OS
           237 MiB allocation reported by mallinfo(arena+hblkhd)
        167369 MiB available memory on the node where the printing process lives
------------------
     ethr =  6.99E-06,  avg # of iterations = 22.0

     negative rho (up, down):  1.081E-03 0.000E+00

     add environment contribution to local potential

     total cpu time spent up to now is      480.3 secs

     total energy              =    -661.64385957 Ry
     estimated scf accuracy    <       0.00425490 Ry

     total charge of GC-SCF    =       1.43793096 e
     the Fermi energy          =      -2.80413669 eV
                        (error :       1.09986331 eV)
     electrostatic embedding   =      -0.13139076 Ry
     cavitation energy         =       0.03781286 Ry
     electrolyte free energy   =      -0.00460201 Ry
     correction to one-el term =     -26.30654021 Ry

     iteration #  7     ecut=    80.00 Ry     beta= 0.20
     Davidson diagonalization with overlap

---- Real-time Memory Report at c_bands before calling an iterative solver
           846 MiB given to the printing process from OS
           237 MiB allocation reported by mallinfo(arena+hblkhd)
        167321 MiB available memory on the node where the printing process lives
------------------
     ethr =  3.26E-06,  avg # of iterations = 12.9

     negative rho (up, down):  9.509E-04 0.000E+00

     add environment contribution to local potential

     total cpu time spent up to now is      518.6 secs

     total energy              =    -661.71241113 Ry
     estimated scf accuracy    <       0.00247858 Ry

     total charge of GC-SCF    =       1.56510707 e
     the Fermi energy          =      -2.87182881 eV
                        (error :       1.03217119 eV)
     electrostatic embedding   =      -0.24008147 Ry
     cavitation energy         =       0.03781286 Ry
     electrolyte free energy   =      -0.00598114 Ry
     correction to one-el term =     -37.60350420 Ry

     iteration #  8     ecut=    80.00 Ry     beta= 0.20
     Davidson diagonalization with overlap

---- Real-time Memory Report at c_bands before calling an iterative solver
           846 MiB given to the printing process from OS
           237 MiB allocation reported by mallinfo(arena+hblkhd)
        167306 MiB available memory on the node where the printing process lives
------------------
     ethr =  1.90E-06,  avg # of iterations = 13.1

     negative rho (up, down):  1.117E-03 0.000E+00

     add environment contribution to local potential

     total cpu time spent up to now is      556.5 secs

     total energy              =    -661.65006612 Ry
     estimated scf accuracy    <       0.00146969 Ry

     total charge of GC-SCF    =       2.00343611 e
     the Fermi energy          =      -2.97720293 eV
                        (error :       0.92679707 eV)
     electrostatic embedding   =      -0.27730879 Ry
     cavitation energy         =       0.03781286 Ry
     electrolyte free energy   =      -0.00699469 Ry
     correction to one-el term =     -41.42685741 Ry

     iteration #  9     ecut=    80.00 Ry     beta= 0.20
     Davidson diagonalization with overlap

---- Real-time Memory Report at c_bands before calling an iterative solver
           846 MiB given to the printing process from OS
           237 MiB allocation reported by mallinfo(arena+hblkhd)
        167296 MiB available memory on the node where the printing process lives
------------------
     ethr =  1.13E-06,  avg # of iterations = 23.9

     negative rho (up, down):  2.922E-02 0.000E+00

     add environment contribution to local potential

     total cpu time spent up to now is      608.0 secs

     total energy              =    -661.66126635 Ry
     estimated scf accuracy    <       0.00106930 Ry

     total charge of GC-SCF    =       2.69136822 e
     the Fermi energy          =      -3.05772424 eV
                        (error :       0.84627576 eV)
     electrostatic embedding   =      -0.44859010 Ry
     cavitation energy         =       0.03781286 Ry
     electrolyte free energy   =      -0.00963235 Ry
     correction to one-el term =     -55.14316103 Ry

     iteration # 10     ecut=    80.00 Ry     beta= 0.20
     Davidson diagonalization with overlap

---- Real-time Memory Report at c_bands before calling an iterative solver
           846 MiB given to the printing process from OS
           237 MiB allocation reported by mallinfo(arena+hblkhd)
        167295 MiB available memory on the node where the printing process lives
------------------
     ethr =  8.27E-07,  avg # of iterations = 31.6

     negative rho (up, down):  2.666E-02 0.000E+00

     add environment contribution to local potential

     total cpu time spent up to now is      674.0 secs

     total energy              =    -661.73550235 Ry
     estimated scf accuracy    <       0.00089045 Ry

     total charge of GC-SCF    =       3.01901931 e
     the Fermi energy          =      -3.21094756 eV
                        (error :       0.69305244 eV)
     electrostatic embedding   =      -0.81567506 Ry
     cavitation energy         =       0.03781286 Ry
     electrolyte free energy   =      -0.01511819 Ry
     correction to one-el term =     -75.50071709 Ry

     iteration # 11     ecut=    80.00 Ry     beta= 0.20
     Davidson diagonalization with overlap

---- Real-time Memory Report at c_bands before calling an iterative solver
           846 MiB given to the printing process from OS
           237 MiB allocation reported by mallinfo(arena+hblkhd)
        167287 MiB available memory on the node where the printing process lives
------------------
     ethr =  6.90E-07,  avg # of iterations = 20.9

     negative rho (up, down):  2.481E-02 0.000E+00

     add environment contribution to local potential

     total cpu time spent up to now is      727.4 secs

     total energy              =    -661.76326570 Ry
     estimated scf accuracy    <       0.00308440 Ry

     total charge of GC-SCF    =       3.09654639 e
     the Fermi energy          =      -3.18859585 eV
                        (error :       0.71540415 eV)
     electrostatic embedding   =      -1.05212275 Ry
     cavitation energy         =       0.03781286 Ry
     electrolyte free energy   =      -0.01832654 Ry
     correction to one-el term =     -86.47705781 Ry

     iteration # 12     ecut=    80.00 Ry     beta= 0.20
     Davidson diagonalization with overlap

---- Real-time Memory Report at c_bands before calling an iterative solver
           846 MiB given to the printing process from OS
           237 MiB allocation reported by mallinfo(arena+hblkhd)
        167272 MiB available memory on the node where the printing process lives
------------------
     ethr =  6.90E-07,  avg # of iterations = 16.7

     negative rho (up, down):  5.396E-03 0.000E+00

     add environment contribution to local potential

     total cpu time spent up to now is      773.0 secs

     total energy              =    -661.73185766 Ry
     estimated scf accuracy    <       0.00055006 Ry

     total charge of GC-SCF    =       3.49096385 e
     the Fermi energy          =      -3.38131252 eV
                        (error :       0.52268748 eV)
     electrostatic embedding   =      -1.10296885 Ry
     cavitation energy         =       0.03781286 Ry
     electrolyte free energy   =      -0.02037298 Ry
     correction to one-el term =     -89.02393772 Ry

     iteration # 13     ecut=    80.00 Ry     beta= 0.20
     Davidson diagonalization with overlap

---- Real-time Memory Report at c_bands before calling an iterative solver
           846 MiB given to the printing process from OS
           237 MiB allocation reported by mallinfo(arena+hblkhd)
        167266 MiB available memory on the node where the printing process lives
------------------
     ethr =  4.28E-07,  avg # of iterations = 48.8

     negative rho (up, down):  2.010E-03 0.000E+00

     add environment contribution to local potential

     total cpu time spent up to now is      856.1 secs

     total energy              =    -661.75933861 Ry
     estimated scf accuracy    <       0.00025199 Ry

     total charge of GC-SCF    =       3.67119988 e
     the Fermi energy          =      -3.64939207 eV
                        (error :       0.25460793 eV)
     electrostatic embedding   =      -1.43432485 Ry
     cavitation energy         =       0.03781286 Ry
     electrolyte free energy   =      -0.02671833 Ry
     correction to one-el term =    -102.43975016 Ry

     iteration # 14     ecut=    80.00 Ry     beta= 0.20
     Davidson diagonalization with overlap

---- Real-time Memory Report at c_bands before calling an iterative solver
           846 MiB given to the printing process from OS
           237 MiB allocation reported by mallinfo(arena+hblkhd)
        167256 MiB available memory on the node where the printing process lives
------------------
     ethr =  1.96E-07,  avg # of iterations = 32.9

     negative rho (up, down):  7.385E-04 0.000E+00

     add environment contribution to local potential

     total cpu time spent up to now is      920.9 secs

     total energy              =    -661.76398608 Ry
     estimated scf accuracy    <       0.00020042 Ry

     total charge of GC-SCF    =       3.74712232 e
     the Fermi energy          =      -3.75767560 eV
                        (error :       0.14632440 eV)
     electrostatic embedding   =      -1.60044033 Ry
     cavitation energy         =       0.03781286 Ry
     electrolyte free energy   =      -0.02966030 Ry
     correction to one-el term =    -108.36753758 Ry

     iteration # 15     ecut=    80.00 Ry     beta= 0.20
     Davidson diagonalization with overlap

---- Real-time Memory Report at c_bands before calling an iterative solver
           846 MiB given to the printing process from OS
           237 MiB allocation reported by mallinfo(arena+hblkhd)
        167260 MiB available memory on the node where the printing process lives
------------------
     ethr =  1.56E-07,  avg # of iterations = 15.5

     negative rho (up, down):  1.726E-03 0.000E+00

     add environment contribution to local potential

     total cpu time spent up to now is      967.6 secs

     total energy              =    -661.76504511 Ry
     estimated scf accuracy    <       0.00005341 Ry

     total charge of GC-SCF    =       3.79057329 e
     the Fermi energy          =      -3.86153103 eV
                        (error :       0.04246897 eV)
     electrostatic embedding   =      -1.67342100 Ry
     cavitation energy         =       0.03781286 Ry
     electrolyte free energy   =      -0.03121711 Ry
     correction to one-el term =    -111.07780340 Ry

     iteration # 16     ecut=    80.00 Ry     beta= 0.20
     Davidson diagonalization with overlap

---- Real-time Memory Report at c_bands before calling an iterative solver
           846 MiB given to the printing process from OS
           237 MiB allocation reported by mallinfo(arena+hblkhd)
        167237 MiB available memory on the node where the printing process lives
------------------
     ethr =  4.17E-08,  avg # of iterations = 15.6

     negative rho (up, down):  5.664E-04 0.000E+00

     add environment contribution to local potential

     total cpu time spent up to now is     1013.5 secs

     total energy              =    -661.76501125 Ry
     estimated scf accuracy    <       0.00002306 Ry

     total charge of GC-SCF    =       3.81045840 e
     the Fermi energy          =      -3.89292781 eV
                        (error :       0.01107219 eV)
     electrostatic embedding   =      -1.71140340 Ry
     cavitation energy         =       0.03781286 Ry
     electrolyte free energy   =      -0.03192633 Ry
     correction to one-el term =    -112.30544499 Ry

     iteration # 17     ecut=    80.00 Ry     beta= 0.20
     Davidson diagonalization with overlap

---- Real-time Memory Report at c_bands before calling an iterative solver
           846 MiB given to the printing process from OS
           237 MiB allocation reported by mallinfo(arena+hblkhd)
        167217 MiB available memory on the node where the printing process lives
------------------
     ethr =  1.80E-08,  avg # of iterations = 19.3

     negative rho (up, down):  9.057E-04 0.000E+00

     add environment contribution to local potential

     total cpu time spent up to now is     1062.1 secs

     total energy              =    -661.76432669 Ry
     estimated scf accuracy    <       0.00002615 Ry

     total charge of GC-SCF    =       3.80767204 e
     the Fermi energy          =      -3.95126628 eV
                        (error :       0.04726628 eV)
     electrostatic embedding   =      -1.73539414 Ry
     cavitation energy         =       0.03781286 Ry
     electrolyte free energy   =      -0.03245662 Ry
     correction to one-el term =    -113.29595137 Ry

     iteration # 18     ecut=    80.00 Ry     beta= 0.20
     Davidson diagonalization with overlap

---- Real-time Memory Report at c_bands before calling an iterative solver
           846 MiB given to the printing process from OS
           237 MiB allocation reported by mallinfo(arena+hblkhd)
        167231 MiB available memory on the node where the printing process lives
------------------
     ethr =  1.80E-08,  avg # of iterations = 10.0

     negative rho (up, down):  9.360E-04 0.000E+00

     add environment contribution to local potential

     total cpu time spent up to now is     1099.7 secs

     total energy              =    -661.76465134 Ry
     estimated scf accuracy    <       0.00001125 Ry

     total charge of GC-SCF    =       3.80888233 e
     the Fermi energy          =      -3.92986323 eV
                        (error :       0.02586323 eV)
     electrostatic embedding   =      -1.73063732 Ry
     cavitation energy         =       0.03781286 Ry
     electrolyte free energy   =      -0.03231785 Ry
     correction to one-el term =    -113.03643063 Ry

     iteration # 19     ecut=    80.00 Ry     beta= 0.20
     Davidson diagonalization with overlap

---- Real-time Memory Report at c_bands before calling an iterative solver
           846 MiB given to the printing process from OS
           237 MiB allocation reported by mallinfo(arena+hblkhd)
        167222 MiB available memory on the node where the printing process lives
------------------
     ethr =  8.77E-09,  avg # of iterations = 12.2

     negative rho (up, down):  6.257E-04 0.000E+00

     add environment contribution to local potential

     total cpu time spent up to now is     1136.7 secs

     total energy              =    -661.76476428 Ry
     estimated scf accuracy    <       0.00000854 Ry

     total charge of GC-SCF    =       3.77082040 e
     the Fermi energy          =      -3.92032041 eV
                        (error :       0.01632041 eV)
     electrostatic embedding   =      -1.73069332 Ry
     cavitation energy         =       0.03781286 Ry
     electrolyte free energy   =      -0.03228793 Ry
     correction to one-el term =    -112.98500193 Ry

     iteration # 20     ecut=    80.00 Ry     beta= 0.20
     Davidson diagonalization with overlap

---- Real-time Memory Report at c_bands before calling an iterative solver
           846 MiB given to the printing process from OS
           237 MiB allocation reported by mallinfo(arena+hblkhd)
        167223 MiB available memory on the node where the printing process lives
------------------
     ethr =  6.66E-09,  avg # of iterations = 21.2

     negative rho (up, down):  6.495E-04 0.000E+00

     add environment contribution to local potential

     total cpu time spent up to now is     1187.3 secs

     total energy              =    -661.76500790 Ry
     estimated scf accuracy    <       0.00000820 Ry

     total charge of GC-SCF    =       3.79413181 e
     the Fermi energy          =      -3.90392918 eV
                        (error :       0.00007082 eV)
     electrostatic embedding   =      -1.69519188 Ry
     cavitation energy         =       0.03781286 Ry
     electrolyte free energy   =      -0.03169558 Ry
     correction to one-el term =    -111.83075488 Ry

     iteration # 21     ecut=    80.00 Ry     beta= 0.20
     Davidson diagonalization with overlap

---- Real-time Memory Report at c_bands before calling an iterative solver
           846 MiB given to the printing process from OS
           237 MiB allocation reported by mallinfo(arena+hblkhd)
        167222 MiB available memory on the node where the printing process lives
------------------
     ethr =  6.39E-09,  avg # of iterations = 12.7

     negative rho (up, down):  7.362E-04 0.000E+00

     add environment contribution to local potential

     total cpu time spent up to now is     1230.4 secs

     total energy              =    -661.76506276 Ry
     estimated scf accuracy    <       0.00000702 Ry

     total charge of GC-SCF    =       3.82799787 e
     the Fermi energy          =      -3.91343156 eV
                        (error :       0.00943156 eV)
     electrostatic embedding   =      -1.71689661 Ry
     cavitation energy         =       0.03781286 Ry
     electrolyte free energy   =      -0.03205241 Ry
     correction to one-el term =    -112.53252272 Ry

     iteration # 22     ecut=    80.00 Ry     beta= 0.20
     Davidson diagonalization with overlap

---- Real-time Memory Report at c_bands before calling an iterative solver
           846 MiB given to the printing process from OS
           237 MiB allocation reported by mallinfo(arena+hblkhd)
        167219 MiB available memory on the node where the printing process lives
------------------
     ethr =  5.48E-09,  avg # of iterations = 22.8

     negative rho (up, down):  5.841E-04 0.000E+00

     add environment contribution to local potential

     total cpu time spent up to now is     1282.0 secs

     total energy              =    -661.76466710 Ry
     estimated scf accuracy    <       0.00000461 Ry

     total charge of GC-SCF    =       3.79048314 e
     the Fermi energy          =      -3.92674285 eV
                        (error :       0.02274285 eV)
     electrostatic embedding   =      -1.74835676 Ry
     cavitation energy         =       0.03781286 Ry
     electrolyte free energy   =      -0.03256996 Ry
     correction to one-el term =    -113.52617811 Ry

     iteration # 23     ecut=    80.00 Ry     beta= 0.20
     Davidson diagonalization with overlap

---- Real-time Memory Report at c_bands before calling an iterative solver
           846 MiB given to the printing process from OS
           237 MiB allocation reported by mallinfo(arena+hblkhd)
        167221 MiB available memory on the node where the printing process lives
------------------
     ethr =  3.59E-09,  avg # of iterations = 24.9

     negative rho (up, down):  5.691E-04 0.000E+00

     add environment contribution to local potential

     total cpu time spent up to now is     1337.4 secs

     total energy              =    -661.76488238 Ry
     estimated scf accuracy    <       0.00000136 Ry

     total charge of GC-SCF    =       3.78344142 e
     the Fermi energy          =      -3.90861472 eV
                        (error :       0.00461472 eV)
     electrostatic embedding   =      -1.71326512 Ry
     cavitation energy         =       0.03781286 Ry
     electrolyte free energy   =      -0.03197983 Ry
     correction to one-el term =    -112.39746156 Ry

     iteration # 24     ecut=    80.00 Ry     beta= 0.20
     Davidson diagonalization with overlap

---- Real-time Memory Report at c_bands before calling an iterative solver
           846 MiB given to the printing process from OS
           237 MiB allocation reported by mallinfo(arena+hblkhd)
        167192 MiB available memory on the node where the printing process lives
------------------
     ethr =  1.06E-09,  avg # of iterations = 14.1

     negative rho (up, down):  5.472E-04 0.000E+00

     add environment contribution to local potential

     total cpu time spent up to now is     1380.0 secs

     total energy              =    -661.76493322 Ry
     estimated scf accuracy    <       0.00000089 Ry

     total charge of GC-SCF    =       3.78527051 e
     the Fermi energy          =      -3.90355485 eV
                        (error :       0.00044515 eV)
     electrostatic embedding   =      -1.70678474 Ry
     cavitation energy         =       0.03781286 Ry
     electrolyte free energy   =      -0.03186515 Ry
     correction to one-el term =    -112.18642920 Ry

     iteration # 25     ecut=    80.00 Ry     beta= 0.20
     Davidson diagonalization with overlap

---- Real-time Memory Report at c_bands before calling an iterative solver
           846 MiB given to the printing process from OS
           237 MiB allocation reported by mallinfo(arena+hblkhd)
        167201 MiB available memory on the node where the printing process lives
------------------
     ethr =  6.96E-10,  avg # of iterations = 13.5

     negative rho (up, down):  5.593E-04 0.000E+00

     add environment contribution to local potential

     total cpu time spent up to now is     1420.6 secs

     total energy              =    -661.76493653 Ry
     estimated scf accuracy    <       0.00000018 Ry

     total charge of GC-SCF    =       3.78748426 e
     the Fermi energy          =      -3.90269614 eV
                        (error :       0.00130386 eV)
     electrostatic embedding   =      -1.70883400 Ry
     cavitation energy         =       0.03781286 Ry
     electrolyte free energy   =      -0.03189348 Ry
     correction to one-el term =    -112.25967739 Ry

     iteration # 26     ecut=    80.00 Ry     beta= 0.20
     Davidson diagonalization with overlap

---- Real-time Memory Report at c_bands before calling an iterative solver
           846 MiB given to the printing process from OS
           237 MiB allocation reported by mallinfo(arena+hblkhd)
        167202 MiB available memory on the node where the printing process lives
------------------
     ethr =  1.41E-10,  avg # of iterations = 20.0

     negative rho (up, down):  5.763E-04 0.000E+00

     add environment contribution to local potential

     total cpu time spent up to now is     1469.2 secs

     total energy              =    -661.76493319 Ry
     estimated scf accuracy    <       0.00000009 Ry

     total charge of GC-SCF    =       3.78809406 e
     the Fermi energy          =      -3.90298822 eV
                        (error :       0.00101178 eV)
     electrostatic embedding   =      -1.71071788 Ry
     cavitation energy         =       0.03781286 Ry
     electrolyte free energy   =      -0.03192373 Ry
     correction to one-el term =    -112.31654517 Ry

     iteration # 27     ecut=    80.00 Ry     beta= 0.20
     Davidson diagonalization with overlap

---- Real-time Memory Report at c_bands before calling an iterative solver
           846 MiB given to the printing process from OS
           237 MiB allocation reported by mallinfo(arena+hblkhd)
        167203 MiB available memory on the node where the printing process lives
------------------
     ethr =  6.70E-11,  avg # of iterations = 14.4

     negative rho (up, down):  5.808E-04 0.000E+00

     add environment contribution to local potential

     total cpu time spent up to now is     1512.3 secs

     total energy              =    -661.76493154 Ry
     estimated scf accuracy    <       0.00000004 Ry

     total charge of GC-SCF    =       3.78769134 e
     the Fermi energy          =      -3.90316267 eV
                        (error :       0.00083733 eV)
     electrostatic embedding   =      -1.71113603 Ry
     cavitation energy         =       0.03781286 Ry
     electrolyte free energy   =      -0.03193169 Ry
     correction to one-el term =    -112.32902917 Ry

     iteration # 28     ecut=    80.00 Ry     beta= 0.20
     Davidson diagonalization with overlap

---- Real-time Memory Report at c_bands before calling an iterative solver
           846 MiB given to the printing process from OS
           237 MiB allocation reported by mallinfo(arena+hblkhd)
        167202 MiB available memory on the node where the printing process lives
------------------
     ethr =  3.27E-11,  avg # of iterations = 15.6

     negative rho (up, down):  5.868E-04 0.000E+00

     add environment contribution to local potential

     total cpu time spent up to now is     1556.2 secs

     total energy              =    -661.76493501 Ry
     estimated scf accuracy    <       0.00000002 Ry

     total charge of GC-SCF    =       3.79046510 e
     the Fermi energy          =      -3.90284160 eV
                        (error :       0.00115840 eV)
     electrostatic embedding   =      -1.71066540 Ry
     cavitation energy         =       0.03781286 Ry
     electrolyte free energy   =      -0.03192398 Ry
     correction to one-el term =    -112.31218294 Ry

     iteration # 29     ecut=    80.00 Ry     beta= 0.20
     Davidson diagonalization with overlap

---- Real-time Memory Report at c_bands before calling an iterative solver
           846 MiB given to the printing process from OS
           237 MiB allocation reported by mallinfo(arena+hblkhd)
        167197 MiB available memory on the node where the printing process lives
------------------
     ethr =  1.59E-11,  avg # of iterations = 26.9

     negative rho (up, down):  5.819E-04 0.000E+00

     add environment contribution to local potential

     total cpu time spent up to now is     1615.9 secs

     total energy              =    -661.76492092 Ry
     estimated scf accuracy    <          8.4E-09 Ry

     total charge of GC-SCF    =       3.79104722 e
     the Fermi energy          =      -3.90417351 eV
                        (error :       0.00017351 eV)
     electrostatic embedding   =      -1.71320582 Ry
     cavitation energy         =       0.03781286 Ry
     electrolyte free energy   =      -0.03196684 Ry
     correction to one-el term =    -112.39276897 Ry

     iteration # 30     ecut=    80.00 Ry     beta= 0.20
     Davidson diagonalization with overlap

---- Real-time Memory Report at c_bands before calling an iterative solver
           846 MiB given to the printing process from OS
           237 MiB allocation reported by mallinfo(arena+hblkhd)
        167187 MiB available memory on the node where the printing process lives
------------------
     ethr =  6.52E-12,  avg # of iterations = 11.9

     negative rho (up, down):  5.740E-04 0.000E+00

     add environment contribution to local potential

     total cpu time spent up to now is     1656.1 secs

     total energy              =    -661.76491718 Ry
     estimated scf accuracy    <          5.5E-09 Ry

     total charge of GC-SCF    =       3.79166874 e
     the Fermi energy          =      -3.90450759 eV
                        (error :       0.00050759 eV)
     electrostatic embedding   =      -1.71378897 Ry
     cavitation energy         =       0.03781286 Ry
     electrolyte free energy   =      -0.03197655 Ry
     correction to one-el term =    -112.41221640 Ry

     iteration # 31     ecut=    80.00 Ry     beta= 0.20
     Davidson diagonalization with overlap

---- Real-time Memory Report at c_bands before calling an iterative solver
           846 MiB given to the printing process from OS
           237 MiB allocation reported by mallinfo(arena+hblkhd)
        167182 MiB available memory on the node where the printing process lives
------------------
     ethr =  4.29E-12,  avg # of iterations = 12.6

     negative rho (up, down):  5.680E-04 0.000E+00

     add environment contribution to local potential

     total cpu time spent up to now is     1698.1 secs

     total energy              =    -661.76491349 Ry
     estimated scf accuracy    <          3.8E-09 Ry

     total charge of GC-SCF    =       3.79111764 e
     the Fermi energy          =      -3.90479194 eV
                        (error :       0.00079194 eV)
     electrostatic embedding   =      -1.71443088 Ry
     cavitation energy         =       0.03781286 Ry
     electrolyte free energy   =      -0.03198686 Ry
     correction to one-el term =    -112.43360318 Ry

     iteration # 32     ecut=    80.00 Ry     beta= 0.20
     Davidson diagonalization with overlap

---- Real-time Memory Report at c_bands before calling an iterative solver
           846 MiB given to the printing process from OS
           237 MiB allocation reported by mallinfo(arena+hblkhd)
        167156 MiB available memory on the node where the printing process lives
------------------
     ethr =  2.96E-12,  avg # of iterations = 16.2

     negative rho (up, down):  5.628E-04 0.000E+00

     add environment contribution to local potential

     total cpu time spent up to now is     1742.7 secs

     total energy              =    -661.76491584 Ry
     estimated scf accuracy    <          2.5E-09 Ry

     total charge of GC-SCF    =       3.79012794 e
     the Fermi energy          =      -3.90456623 eV
                        (error :       0.00056623 eV)
     electrostatic embedding   =      -1.71394037 Ry
     cavitation energy         =       0.03781286 Ry
     electrolyte free energy   =      -0.03197858 Ry
     correction to one-el term =    -112.41816525 Ry

     iteration # 33     ecut=    80.00 Ry     beta= 0.20
     Davidson diagonalization with overlap

---- Real-time Memory Report at c_bands before calling an iterative solver
           846 MiB given to the printing process from OS
           237 MiB allocation reported by mallinfo(arena+hblkhd)
        167185 MiB available memory on the node where the printing process lives
------------------
     ethr =  1.96E-12,  avg # of iterations = 25.9

     negative rho (up, down):  5.609E-04 0.000E+00

     add environment contribution to local potential

     total cpu time spent up to now is     1799.9 secs

     total energy              =    -661.76492092 Ry
     estimated scf accuracy    <          1.5E-09 Ry

     total charge of GC-SCF    =       3.79011235 e
     the Fermi energy          =      -3.90409510 eV
                        (error :       0.00009510 eV)
     electrostatic embedding   =      -1.71302137 Ry
     cavitation energy         =       0.03781286 Ry
     electrolyte free energy   =      -0.03196309 Ry
     correction to one-el term =    -112.38854185 Ry

     iteration # 34     ecut=    80.00 Ry     beta= 0.20
     Davidson diagonalization with overlap

---- Real-time Memory Report at c_bands before calling an iterative solver
           846 MiB given to the printing process from OS
           237 MiB allocation reported by mallinfo(arena+hblkhd)
        167182 MiB available memory on the node where the printing process lives
------------------
     ethr =  1.17E-12,  avg # of iterations = 13.1

     negative rho (up, down):  5.621E-04 0.000E+00

     add environment contribution to local potential

     total cpu time spent up to now is     1837.2 secs

     total energy              =    -661.76492123 Ry
     estimated scf accuracy    <          6.7E-10 Ry

     total charge of GC-SCF    =       3.78997489 e
     the Fermi energy          =      -3.90407442 eV
                        (error :       0.00007442 eV)
     electrostatic embedding   =      -1.71300643 Ry
     cavitation energy         =       0.03781286 Ry
     electrolyte free energy   =      -0.03196277 Ry
     correction to one-el term =    -112.38793619 Ry

     iteration # 35     ecut=    80.00 Ry     beta= 0.20
     Davidson diagonalization with overlap

---- Real-time Memory Report at c_bands before calling an iterative solver
           846 MiB given to the printing process from OS
           237 MiB allocation reported by mallinfo(arena+hblkhd)
        167181 MiB available memory on the node where the printing process lives
------------------
     ethr =  5.22E-13,  avg # of iterations = 12.6

     negative rho (up, down):  5.630E-04 0.000E+00

     add environment contribution to local potential

     total cpu time spent up to now is     1877.6 secs

     total energy              =    -661.76492258 Ry
     estimated scf accuracy    <          2.3E-10 Ry

     total charge of GC-SCF    =       3.79012313 e
     the Fermi energy          =      -3.90395912 eV
                        (error :       0.00004088 eV)
     electrostatic embedding   =      -1.71285815 Ry
     cavitation energy         =       0.03781286 Ry
     electrolyte free energy   =      -0.03196024 Ry
     correction to one-el term =    -112.38279150 Ry

     iteration # 36     ecut=    80.00 Ry     beta= 0.20
     Davidson diagonalization with overlap

---- Real-time Memory Report at c_bands before calling an iterative solver
           846 MiB given to the printing process from OS
           237 MiB allocation reported by mallinfo(arena+hblkhd)
        167180 MiB available memory on the node where the printing process lives
------------------
     ethr =  1.80E-13,  avg # of iterations = 26.2

     negative rho (up, down):  5.634E-04 0.000E+00

     add environment contribution to local potential

     total cpu time spent up to now is     1931.9 secs

     total energy              =    -661.76492173 Ry
     estimated scf accuracy    <          1.3E-10 Ry

     total charge of GC-SCF    =       3.79019088 e
     the Fermi energy          =      -3.90404729 eV
                        (error :       0.00004729 eV)
     electrostatic embedding   =      -1.71299146 Ry
     cavitation energy         =       0.03781286 Ry
     electrolyte free energy   =      -0.03196256 Ry
     correction to one-el term =    -112.38704154 Ry

     iteration # 37     ecut=    80.00 Ry     beta= 0.20
     Davidson diagonalization with overlap

---- Real-time Memory Report at c_bands before calling an iterative solver
           846 MiB given to the printing process from OS
           237 MiB allocation reported by mallinfo(arena+hblkhd)
        167183 MiB available memory on the node where the printing process lives
------------------
     ethr =  1.00E-13,  avg # of iterations = 14.3

     negative rho (up, down):  5.640E-04 0.000E+00

     add environment contribution to local potential

     total cpu time spent up to now is     1974.3 secs

     total energy              =    -661.76492118 Ry
     estimated scf accuracy    <          6.8E-11 Ry

     total charge of GC-SCF    =       3.79003868 e
     the Fermi energy          =      -3.90410181 eV
                        (error :       0.00010181 eV)
     electrostatic embedding   =      -1.71305434 Ry
     cavitation energy         =       0.03781286 Ry
     electrolyte free energy   =      -0.03196370 Ry
     correction to one-el term =    -112.38911694 Ry

     iteration # 38     ecut=    80.00 Ry     beta= 0.20
     Davidson diagonalization with overlap

---- Real-time Memory Report at c_bands before calling an iterative solver
           846 MiB given to the printing process from OS
           237 MiB allocation reported by mallinfo(arena+hblkhd)
        167156 MiB available memory on the node where the printing process lives
------------------
     ethr =  1.00E-13,  avg # of iterations = 21.4

     negative rho (up, down):  5.640E-04 0.000E+00

     add environment contribution to local potential

     total cpu time spent up to now is     2027.0 secs

     total energy              =    -661.76492189 Ry
     estimated scf accuracy    <          2.0E-11 Ry

     total charge of GC-SCF    =       3.79003213 e
     the Fermi energy          =      -3.90403593 eV
                        (error :       0.00003593 eV)
     electrostatic embedding   =      -1.71290798 Ry
     cavitation energy         =       0.03781286 Ry
     electrolyte free energy   =      -0.03196131 Ry
     correction to one-el term =    -112.38440234 Ry

     iteration # 39     ecut=    80.00 Ry     beta= 0.20
     Davidson diagonalization with overlap

---- Real-time Memory Report at c_bands before calling an iterative solver
           846 MiB given to the printing process from OS
           237 MiB allocation reported by mallinfo(arena+hblkhd)
        167159 MiB available memory on the node where the printing process lives
------------------
     ethr =  1.00E-13,  avg # of iterations =  9.6

     negative rho (up, down):  5.642E-04 0.000E+00

     add environment contribution to local potential

     total cpu time spent up to now is     2058.5 secs

     total energy              =    -661.76492192 Ry
     estimated scf accuracy    <          1.2E-11 Ry

     total charge of GC-SCF    =       3.78999300 e
     the Fermi energy          =      -3.90402985 eV
                        (error :       0.00002985 eV)
     electrostatic embedding   =      -1.71290157 Ry
     cavitation energy         =       0.03781286 Ry
     electrolyte free energy   =      -0.03196120 Ry
     correction to one-el term =    -112.38419136 Ry

     iteration # 40     ecut=    80.00 Ry     beta= 0.20
     Davidson diagonalization with overlap

---- Real-time Memory Report at c_bands before calling an iterative solver
           846 MiB given to the printing process from OS
           237 MiB allocation reported by mallinfo(arena+hblkhd)
        167154 MiB available memory on the node where the printing process lives
------------------
     ethr =  1.00E-13,  avg # of iterations = 10.8

     negative rho (up, down):  5.640E-04 0.000E+00

     add environment contribution to local potential

     total cpu time spent up to now is     2093.9 secs

     total energy              =    -661.76492214 Ry
     estimated scf accuracy    <          3.8E-12 Ry

     total charge of GC-SCF    =       3.78999554 e
     the Fermi energy          =      -3.90400905 eV
                        (error :       0.00000905 eV)
     electrostatic embedding   =      -1.71286315 Ry
     cavitation energy         =       0.03781286 Ry
     electrolyte free energy   =      -0.03196056 Ry
     correction to one-el term =    -112.38290738 Ry

     iteration # 41     ecut=    80.00 Ry     beta= 0.20
     Davidson diagonalization with overlap

---- Real-time Memory Report at c_bands before calling an iterative solver
           846 MiB given to the printing process from OS
           237 MiB allocation reported by mallinfo(arena+hblkhd)
        167146 MiB available memory on the node where the printing process lives
------------------
     ethr =  1.00E-13,  avg # of iterations =  3.6

     negative rho (up, down):  5.636E-04 0.000E+00

     add environment contribution to local potential

     total cpu time spent up to now is     2121.8 secs

     total energy              =    -661.76492212 Ry
     estimated scf accuracy    <          2.0E-12 Ry

     total charge of GC-SCF    =       3.78998952 e
     the Fermi energy          =      -3.90401113 eV
                        (error :       0.00001113 eV)
     electrostatic embedding   =      -1.71286567 Ry
     cavitation energy         =       0.03781286 Ry
     electrolyte free energy   =      -0.03196060 Ry
     correction to one-el term =    -112.38298537 Ry

     iteration # 42     ecut=    80.00 Ry     beta= 0.20
     Davidson diagonalization with overlap

---- Real-time Memory Report at c_bands before calling an iterative solver
           846 MiB given to the printing process from OS
           237 MiB allocation reported by mallinfo(arena+hblkhd)
        167153 MiB available memory on the node where the printing process lives
------------------
     ethr =  1.00E-13,  avg # of iterations = 10.3

     negative rho (up, down):  5.634E-04 0.000E+00

     add environment contribution to local potential

     total cpu time spent up to now is     2154.4 secs

     total energy              =    -661.76492215 Ry
     estimated scf accuracy    <          7.9E-13 Ry

     total charge of GC-SCF    =       3.78998064 e
     the Fermi energy          =      -3.90400750 eV
                        (error :       0.00000750 eV)
     electrostatic embedding   =      -1.71286131 Ry
     cavitation energy         =       0.03781286 Ry
     electrolyte free energy   =      -0.03196051 Ry
     correction to one-el term =    -112.38285449 Ry

     iteration # 43     ecut=    80.00 Ry     beta= 0.20
     Davidson diagonalization with overlap

---- Real-time Memory Report at c_bands before calling an iterative solver
           846 MiB given to the printing process from OS
           237 MiB allocation reported by mallinfo(arena+hblkhd)
        167151 MiB available memory on the node where the printing process lives
------------------
     ethr =  1.00E-13,  avg # of iterations =  6.4

     negative rho (up, down):  5.633E-04 0.000E+00

     add environment contribution to local potential

     total cpu time spent up to now is     2182.6 secs

     total energy              =    -661.76492220 Ry
     estimated scf accuracy    <          4.6E-13 Ry

     total charge of GC-SCF    =       3.78997640 e
     the Fermi energy          =      -3.90400306 eV
                        (error :       0.00000306 eV)
     electrostatic embedding   =      -1.71285315 Ry
     cavitation energy         =       0.03781286 Ry
     electrolyte free energy   =      -0.03196037 Ry
     correction to one-el term =    -112.38259194 Ry

     iteration # 44     ecut=    80.00 Ry     beta= 0.20
     Davidson diagonalization with overlap

---- Real-time Memory Report at c_bands before calling an iterative solver
           846 MiB given to the printing process from OS
           237 MiB allocation reported by mallinfo(arena+hblkhd)
        167149 MiB available memory on the node where the printing process lives
------------------
     ethr =  1.00E-13,  avg # of iterations =  8.6

     negative rho (up, down):  5.632E-04 0.000E+00

     add environment contribution to local potential

     total cpu time spent up to now is     2213.0 secs

     total energy              =    -661.76492222 Ry
     estimated scf accuracy    <          2.3E-13 Ry

     total charge of GC-SCF    =       3.78997371 e
     the Fermi energy          =      -3.90400034 eV
                        (error :       0.00000034 eV)
     electrostatic embedding   =      -1.71284978 Ry
     cavitation energy         =       0.03781286 Ry
     electrolyte free energy   =      -0.03196031 Ry
     correction to one-el term =    -112.38249140 Ry

     iteration # 45     ecut=    80.00 Ry     beta= 0.20
     Davidson diagonalization with overlap

---- Real-time Memory Report at c_bands before calling an iterative solver
           846 MiB given to the printing process from OS
           237 MiB allocation reported by mallinfo(arena+hblkhd)
        167154 MiB available memory on the node where the printing process lives
------------------
     ethr =  1.00E-13,  avg # of iterations =  2.3

     negative rho (up, down):  5.631E-04 0.000E+00

     add environment contribution to local potential

     total cpu time spent up to now is     2238.8 secs

     total energy              =    -661.76492224 Ry
     estimated scf accuracy    <          6.3E-14 Ry

     total charge of GC-SCF    =       3.78997486 e
     the Fermi energy          =      -3.90399900 eV
                        (error :       0.00000100 eV)
     electrostatic embedding   =      -1.71284738 Ry
     cavitation energy         =       0.03781286 Ry
     electrolyte free energy   =      -0.03196027 Ry
     correction to one-el term =    -112.38241549 Ry

     iteration # 46     ecut=    80.00 Ry     beta= 0.20
     Davidson diagonalization with overlap

---- Real-time Memory Report at c_bands before calling an iterative solver
           846 MiB given to the printing process from OS
           237 MiB allocation reported by mallinfo(arena+hblkhd)
        167149 MiB available memory on the node where the printing process lives
------------------
     ethr =  1.00E-13,  avg # of iterations =  1.4

     negative rho (up, down):  5.631E-04 0.000E+00

     add environment contribution to local potential

     total cpu time spent up to now is     2263.5 secs

     total energy              =    -661.76492223 Ry
     estimated scf accuracy    <          3.9E-14 Ry

     total charge of GC-SCF    =       3.78997549 e
     the Fermi energy          =      -3.90399947 eV
                        (error :       0.00000053 eV)
     electrostatic embedding   =      -1.71284839 Ry
     cavitation energy         =       0.03781286 Ry
     electrolyte free energy   =      -0.03196029 Ry
     correction to one-el term =    -112.38244738 Ry

     iteration # 47     ecut=    80.00 Ry     beta= 0.20
     Davidson diagonalization with overlap

---- Real-time Memory Report at c_bands before calling an iterative solver
           846 MiB given to the printing process from OS
           237 MiB allocation reported by mallinfo(arena+hblkhd)
        167146 MiB available memory on the node where the printing process lives
------------------
     ethr =  1.00E-13,  avg # of iterations =  2.4

     negative rho (up, down):  5.631E-04 0.000E+00

     add environment contribution to local potential

     total cpu time spent up to now is     2289.1 secs

     total energy              =    -661.76492223 Ry
     estimated scf accuracy    <          2.8E-14 Ry

     total charge of GC-SCF    =       3.78997551 e
     the Fermi energy          =      -3.90399979 eV
                        (error :       0.00000021 eV)
     electrostatic embedding   =      -1.71284893 Ry
     cavitation energy         =       0.03781286 Ry
     electrolyte free energy   =      -0.03196030 Ry
     correction to one-el term =    -112.38246419 Ry

     iteration # 48     ecut=    80.00 Ry     beta= 0.20
     Davidson diagonalization with overlap

---- Real-time Memory Report at c_bands before calling an iterative solver
           846 MiB given to the printing process from OS
           237 MiB allocation reported by mallinfo(arena+hblkhd)
        167147 MiB available memory on the node where the printing process lives
------------------
     ethr =  1.00E-13,  avg # of iterations =  3.0

     negative rho (up, down):  5.631E-04 0.000E+00

     add environment contribution to local potential

     total cpu time spent up to now is     2314.2 secs

     total energy              =    -661.76492223 Ry
     estimated scf accuracy    <          1.7E-14 Ry

     total charge of GC-SCF    =       3.78997484 e
     the Fermi energy          =      -3.90399988 eV
                        (error :       0.00000012 eV)
     electrostatic embedding   =      -1.71284885 Ry
     cavitation energy         =       0.03781286 Ry
     electrolyte free energy   =      -0.03196030 Ry
     correction to one-el term =    -112.38246090 Ry

     iteration # 49     ecut=    80.00 Ry     beta= 0.20
     Davidson diagonalization with overlap

---- Real-time Memory Report at c_bands before calling an iterative solver
           846 MiB given to the printing process from OS
           237 MiB allocation reported by mallinfo(arena+hblkhd)
        167142 MiB available memory on the node where the printing process lives
------------------
     ethr =  1.00E-13,  avg # of iterations =  3.5

     negative rho (up, down):  5.630E-04 0.000E+00

     total cpu time spent up to now is     2327.3 secs

     End of self-consistent calculation

          k = 0.0000 0.0000 0.0000 (325085 PWs)   bands (ev):

   -52.0275 -52.0275 -52.0275 -52.0275 -51.8866 -51.8865 -51.8865 -51.8865
   -50.9639 -50.9639 -50.9639 -50.9638 -50.8981 -50.8981 -50.8981 -50.8981
   -50.6915 -50.6915 -50.6915 -50.6915 -50.4905 -50.4896 -50.4894 -50.4894
   -50.4761 -50.4759 -50.4755 -50.4755 -50.4670 -50.4660 -50.4632 -50.4622
   -50.4621 -50.4606 -50.4588 -50.4573 -50.4329 -50.4319 -50.4301 -50.4294
   -50.3952 -50.3951 -50.3948 -50.3948  -7.2742  -6.7500  -5.9805  -5.9577
    -5.9015  -5.5438  -5.5263  -5.4559  -5.4416  -5.0951  -5.0848  -5.0582
    -4.9681  -4.8115  -4.6857  -4.6322  -4.5539  -4.5340  -4.2520  -3.9942
    -3.8651  -3.8418  -3.6339  -3.5849  -3.5654  -3.5118  -3.2833  -3.1561
    -3.0088  -3.0018  -2.8440  -2.7812  -2.7589  -2.7122  -2.4962  -2.2025
    -2.1891  -2.1667  -2.0374  -1.9092  -1.7284  -1.5157  -1.2848  -1.2791
    -1.1452  -1.0291  -0.9983  -0.8834  -0.8361  -0.6622  -0.6271  -0.5956
    -0.5398  -0.4449  -0.4150

     occupation numbers 
     1.0000   1.0000   1.0000   1.0000   1.0000   1.0000   1.0000   1.0000
     1.0000   1.0000   1.0000   1.0000   1.0000   1.0000   1.0000   1.0000
     1.0000   1.0000   1.0000   1.0000   1.0000   1.0000   1.0000   1.0000
     1.0000   1.0000   1.0000   1.0000   1.0000   1.0000   1.0000   1.0000
     1.0000   1.0000   1.0000   1.0000   1.0000   1.0000   1.0000   1.0000
     1.0000   1.0000   1.0000   1.0000   1.0000   1.0000   1.0000   1.0000
     1.0000   1.0000   1.0000   1.0000   1.0000   1.0000   1.0000   1.0000
     1.0000   1.0000   1.0000   1.0000   1.0000   1.0000   1.0086   0.8734
     0.2288   0.1528   0.0004   0.0000   0.0000   0.0000   0.0000   0.0000
     0.0000   0.0000   0.0000   0.0000   0.0000   0.0000   0.0000   0.0000
     0.0000   0.0000   0.0000   0.0000   0.0000   0.0000   0.0000   0.0000
     0.0000   0.0000   0.0000   0.0000   0.0000   0.0000   0.0000   0.0000
     0.0000   0.0000   0.0000

          k = 0.0000 0.1508 0.0000 (324993 PWs)   bands (ev):

   -52.0275 -52.0275 -52.0275 -52.0275 -51.8866 -51.8865 -51.8865 -51.8865
   -50.9639 -50.9639 -50.9639 -50.9638 -50.8981 -50.8981 -50.8981 -50.8981
   -50.6915 -50.6915 -50.6915 -50.6915 -50.4904 -50.4896 -50.4894 -50.4894
   -50.4761 -50.4759 -50.4755 -50.4754 -50.4669 -50.4660 -50.4632 -50.4630
   -50.4613 -50.4606 -50.4588 -50.4574 -50.4329 -50.4319 -50.4301 -50.4294
   -50.3952 -50.3951 -50.3948 -50.3948  -7.2470  -6.7227  -6.0532  -5.9474
    -5.8663  -5.8302  -5.5317  -5.4116  -5.3882  -5.3111  -5.0806  -4.8840
    -4.8058  -4.7545  -4.6803  -4.5852  -4.4999  -4.4968  -4.2502  -4.0863
    -3.9515  -3.7221  -3.6842  -3.5688  -3.5379  -3.4678  -3.3769  -3.1778
    -3.1268  -3.0516  -2.9084  -2.6178  -2.6048  -2.4868  -2.4356  -2.3723
    -2.2204  -2.1474  -2.1363  -1.7931  -1.6328  -1.3949  -1.3460  -1.2865
    -1.2729  -1.1136  -1.0391  -1.0001  -0.7477  -0.7348  -0.6748  -0.6608
    -0.6558  -0.6022  -0.4614

     occupation numbers 
     1.0000   1.0000   1.0000   1.0000   1.0000   1.0000   1.0000   1.0000
     1.0000   1.0000   1.0000   1.0000   1.0000   1.0000   1.0000   1.0000
     1.0000   1.0000   1.0000   1.0000   1.0000   1.0000   1.0000   1.0000
     1.0000   1.0000   1.0000   1.0000   1.0000   1.0000   1.0000   1.0000
     1.0000   1.0000   1.0000   1.0000   1.0000   1.0000   1.0000   1.0000
     1.0000   1.0000   1.0000   1.0000   1.0000   1.0000   1.0000   1.0000
     1.0000   1.0000   1.0000   1.0000   1.0000   1.0000   1.0000   1.0000
     1.0000   1.0000   1.0000   1.0000   1.0000   1.0000   1.0090   1.0819
     0.6571   0.0080   0.0023   0.0000   0.0000   0.0000   0.0000   0.0000
     0.0000   0.0000   0.0000   0.0000   0.0000   0.0000   0.0000   0.0000
     0.0000   0.0000   0.0000   0.0000   0.0000   0.0000   0.0000   0.0000
     0.0000   0.0000   0.0000   0.0000   0.0000   0.0000   0.0000   0.0000
     0.0000   0.0000   0.0000

          k = 0.0000 0.3015 0.0000 (324886 PWs)   bands (ev):

   -52.0275 -52.0275 -52.0275 -52.0275 -51.8866 -51.8865 -51.8865 -51.8865
   -50.9639 -50.9639 -50.9639 -50.9638 -50.8981 -50.8981 -50.8981 -50.8981
   -50.6915 -50.6915 -50.6915 -50.6915 -50.4903 -50.4896 -50.4895 -50.4894
   -50.4762 -50.4760 -50.4755 -50.4754 -50.4667 -50.4660 -50.4638 -50.4632
   -50.4606 -50.4606 -50.4588 -50.4576 -50.4329 -50.4319 -50.4301 -50.4294
   -50.3952 -50.3951 -50.3948 -50.3948  -7.1655  -6.6408  -6.2949  -6.0808
    -5.7952  -5.7541  -5.6560  -5.6201  -5.5538  -5.1562  -5.0850  -4.9096
    -4.7255  -4.7022  -4.5660  -4.3711  -4.3478  -4.3403  -4.2751  -4.0844
    -3.9770  -3.8523  -3.7546  -3.6473  -3.4402  -3.3284  -3.2268  -3.2246
    -3.1723  -3.0372  -3.0312  -2.5516  -2.5508  -2.4966  -2.3450  -2.3151
    -2.2811  -2.0933  -2.0702  -1.7426  -1.5183  -1.4570  -1.4507  -1.4110
    -1.3772  -1.1600  -1.1545  -1.0906  -0.9709  -0.7297  -0.6808  -0.6601
    -0.5754  -0.4809  -0.3179

     occupation numbers 
     1.0000   1.0000   1.0000   1.0000   1.0000   1.0000   1.0000   1.0000
     1.0000   1.0000   1.0000   1.0000   1.0000   1.0000   1.0000   1.0000
     1.0000   1.0000   1.0000   1.0000   1.0000   1.0000   1.0000   1.0000
     1.0000   1.0000   1.0000   1.0000   1.0000   1.0000   1.0000   1.0000
     1.0000   1.0000   1.0000   1.0000   1.0000   1.0000   1.0000   1.0000
     1.0000   1.0000   1.0000   1.0000   1.0000   1.0000   1.0000   1.0000
     1.0000   1.0000   1.0000   1.0000   1.0000   1.0000   1.0000   1.0000
     1.0000   1.0000   1.0000   1.0002   1.0004   1.0006   1.0046   1.0813
[...]
     atom    9 type  1   force =    -0.00031920    0.00754869   -6.08558930
     atom   10 type  1   force =     0.00056684   -0.07979399   -8.29352136
     atom   11 type  1   force =    -0.00032411   -0.11536676   -9.85021107
     atom   12 type  1   force =    -0.00056816    0.07981287    8.29349611
     atom   13 type  1   force =     0.00031922   -0.00752016    6.08560979
     atom   14 type  1   force =     0.00005174   -0.04211962    3.04781816
     atom   15 type  1   force =    -0.00017429    0.03618277    0.43393325
     atom   16 type  1   force =     0.00023235    0.01793918   -2.06291077
     atom   17 type  1   force =    -0.00039054   -0.06006170   -4.08130195
     atom   18 type  1   force =     0.00025506    0.00543262   -6.60756646
     atom   19 type  1   force =     0.00012243    0.15922163   -9.32952745
     atom   20 type  1   force =    -0.00024896    0.05318061  -11.62338174
     atom   21 type  1   force =    -0.00009783    0.02141533   11.99405053
     atom   22 type  1   force =     0.00032538    0.11535618    9.85017259
     atom   23 type  1   force =     0.00009773   -0.02142747  -11.99405229
     atom   24 type  1   force =     0.00024899   -0.05316224   11.62338655
     atom   25 type  1   force =    -0.00012274   -0.15922818    9.32955513
     atom   26 type  1   force =    -0.00025601   -0.00546205    6.60759061
     atom   27 type  1   force =     0.00039122    0.06005033    4.08126336
     atom   28 type  1   force =    -0.00023244   -0.01791852    2.06289290
     atom   29 type  1   force =     0.00017341   -0.03618977   -0.43391646
     atom   30 type  1   force =    -0.00005058    0.04211012   -3.04779225
     atom   31 type  1   force =    -0.00031919    0.00754868   -6.08558852
     atom   32 type  1   force =     0.00056688   -0.07979386   -8.29352040
     atom   33 type  1   force =    -0.00032391   -0.11536689   -9.85021142
     atom   34 type  1   force =    -0.00056775    0.07981275    8.29349598
     atom   35 type  1   force =     0.00031930   -0.00752038    6.08560975
     atom   36 type  1   force =     0.00005187   -0.04211967    3.04781874
     atom   37 type  1   force =    -0.00017404    0.03618256    0.43393316
     atom   38 type  1   force =     0.00023235    0.01793985   -2.06290996
     atom   39 type  1   force =    -0.00039000   -0.06006165   -4.08130176
     atom   40 type  1   force =     0.00025539    0.00543256   -6.60756715
     atom   41 type  1   force =     0.00012266    0.15922184   -9.32952677
     atom   42 type  1   force =    -0.00024879    0.05318081  -11.62338166
     atom   43 type  1   force =    -0.00009800    0.02141520   11.99405062
     atom   44 type  1   force =     0.00032527    0.11535618    9.85017417
     The local contribution  to forces
     atom    1 type  1   force =    -0.00014849    0.02674997   12.07387058
     atom    2 type  1   force =    -0.00028430    0.06060440  -11.73381027
     atom    3 type  1   force =     0.00015093    0.17564582   -9.44105454
     atom    4 type  1   force =     0.00027469    0.00859335   -6.64510597
     atom    5 type  1   force =    -0.00043256   -0.06445848   -4.12106701
     atom    6 type  1   force =     0.00026689    0.01965268   -2.07984884
     atom    7 type  1   force =    -0.00021928    0.04026984    0.44066802
     atom    8 type  1   force =     0.00001190   -0.04448397    3.06967552
     atom    9 type  1   force =     0.00040778   -0.00580873    6.13197953
     atom   10 type  1   force =    -0.00066030    0.07792595    8.38948658
     atom   11 type  1   force =     0.00045148    0.13313599    9.97146591
     atom   12 type  1   force =     0.00066163   -0.07794590   -8.38946197
     atom   13 type  1   force =    -0.00040780    0.00578011   -6.13200233
     atom   14 type  1   force =    -0.00001266    0.04449434   -3.06970348
     atom   15 type  1   force =     0.00022029   -0.04026277   -0.44068852
     atom   16 type  1   force =    -0.00026612   -0.01967407    2.07986343
     atom   17 type  1   force =     0.00043187    0.06447007    4.12110455
     atom   18 type  1   force =    -0.00027393   -0.00856363    6.64507963
     atom   19 type  1   force =    -0.00015054   -0.17563874    9.44102420
     atom   20 type  1   force =     0.00028420   -0.06062422   11.73380562
     atom   21 type  1   force =     0.00014862   -0.02673680  -12.07386869
     atom   22 type  1   force =    -0.00045266   -0.13312511   -9.97142719
     atom   23 type  1   force =    -0.00014856    0.02675001   12.07387045
     atom   24 type  1   force =    -0.00028427    0.06060421  -11.73381037
     atom   25 type  1   force =     0.00015085    0.17564563   -9.44105545
     atom   26 type  1   force =     0.00027489    0.00859338   -6.64510568
     atom   27 type  1   force =    -0.00043260   -0.06445891   -4.12106769
     atom   28 type  1   force =     0.00026616    0.01965284   -2.07984809
     atom   29 type  1   force =    -0.00021941    0.04027021    0.44066897
     atom   30 type  1   force =     0.00001156   -0.04448386    3.06967519
     atom   31 type  1   force =     0.00040777   -0.00580874    6.13197873
     atom   32 type  1   force =    -0.00066034    0.07792582    8.38948561
     atom   33 type  1   force =     0.00045125    0.13313615    9.97146629
     atom   34 type  1   force =     0.00066122   -0.07794577   -8.38946183
     atom   35 type  1   force =    -0.00040788    0.00578033   -6.13200228
     atom   36 type  1   force =    -0.00001282    0.04449439   -3.06970408
     atom   37 type  1   force =     0.00022003   -0.04026257   -0.44068842
     atom   38 type  1   force =    -0.00026613   -0.01967474    2.07986261
     atom   39 type  1   force =     0.00043132    0.06447003    4.12110436
     atom   40 type  1   force =    -0.00027426   -0.00856356    6.64508033
     atom   41 type  1   force =    -0.00015077   -0.17563894    9.44102351
     atom   42 type  1   force =     0.00028401   -0.06062442   11.73380557
     atom   43 type  1   force =     0.00014880   -0.02673666  -12.07386876
     atom   44 type  1   force =    -0.00045252   -0.13312509   -9.97142885
     The core correction contribution to forces
     atom    1 type  1   force =     0.00000000    0.00000000    0.00000000
     atom    2 type  1   force =     0.00000000    0.00000000    0.00000000
     atom    3 type  1   force =     0.00000000    0.00000000    0.00000000
     atom    4 type  1   force =     0.00000000    0.00000000    0.00000000
     atom    5 type  1   force =     0.00000000    0.00000000    0.00000000
     atom    6 type  1   force =     0.00000000    0.00000000    0.00000000
     atom    7 type  1   force =     0.00000000    0.00000000    0.00000000
     atom    8 type  1   force =     0.00000000    0.00000000    0.00000000
     atom    9 type  1   force =     0.00000000    0.00000000    0.00000000
     atom   10 type  1   force =     0.00000000    0.00000000    0.00000000
     atom   11 type  1   force =     0.00000000    0.00000000    0.00000000
     atom   12 type  1   force =     0.00000000    0.00000000    0.00000000
     atom   13 type  1   force =     0.00000000    0.00000000    0.00000000
     atom   14 type  1   force =     0.00000000    0.00000000    0.00000000
     atom   15 type  1   force =     0.00000000    0.00000000    0.00000000
     atom   16 type  1   force =     0.00000000    0.00000000    0.00000000
     atom   17 type  1   force =     0.00000000    0.00000000    0.00000000
     atom   18 type  1   force =     0.00000000    0.00000000    0.00000000
     atom   19 type  1   force =     0.00000000    0.00000000    0.00000000
     atom   20 type  1   force =     0.00000000    0.00000000    0.00000000
     atom   21 type  1   force =     0.00000000    0.00000000    0.00000000
     atom   22 type  1   force =     0.00000000    0.00000000    0.00000000
     atom   23 type  1   force =     0.00000000    0.00000000    0.00000000
     atom   24 type  1   force =     0.00000000    0.00000000    0.00000000
     atom   25 type  1   force =     0.00000000    0.00000000    0.00000000
     atom   26 type  1   force =     0.00000000    0.00000000    0.00000000
     atom   27 type  1   force =     0.00000000    0.00000000    0.00000000
     atom   28 type  1   force =     0.00000000    0.00000000    0.00000000
     atom   29 type  1   force =     0.00000000    0.00000000    0.00000000
     atom   30 type  1   force =     0.00000000    0.00000000    0.00000000
     atom   31 type  1   force =     0.00000000    0.00000000    0.00000000
     atom   32 type  1   force =     0.00000000    0.00000000    0.00000000
     atom   33 type  1   force =     0.00000000    0.00000000    0.00000000
     atom   34 type  1   force =     0.00000000    0.00000000    0.00000000
     atom   35 type  1   force =     0.00000000    0.00000000    0.00000000
     atom   36 type  1   force =     0.00000000    0.00000000    0.00000000
     atom   37 type  1   force =     0.00000000    0.00000000    0.00000000
     atom   38 type  1   force =     0.00000000    0.00000000    0.00000000
     atom   39 type  1   force =     0.00000000    0.00000000    0.00000000
     atom   40 type  1   force =     0.00000000    0.00000000    0.00000000
     atom   41 type  1   force =     0.00000000    0.00000000    0.00000000
     atom   42 type  1   force =     0.00000000    0.00000000    0.00000000
     atom   43 type  1   force =     0.00000000    0.00000000    0.00000000
     atom   44 type  1   force =     0.00000000    0.00000000    0.00000000
     The Hubbard contrib.    to forces
     atom    1 type  1   force =     0.00000000    0.00000000    0.00000000
     atom    2 type  1   force =     0.00000000    0.00000000    0.00000000
     atom    3 type  1   force =     0.00000000    0.00000000    0.00000000
     atom    4 type  1   force =     0.00000000    0.00000000    0.00000000
     atom    5 type  1   force =     0.00000000    0.00000000    0.00000000
     atom    6 type  1   force =     0.00000000    0.00000000    0.00000000
     atom    7 type  1   force =     0.00000000    0.00000000    0.00000000
     atom    8 type  1   force =     0.00000000    0.00000000    0.00000000
     atom    9 type  1   force =     0.00000000    0.00000000    0.00000000
     atom   10 type  1   force =     0.00000000    0.00000000    0.00000000
     atom   11 type  1   force =     0.00000000    0.00000000    0.00000000
     atom   12 type  1   force =     0.00000000    0.00000000    0.00000000
     atom   13 type  1   force =     0.00000000    0.00000000    0.00000000
     atom   14 type  1   force =     0.00000000    0.00000000    0.00000000
     atom   15 type  1   force =     0.00000000    0.00000000    0.00000000
     atom   16 type  1   force =     0.00000000    0.00000000    0.00000000
     atom   17 type  1   force =     0.00000000    0.00000000    0.00000000
     atom   18 type  1   force =     0.00000000    0.00000000    0.00000000
     atom   19 type  1   force =     0.00000000    0.00000000    0.00000000
     atom   20 type  1   force =     0.00000000    0.00000000    0.00000000
     atom   21 type  1   force =     0.00000000    0.00000000    0.00000000
     atom   22 type  1   force =     0.00000000    0.00000000    0.00000000
     atom   23 type  1   force =     0.00000000    0.00000000    0.00000000
     atom   24 type  1   force =     0.00000000    0.00000000    0.00000000
     atom   25 type  1   force =     0.00000000    0.00000000    0.00000000
     atom   26 type  1   force =     0.00000000    0.00000000    0.00000000
     atom   27 type  1   force =     0.00000000    0.00000000    0.00000000
     atom   28 type  1   force =     0.00000000    0.00000000    0.00000000
     atom   29 type  1   force =     0.00000000    0.00000000    0.00000000
     atom   30 type  1   force =     0.00000000    0.00000000    0.00000000
     atom   31 type  1   force =     0.00000000    0.00000000    0.00000000
     atom   32 type  1   force =     0.00000000    0.00000000    0.00000000
     atom   33 type  1   force =     0.00000000    0.00000000    0.00000000
     atom   34 type  1   force =     0.00000000    0.00000000    0.00000000
     atom   35 type  1   force =     0.00000000    0.00000000    0.00000000
     atom   36 type  1   force =     0.00000000    0.00000000    0.00000000
     atom   37 type  1   force =     0.00000000    0.00000000    0.00000000
     atom   38 type  1   force =     0.00000000    0.00000000    0.00000000
     atom   39 type  1   force =     0.00000000    0.00000000    0.00000000
     atom   40 type  1   force =     0.00000000    0.00000000    0.00000000
     atom   41 type  1   force =     0.00000000    0.00000000    0.00000000
     atom   42 type  1   force =     0.00000000    0.00000000    0.00000000
     atom   43 type  1   force =     0.00000000    0.00000000    0.00000000
     atom   44 type  1   force =     0.00000000    0.00000000    0.00000000
     The SCF correction term to forces
     atom    1 type  1   force =     0.00000001    0.00000000   -0.00000001
     atom    2 type  1   force =     0.00000000   -0.00000001   -0.00000001
     atom    3 type  1   force =     0.00000000   -0.00000000    0.00000002
     atom    4 type  1   force =    -0.00000000    0.00000000   -0.00000002
     atom    5 type  1   force =    -0.00000000   -0.00000001   -0.00000002
     atom    6 type  1   force =    -0.00000000    0.00000000   -0.00000000
     atom    7 type  1   force =    -0.00000000    0.00000001   -0.00000000
     atom    8 type  1   force =     0.00000000   -0.00000001    0.00000003
     atom    9 type  1   force =     0.00000000   -0.00000000    0.00000002
     atom   10 type  1   force =     0.00000000   -0.00000000   -0.00000001
     atom   11 type  1   force =    -0.00000000   -0.00000001   -0.00000001
     atom   12 type  1   force =     0.00000000    0.00000000    0.00000002
     atom   13 type  1   force =    -0.00000000   -0.00000000   -0.00000002
     atom   14 type  1   force =     0.00000000    0.00000001   -0.00000003
     atom   15 type  1   force =    -0.00000000   -0.00000002    0.00000001
     atom   16 type  1   force =    -0.00000000   -0.00000000    0.00000001
     atom   17 type  1   force =     0.00000000    0.00000002    0.00000003
     atom   18 type  1   force =     0.00000000   -0.00000000    0.00000003
     atom   19 type  1   force =    -0.00000001    0.00000000   -0.00000001
     atom   20 type  1   force =     0.00000000   -0.00000000   -0.00000000
     atom   21 type  1   force =    -0.00000001    0.00000000   -0.00000001
     atom   22 type  1   force =    -0.00000001    0.00000000    0.00000004
     atom   23 type  1   force =     0.00000001    0.00000000   -0.00000001
     atom   24 type  1   force =     0.00000000   -0.00000001   -0.00000001
     atom   25 type  1   force =     0.00000000   -0.00000000    0.00000003
     atom   26 type  1   force =     0.00000000    0.00000000   -0.00000002
     atom   27 type  1   force =    -0.00000000   -0.00000001   -0.00000002
     atom   28 type  1   force =    -0.00000000    0.00000000   -0.00000000
     atom   29 type  1   force =    -0.00000000    0.00000001   -0.00000000
     atom   30 type  1   force =     0.00000000   -0.00000001    0.00000003
     atom   31 type  1   force =     0.00000000   -0.00000000    0.00000002
     atom   32 type  1   force =     0.00000000   -0.00000000   -0.00000002
     atom   33 type  1   force =    -0.00000000   -0.00000001   -0.00000001
     atom   34 type  1   force =     0.00000000    0.00000000    0.00000002
     atom   35 type  1   force =    -0.00000000   -0.00000000   -0.00000002
     atom   36 type  1   force =    -0.00000000    0.00000001   -0.00000002
     atom   37 type  1   force =     0.00000000   -0.00000002    0.00000001
     atom   38 type  1   force =    -0.00000000   -0.00000000    0.00000001
     atom   39 type  1   force =    -0.00000000    0.00000002    0.00000003
     atom   40 type  1   force =     0.00000000   -0.00000000    0.00000003
     atom   41 type  1   force =    -0.00000001    0.00000000   -0.00000001
     atom   42 type  1   force =     0.00000000   -0.00000000   -0.00000001
     atom   43 type  1   force =    -0.00000000    0.00000000   -0.00000001
     atom   44 type  1   force =    -0.00000001    0.00000000    0.00000003

     Total force =     0.001107     Total SCF correction =     0.000000

     Writing all to output data dir ./Li/Lithium.save/ :
     XML data file
     init_run     :     17.18s CPU     17.92s WALL (       1 calls)
     electrons    :   2296.20s CPU   2308.21s WALL (       1 calls)
     forces       :     70.26s CPU     70.47s WALL (       1 calls)

     Called by init_run:
     wfcinit      :      4.53s CPU      4.60s WALL (       1 calls)
     wfcinit:wfcr :      4.34s CPU      4.39s WALL (      15 calls)
     potinit      :      0.32s CPU      0.33s WALL (       1 calls)
     hinit0       :      6.26s CPU      6.79s WALL (       1 calls)

     Called by electrons:
     c_bands      :   1589.23s CPU   1597.75s WALL (      49 calls)
     sum_band     :     99.62s CPU    100.22s WALL (      49 calls)
     v_of_rho     :      6.14s CPU      6.19s WALL (      50 calls)
     v_h          :      0.59s CPU      0.59s WALL (      50 calls)
     v_xc         :      5.55s CPU      5.60s WALL (      50 calls)
     newd         :      1.92s CPU      1.94s WALL (      50 calls)
     PAW_pot      :      1.19s CPU      1.21s WALL (      50 calls)
     mix_rho      :     16.29s CPU     16.40s WALL (      49 calls)

     Called by c_bands:
     init_us_2    :     10.06s CPU     10.10s WALL (    1500 calls)
     cegterg      :   1435.43s CPU   1443.35s WALL (    1006 calls)

     Called by sum_band:
     sum_band:wei :      0.29s CPU      0.29s WALL (      49 calls)
     sum_band:loo :     97.02s CPU     97.58s WALL (      49 calls)
     sum_band:buf :      0.87s CPU      0.92s WALL (     735 calls)
     sum_band:ini :      5.01s CPU      5.03s WALL (     735 calls)
     sum_band:cal :     14.36s CPU     14.42s WALL (     735 calls)
     sum_band:bec :      0.28s CPU      0.28s WALL (     735 calls)
     addusdens    :      1.43s CPU      1.46s WALL (      49 calls)
                                        0.00s GPU  (      49 calls)
     addusd:skk   :      0.33s CPU      0.34s WALL (      49 calls)
                                        0.00s GPU  (      49 calls)

     Called by *egterg:
     cdiaghg      :    313.82s CPU    315.68s WALL (   14095 calls)
     cegterg:over :    106.54s CPU    107.15s WALL (   13165 calls)
     cegterg:upda :     59.56s CPU     59.82s WALL (   13165 calls)
     cegterg:last :     23.77s CPU     23.85s WALL (    1393 calls)
     h_psi        :    841.62s CPU    846.47s WALL (   14186 calls)
     s_psi        :     58.20s CPU     58.44s WALL (   14186 calls)
     g_psi        :      1.68s CPU      1.69s WALL (   13165 calls)

     Called by h_psi:
     h_psi:calbec :     88.07s CPU     88.58s WALL (   14186 calls)
     vloc_psi     :    690.61s CPU    694.70s WALL (   14186 calls)
                                        0.00s GPU  (   14186 calls)
     add_vuspsi   :     59.04s CPU     59.29s WALL (   14186 calls)

     General routines
     calbec       :    103.60s CPU    104.19s WALL (   14981 calls)
     fft          :      6.34s CPU      6.38s WALL (     650 calls)
     ffts         :      8.63s CPU      8.67s WALL (    6003 calls)
     fftw         :    727.89s CPU    732.16s WALL (  798893 calls)
     interpolate  :      0.49s CPU      0.49s WALL (      50 calls)
 
     Parallel routines

     PAW routines
     PAW_pot      :      1.19s CPU      1.21s WALL (      50 calls)
 
     Environ routines
 
     PWSCF        :  39m45.16s CPU  39m58.32s WALL

 
   This run was terminated on:   9: 2:11   6Jan2025            

=------------------------------------------------------------------------------=
   JOB DONE.
=------------------------------------------------------------------------------=
