
     Program PWSCF v.7.4 starts on  3Jan2025 at  5: 7:40 

     This program is part of the open-source Quantum ESPRESSO suite
     for quantum simulation of materials; please cite
         "P. Giannozzi et al., J. Phys.:Condens. Matter 21 395502 (2009);
         "P. Giannozzi et al., J. Phys.:Condens. Matter 29 465901 (2017);
         "P. Giannozzi et al., J. Chem. Phys. 152 154105 (2020);
          URL http://www.quantum-espresso.org", 
     in publications or presentations arising from this work. More details at
     http://www.quantum-espresso.org/quote

     Parallel version (MPI & OpenMP), running on     512 processor cores
     Number of MPI processes:               512
     Threads/MPI process:                     1

     MPI processes distributed on     4 nodes
     232145 MiB available memory on the printing compute node when the environment starts

     Reading input from espresso.pwi
Warning: card &CELL ignored
Warning: card    PRESS_CONV_THR   = 0.1 ignored
Warning: card    CELL_DOFREE      = 'ALL' ignored
Warning: card / ignored
Warning: card &FCP ignored
Warning: card / ignored
Warning: card &RISM ignored
Warning: card / ignored

     Current dimensions of program PWSCF are:
     Max number of different atomic species (ntypx) = 10
     Max number of k-points (npk) =  40000
     Max angular momentum in pseudopotentials (lmaxx) =  4

     IMPORTANT: XC functional enforced from input :
     Exchange-correlation= PBE
                           (   1   4   3   4   0   0   0)
     Any further DFT definition will be discarded
     Please, verify this is what you really want


     Reading input from environ.in:
     * using ionic solvent mode
     * setting boundary derivatives method to SSCS default
     * setting electrolyte-boundary derivatives method to SSCS default

Environ Warning (1001): card EOF ignored

     

     K-points division:     npool     =       2
     R & G space division:  proc/nbgrp/npool/nimage =     256
     Subspace diagonalization in iterative solution of the eigenvalue problem:
     a serial algorithm will be used


     Parallelization info
     --------------------
     sticks:   dense  smooth     PW     G-vecs:    dense   smooth      PW
     Min          49      19      5                30863     7773    1061
     Max          50      20      6                30904     7852    1116
     Sum       12597    5037   1349              7904519  1999739  278317

     Using Slab Decomposition



     bravais-lattice index     =            8
     lattice parameter (alat)  =      18.3607  a.u.
     unit-cell volume          =   20684.8735 (a.u.)^3
     number of atoms/cell      =           44
     number of atomic types    =            1
     number of electrons       =       132.00
     number of Kohn-Sham states=           99
     kinetic-energy cutoff     =      80.0000  Ry
     charge density cutoff     =     800.0000  Ry
     scf convergence threshold =      1.0E-14
     mixing beta               =       0.2000
     number of iterations used =            8  local-TF  mixing
     Exchange-correlation= PBE
                           (   1   4   3   4   0   0   0)

     ================================================================================

                                  Environ Setup Summary

     ================================================================================

     Please cite

          O. Andreussi, I. Dabo and N. Marzari, J. Chem. Phys. 136, 064102 (2012)
          F. Nattino, M. Truscott, N. Marzari, and O. Andreussi, J. Chem. Phys. 150, 041722 (2019)

     in publications or presentations arising from this work.

     ================================================================================

     Parameters
     ==========

     compensation onset threshold      =               0.1000E+00
     static permittivity               =                    89.90
     surface tension in input (dyn/cm) =                    37.30
     surface tension in internal units =               0.4792E-04

     Solvent Boundary
     ================

     solvent mode                      =                    ionic
     derivatives method                =                   lowmem
     electrolyte derivatives method    =                   lowmem
     numerical core for derivatives    =                      fft
     switching function adopted        =                     SCCS
     density limit for vacuum region   =               0.5000E-02
     density limit for bulk solvent    =               0.1000E-03
     soft-sphere radius mode           =                    bondi
     soft-sphere softness              =                     0.50
     alpha                             =                     1.32

     Electrostatic Setup
     ===================

     electrostatic problem to solve    =                    modpb
     numerical solver adopted          =                   newton
     type of auxiliary density adopted =                     none
     numerical core for poisson        =                      fft
     adopting a nested solver scheme
     inner solver                      =                       cg
     inner core                        =                      fft
     type of pbc corrections           =                parabolic
     numerical core for corrections    =                      1da

     ================================================================================


     >>>>> Grand-Canonical SCF is activated <<<<<
     Initial Total Charge  =     0.000000 e
     Target Fermi Energy   =    -2.904000 eV
     Thr. of Fermi Energy  =     0.001000 eV
     Wave-shift of Kerker  =     0.400000 bohr^-1
     Wave-shift of Hartree =     1.500000 bohr^-1
     Mixing Rate of Fermi  =     0.050000

     celldm(1)=  18.360747  celldm(2)=   0.586302  celldm(3)=   5.699811
     celldm(4)=   0.000000  celldm(5)=   0.000000  celldm(6)=   0.000000

     crystal axes: (cart. coord. in units of alat)
               a(1) = (   1.000000   0.000000   0.000000 )  
               a(2) = (   0.000000   0.586302   0.000000 )  
               a(3) = (   0.000000   0.000000   5.699811 )  

     reciprocal axes: (cart. coord. in units 2 pi/alat)
               b(1) = (  1.000000  0.000000  0.000000 )  
               b(2) = (  0.000000  1.705606  0.000000 )  
               b(3) = (  0.000000  0.000000  0.175444 )  


     PseudoPot. # 1 for Li read from file:
     /work/e89/e89/ba3g18/Repos/Pseudopotentials/Pslibrary/Li.pbe-sl-kjpaw_psl.1.0.0.UPF
     MD5 check sum: 3f4d2cafebb47c6c3aa8ed472e6f074d
     Pseudo is Projector augmented-wave, Zval =  3.0
     Generated using 'atomic' code by A. Dal Corso  v.7.4
     Shape of augmentation charge: PSQ
     Using radial grid of 1017 points,  4 beta functions with: 
                l(1) =   0
                l(2) =   0
                l(3) =   1
                l(4) =   1
     Q(r) pseudized with 0 coefficients 


     atomic species   valence    mass     pseudopotential
     Li                3.00     6.94000     Li( 1.00)

      2 Sym. Ops. (no inversion) found


                                    s                        frac. trans.

      isym =  1     identity                                     

 cryst.   s( 1) = (     1          0          0      )
                  (     0          1          0      )
                  (     0          0          1      )

 cart.    s( 1) = (  1.0000000  0.0000000  0.0000000 )
                  (  0.0000000  1.0000000  0.0000000 )
                  (  0.0000000  0.0000000  1.0000000 )


      isym =  2     inv. 180 deg rotation - cart. axis [1,0,0]   

 cryst.   s( 2) = (    -1          0          0      )
                  (     0          1          0      )
                  (     0          0          1      )

 cart.    s( 2) = ( -1.0000000  0.0000000  0.0000000 )
                  (  0.0000000  1.0000000  0.0000000 )
                  (  0.0000000  0.0000000  1.0000000 )


     point group C_s (m)    
     there are  2 classes
     the character table:

       E     s    
A'     1.00  1.00
A''    1.00 -1.00

     the symmetry operations in each class and the name of the first element:

     E        1
          identity                                               
     s        2
          inv. 180 deg rotation - cart. axis [1,0,0]             

   Cartesian axes

     site n.     atom                  positions (alat units)
         1        Li     tau(   1) = (   0.5000000   0.5618724   3.6507372  )
         2        Li     tau(   2) = (   0.2499936   0.4507442   2.0490878  )
         3        Li     tau(   3) = (   0.2500015   0.1052602   2.2448329  )
         4        Li     tau(   4) = (   0.5000000   0.2252523   2.1126330  )
         5        Li     tau(   5) = (  -0.0000000   0.5103250   2.2559235  )
         6        Li     tau(   6) = (   0.5000000   0.1954453   2.4247784  )
         7        Li     tau(   7) = (   0.2500023   0.3234104   2.6569176  )
         8        Li     tau(   8) = (   0.2499992   0.5872216   2.8351222  )
         9        Li     tau(   9) = (   0.2500015   0.3788434   2.3503586  )
        10        Li     tau(  10) = (   0.2499985   0.0476525   2.5362266  )
        11        Li     tau(  11) = (  -0.0000000   0.4699670   2.5632914  )
        12        Li     tau(  12) = (   0.5000000   0.1498795   2.7345249  )
        13        Li     tau(  13) = (   0.5000000   0.4254853   2.8646647  )
        14        Li     tau(  14) = (   0.5000000   0.1029886   3.0428934  )
        15        Li     tau(  15) = (   0.2499967   0.5427349   3.1365276  )
        16        Li     tau(  16) = (   0.2500004   0.2309547   3.2750291  )
        17        Li     tau(  17) = (   0.2500022   0.2765192   2.9652846  )
        18        Li     tau(  18) = (  -0.0000000   0.3787443   3.1636120  )
        19        Li     tau(  19) = (   0.5000000   0.0475613   3.3494621  )
        20        Li     tau(  20) = (   0.5000000   0.3211676   3.4549041  )
        21        Li     tau(  21) = (   0.2499812   0.5023788   3.4438921  )
        22        Li     tau(  22) = (   0.2500852   0.2011526   3.5871733  )
        23        Li     tau(  23) = (   1.0000000   0.5620440   3.6507028  )
        24        Li     tau(  24) = (   0.7500064   0.4507442   2.0490878  )
        25        Li     tau(  25) = (   0.7499985   0.1052602   2.2448329  )
        26        Li     tau(  26) = (   1.0000000   0.2252477   2.1126364  )
        27        Li     tau(  27) = (   0.5000000   0.5103250   2.2559080  )
        28        Li     tau(  28) = (   1.0000000   0.1954494   2.4247787  )
        29        Li     tau(  29) = (   0.7499977   0.3234104   2.6569176  )
        30        Li     tau(  30) = (   0.7500008   0.5872216   2.8351222  )
        31        Li     tau(  31) = (   0.7499985   0.3788434   2.3503586  )
        32        Li     tau(  32) = (   0.7500015   0.0476525   2.5362266  )
        33        Li     tau(  33) = (   0.5000000   0.4699701   2.5632692  )
        34        Li     tau(  34) = (   1.0000000   0.1498848   2.7345216  )
        35        Li     tau(  35) = (   1.0000000   0.4254778   2.8647058  )
        36        Li     tau(  36) = (   1.0000000   0.1029929   3.0428864  )
        37        Li     tau(  37) = (   0.7500033   0.5427349   3.1365276  )
        38        Li     tau(  38) = (   0.7499996   0.2309547   3.2750291  )
        39        Li     tau(  39) = (   0.7499978   0.2765192   2.9652846  )
        40        Li     tau(  40) = (   0.5000000   0.3787534   3.1635492  )
        41        Li     tau(  41) = (   1.0000000   0.0475542   3.3494358  )
        42        Li     tau(  42) = (   1.0000000   0.3211147   3.4550445  )
        43        Li     tau(  43) = (   0.7500188   0.5023788   3.4438921  )
        44        Li     tau(  44) = (   0.7499148   0.2011526   3.5871733  )

   Crystallographic axes

     site n.     atom                  positions (cryst. coord.)
         1        Li     tau(   1) = (  0.5000000  0.9583328  0.6405015  )
         2        Li     tau(   2) = (  0.2499936  0.7687919  0.3595010  )
         3        Li     tau(   3) = (  0.2500015  0.1795324  0.3938434  )
         4        Li     tau(   4) = (  0.5000000  0.3841916  0.3706497  )
         5        Li     tau(   5) = (  0.0000000  0.8704132  0.3957892  )
         6        Li     tau(   6) = (  0.5000000  0.3333527  0.4254138  )
         7        Li     tau(   7) = (  0.2500023  0.5516106  0.4661414  )
         8        Li     tau(   8) = (  0.2499992  1.0015685  0.4974064  )
         9        Li     tau(   9) = (  0.2500015  0.6461575  0.4123573  )
        10        Li     tau(  10) = (  0.2499985  0.0812764  0.4449668  )
        11        Li     tau(  11) = (  0.0000000  0.8015784  0.4497152  )
        12        Li     tau(  12) = (  0.5000000  0.2556353  0.4797571  )
        13        Li     tau(  13) = (  0.5000000  0.7257101  0.5025894  )
        14        Li     tau(  14) = (  0.5000000  0.1756579  0.5338587  )
        15        Li     tau(  15) = (  0.2499967  0.9256917  0.5502862  )
        16        Li     tau(  16) = (  0.2500004  0.3939177  0.5745856  )
        17        Li     tau(  17) = (  0.2500022  0.4716326  0.5202426  )
        18        Li     tau(  18) = (  0.0000000  0.6459885  0.5550381  )
        19        Li     tau(  19) = (  0.5000000  0.0811208  0.5876444  )
        20        Li     tau(  20) = (  0.5000000  0.5477852  0.6061436  )
        21        Li     tau(  21) = (  0.2499812  0.8568601  0.6042116  )
        22        Li     tau(  22) = (  0.2500852  0.3430870  0.6293495  )
        23        Li     tau(  23) = (  1.0000000  0.9586254  0.6404954  )
        24        Li     tau(  24) = (  0.7500064  0.7687919  0.3595010  )
        25        Li     tau(  25) = (  0.7499985  0.1795324  0.3938434  )
        26        Li     tau(  26) = (  1.0000000  0.3841838  0.3706503  )
        27        Li     tau(  27) = (  0.5000000  0.8704132  0.3957864  )
        28        Li     tau(  28) = (  1.0000000  0.3333596  0.4254139  )
        29        Li     tau(  29) = (  0.7499977  0.5516106  0.4661414  )
        30        Li     tau(  30) = (  0.7500008  1.0015685  0.4974064  )
        31        Li     tau(  31) = (  0.7499985  0.6461575  0.4123573  )
        32        Li     tau(  32) = (  0.7500015  0.0812764  0.4449668  )
        33        Li     tau(  33) = (  0.5000000  0.8015836  0.4497113  )
        34        Li     tau(  34) = (  1.0000000  0.2556443  0.4797565  )
        35        Li     tau(  35) = (  1.0000000  0.7256974  0.5025966  )
        36        Li     tau(  36) = (  1.0000000  0.1756653  0.5338574  )
        37        Li     tau(  37) = (  0.7500033  0.9256917  0.5502862  )
        38        Li     tau(  38) = (  0.7499996  0.3939177  0.5745856  )
        39        Li     tau(  39) = (  0.7499978  0.4716326  0.5202426  )
        40        Li     tau(  40) = (  0.5000000  0.6460039  0.5550270  )
        41        Li     tau(  41) = (  1.0000000  0.0811087  0.5876398  )
        42        Li     tau(  42) = (  1.0000000  0.5476950  0.6061683  )
        43        Li     tau(  43) = (  0.7500188  0.8568601  0.6042116  )
        44        Li     tau(  44) = (  0.7499148  0.3430870  0.6293495  )

     number of k points=    28  Marzari-Vanderbilt smearing, width (Ry)=  0.0100
                       cart. coord. in units 2pi/alat
        k(    1) = (   0.0000000   0.0000000   0.0000000), wk =   0.0238095
        k(    2) = (   0.0000000   0.1421338   0.0000000), wk =   0.0476190
        k(    3) = (   0.0000000   0.2842676   0.0000000), wk =   0.0476190
        k(    4) = (   0.0000000   0.4264014   0.0000000), wk =   0.0476190
        k(    5) = (   0.0000000   0.5685352   0.0000000), wk =   0.0476190
        k(    6) = (   0.0000000   0.7106690   0.0000000), wk =   0.0476190
        k(    7) = (   0.0000000  -0.8528028   0.0000000), wk =   0.0238095
        k(    8) = (   0.1428571   0.0000000   0.0000000), wk =   0.0476190
        k(    9) = (   0.1428571   0.1421338   0.0000000), wk =   0.0952381
        k(   10) = (   0.1428571   0.2842676   0.0000000), wk =   0.0952381
        k(   11) = (   0.1428571   0.4264014   0.0000000), wk =   0.0952381
        k(   12) = (   0.1428571   0.5685352   0.0000000), wk =   0.0952381
        k(   13) = (   0.1428571   0.7106690   0.0000000), wk =   0.0952381
        k(   14) = (   0.1428571  -0.8528028   0.0000000), wk =   0.0476190
        k(   15) = (   0.2857143   0.0000000   0.0000000), wk =   0.0476190
        k(   16) = (   0.2857143   0.1421338   0.0000000), wk =   0.0952381
        k(   17) = (   0.2857143   0.2842676   0.0000000), wk =   0.0952381
        k(   18) = (   0.2857143   0.4264014   0.0000000), wk =   0.0952381
        k(   19) = (   0.2857143   0.5685352   0.0000000), wk =   0.0952381
        k(   20) = (   0.2857143   0.7106690   0.0000000), wk =   0.0952381
        k(   21) = (   0.2857143  -0.8528028   0.0000000), wk =   0.0476190
        k(   22) = (   0.4285714   0.0000000   0.0000000), wk =   0.0476190
        k(   23) = (   0.4285714   0.1421338   0.0000000), wk =   0.0952381
        k(   24) = (   0.4285714   0.2842676   0.0000000), wk =   0.0952381
        k(   25) = (   0.4285714   0.4264014   0.0000000), wk =   0.0952381
        k(   26) = (   0.4285714   0.5685352   0.0000000), wk =   0.0952381
        k(   27) = (   0.4285714   0.7106690   0.0000000), wk =   0.0952381
        k(   28) = (   0.4285714  -0.8528028   0.0000000), wk =   0.0476190

                       cryst. coord.
        k(    1) = (   0.0000000   0.0000000   0.0000000), wk =   0.0238095
        k(    2) = (   0.0000000   0.0833333   0.0000000), wk =   0.0476190
        k(    3) = (   0.0000000   0.1666667   0.0000000), wk =   0.0476190
        k(    4) = (   0.0000000   0.2500000   0.0000000), wk =   0.0476190
        k(    5) = (   0.0000000   0.3333333   0.0000000), wk =   0.0476190
        k(    6) = (   0.0000000   0.4166667   0.0000000), wk =   0.0476190
        k(    7) = (   0.0000000  -0.5000000   0.0000000), wk =   0.0238095
        k(    8) = (   0.1428571   0.0000000   0.0000000), wk =   0.0476190
        k(    9) = (   0.1428571   0.0833333   0.0000000), wk =   0.0952381
        k(   10) = (   0.1428571   0.1666667   0.0000000), wk =   0.0952381
        k(   11) = (   0.1428571   0.2500000   0.0000000), wk =   0.0952381
        k(   12) = (   0.1428571   0.3333333   0.0000000), wk =   0.0952381
        k(   13) = (   0.1428571   0.4166667   0.0000000), wk =   0.0952381
        k(   14) = (   0.1428571  -0.5000000   0.0000000), wk =   0.0476190
        k(   15) = (   0.2857143   0.0000000   0.0000000), wk =   0.0476190
        k(   16) = (   0.2857143   0.0833333   0.0000000), wk =   0.0952381
        k(   17) = (   0.2857143   0.1666667   0.0000000), wk =   0.0952381
        k(   18) = (   0.2857143   0.2500000   0.0000000), wk =   0.0952381
        k(   19) = (   0.2857143   0.3333333   0.0000000), wk =   0.0952381
        k(   20) = (   0.2857143   0.4166667   0.0000000), wk =   0.0952381
        k(   21) = (   0.2857143  -0.5000000   0.0000000), wk =   0.0476190
        k(   22) = (   0.4285714   0.0000000   0.0000000), wk =   0.0476190
        k(   23) = (   0.4285714   0.0833333   0.0000000), wk =   0.0952381
        k(   24) = (   0.4285714   0.1666667   0.0000000), wk =   0.0952381
        k(   25) = (   0.4285714   0.2500000   0.0000000), wk =   0.0952381
        k(   26) = (   0.4285714   0.3333333   0.0000000), wk =   0.0952381
        k(   27) = (   0.4285714   0.4166667   0.0000000), wk =   0.0952381
        k(   28) = (   0.4285714  -0.5000000   0.0000000), wk =   0.0476190

     Dense  grid:  7904519 G-vectors     FFT dimensions: ( 180, 100, 960)

     Smooth grid:  1999739 G-vectors     FFT dimensions: ( 108,  64, 600)

     Dynamical RAM for                 wfc:       1.47 MB

     Dynamical RAM for     wfc (w. buffer):      22.12 MB

     Dynamical RAM for           str. fact:       0.47 MB

     Dynamical RAM for           local pot:       0.00 MB

     Dynamical RAM for          nlocal pot:       5.24 MB

     Dynamical RAM for                qrad:       0.65 MB

     Dynamical RAM for          rho,v,vnew:       3.06 MB

     Dynamical RAM for               rhoin:       1.02 MB

     Dynamical RAM for            rho*nmix:       7.54 MB

     Dynamical RAM for           G-vectors:       1.83 MB

     Dynamical RAM for          h,s,v(r/c):       7.18 MB

     Dynamical RAM for          <psi|beta>:       0.53 MB

     Dynamical RAM for                 psi:       5.90 MB

     Dynamical RAM for                hpsi:       5.90 MB

     Dynamical RAM for                spsi:       5.90 MB

     Dynamical RAM for      wfcinit/wfcrot:       3.17 MB

     Dynamical RAM for           addusdens:      20.73 MB

     Dynamical RAM for          addusforce:      41.02 MB

     Estimated static dynamical RAM per process >      38.07 MB

     Estimated max dynamical RAM per process >     120.61 MB

     Estimated total dynamical RAM >      41.43 GB

     Initial potential from superposition of free atoms

     starting charge     131.7972, renormalised to     132.0000

     negative rho (up, down):  3.395E-03 0.000E+00
     Starting wfcs are random
     Checking if some PAW data can be deallocated... 

     total cpu time spent up to now is       27.6 secs

     Self-consistent Calculation

     iteration #  1     ecut=    80.00 Ry     beta= 0.20
     Davidson diagonalization with overlap

---- Real-time Memory Report at c_bands before calling an iterative solver
           540 MiB given to the printing process from OS
             0 MiB allocation reported by mallinfo(arena+hblkhd)
        217152 MiB available memory on the node where the printing process lives
------------------
     c_bands:  1 eigenvalues not converged
     c_bands:  1 eigenvalues not converged
     c_bands:  1 eigenvalues not converged
     ethr =  1.00E-12,  avg # of iterations =112.1

     negative rho (up, down):  2.538E-03 0.000E+00

     total cpu time spent up to now is      270.0 secs

     total energy              =    -661.39653905 Ry
     estimated scf accuracy    <       0.11238324 Ry

     total charge of GC-SCF    =       0.00617287 e
     the Fermi energy          =      -4.12604679 eV
                        (error :       1.22204679 eV)
     electrostatic embedding   =       0.00000000 Ry
     cavitation energy         =       0.02464122 Ry
     electrolyte free energy   =       0.00890302 Ry
     correction to one-el term =      -0.00000000 Ry

     iteration #  2     ecut=    80.00 Ry     beta= 0.20
     Davidson diagonalization with overlap

---- Real-time Memory Report at c_bands before calling an iterative solver
           540 MiB given to the printing process from OS
             0 MiB allocation reported by mallinfo(arena+hblkhd)
        215711 MiB available memory on the node where the printing process lives
------------------
     ethr =  1.00E-05,  avg # of iterations = 12.7

     negative rho (up, down):  2.036E-03 0.000E+00

     add environment contribution to local potential

     total cpu time spent up to now is      302.9 secs

     total energy              =    -661.71090443 Ry
     estimated scf accuracy    <       0.08764900 Ry

     total charge of GC-SCF    =       0.02033859 e
     the Fermi energy          =      -2.85167865 eV
                        (error :       0.05232135 eV)
     electrostatic embedding   =       0.00006188 Ry
     cavitation energy         =       0.02464122 Ry
     electrolyte free energy   =       0.00890302 Ry
     correction to one-el term =      -0.00000000 Ry

     iteration #  3     ecut=    80.00 Ry     beta= 0.20
     Davidson diagonalization with overlap

---- Real-time Memory Report at c_bands before calling an iterative solver
           540 MiB given to the printing process from OS
             0 MiB allocation reported by mallinfo(arena+hblkhd)
        215518 MiB available memory on the node where the printing process lives
------------------
     ethr =  1.00E-05,  avg # of iterations = 30.7

     negative rho (up, down):  1.643E-03 0.000E+00

     add environment contribution to local potential

     total cpu time spent up to now is      358.6 secs

     total energy              =    -661.58488983 Ry
     estimated scf accuracy    <       0.04874363 Ry

     total charge of GC-SCF    =      -0.00836425 e
     the Fermi energy          =      -3.01978712 eV
                        (error :       0.11578712 eV)
     electrostatic embedding   =      -0.02628569 Ry
     cavitation energy         =       0.02464122 Ry
     electrolyte free energy   =      -0.00354442 Ry
     correction to one-el term =       0.90140632 Ry

     iteration #  4     ecut=    80.00 Ry     beta= 0.20
     Davidson diagonalization with overlap

---- Real-time Memory Report at c_bands before calling an iterative solver
           540 MiB given to the printing process from OS
             0 MiB allocation reported by mallinfo(arena+hblkhd)
        215552 MiB available memory on the node where the printing process lives
------------------
     ethr =  1.00E-05,  avg # of iterations = 13.9

     negative rho (up, down):  1.315E-03 0.000E+00

     add environment contribution to local potential

     total cpu time spent up to now is      394.8 secs

     total energy              =    -661.64536215 Ry
     estimated scf accuracy    <       0.01632689 Ry

     total charge of GC-SCF    =      -0.00313100 e
     the Fermi energy          =      -3.35067587 eV
                        (error :       0.44667587 eV)
     electrostatic embedding   =      -0.02668516 Ry
     cavitation energy         =       0.02464122 Ry
     electrolyte free energy   =      -0.00477518 Ry
     correction to one-el term =       3.74141989 Ry

     iteration #  5     ecut=    80.00 Ry     beta= 0.20
     Davidson diagonalization with overlap

---- Real-time Memory Report at c_bands before calling an iterative solver
           540 MiB given to the printing process from OS
             0 MiB allocation reported by mallinfo(arena+hblkhd)
        215531 MiB available memory on the node where the printing process lives
------------------
     ethr =  1.00E-05,  avg # of iterations = 20.0

     negative rho (up, down):  1.072E-03 0.000E+00

     add environment contribution to local potential

     total cpu time spent up to now is      438.8 secs

     total energy              =    -661.65221166 Ry
     estimated scf accuracy    <       0.00521342 Ry

     total charge of GC-SCF    =       0.03832959 e
     the Fermi energy          =      -2.91597434 eV
                        (error :       0.01197434 eV)
     electrostatic embedding   =      -0.02475193 Ry
     cavitation energy         =       0.02464122 Ry
     electrolyte free energy   =      -0.00211145 Ry
     correction to one-el term =       3.95949665 Ry

     iteration #  6     ecut=    80.00 Ry     beta= 0.20
     Davidson diagonalization with overlap

---- Real-time Memory Report at c_bands before calling an iterative solver
           540 MiB given to the printing process from OS
             0 MiB allocation reported by mallinfo(arena+hblkhd)
        215454 MiB available memory on the node where the printing process lives
------------------
     ethr =  3.95E-06,  avg # of iterations = 18.7

     negative rho (up, down):  9.284E-04 0.000E+00

     add environment contribution to local potential

     total cpu time spent up to now is      482.1 secs

     total energy              =    -661.69229995 Ry
     estimated scf accuracy    <       0.00302900 Ry

     total charge of GC-SCF    =       0.08820089 e
     the Fermi energy          =      -2.64436925 eV
                        (error :       0.25963075 eV)
     electrostatic embedding   =      -0.02385494 Ry
     cavitation energy         =       0.02464122 Ry
     electrolyte free energy   =      -0.00078569 Ry
     correction to one-el term =       6.25609966 Ry

     iteration #  7     ecut=    80.00 Ry     beta= 0.20
     Davidson diagonalization with overlap

---- Real-time Memory Report at c_bands before calling an iterative solver
           540 MiB given to the printing process from OS
             0 MiB allocation reported by mallinfo(arena+hblkhd)
        215459 MiB available memory on the node where the printing process lives
------------------
     ethr =  2.30E-06,  avg # of iterations = 10.9

     negative rho (up, down):  8.591E-04 0.000E+00

     add environment contribution to local potential

     total cpu time spent up to now is      511.0 secs

     total energy              =    -661.67583364 Ry
     estimated scf accuracy    <       0.00122420 Ry

     total charge of GC-SCF    =       0.13201344 e
     the Fermi energy          =      -2.61774027 eV
                        (error :       0.28625973 eV)
     electrostatic embedding   =      -0.02782373 Ry
     cavitation energy         =       0.02464122 Ry
     electrolyte free energy   =      -0.00084833 Ry
     correction to one-el term =       7.30410073 Ry

     iteration #  8     ecut=    80.00 Ry     beta= 0.20
     Davidson diagonalization with overlap

---- Real-time Memory Report at c_bands before calling an iterative solver
           540 MiB given to the printing process from OS
             0 MiB allocation reported by mallinfo(arena+hblkhd)
        215465 MiB available memory on the node where the printing process lives
------------------
     ethr =  9.28E-07,  avg # of iterations = 14.9

     negative rho (up, down):  7.903E-04 0.000E+00

     add environment contribution to local potential

     total cpu time spent up to now is      549.0 secs

     total energy              =    -661.68162540 Ry
     estimated scf accuracy    <       0.00061350 Ry

     total charge of GC-SCF    =       0.15151193 e
     the Fermi energy          =      -2.75340799 eV
                        (error :       0.15059201 eV)
     electrostatic embedding   =      -0.02789596 Ry
     cavitation energy         =       0.02464122 Ry
     electrolyte free energy   =      -0.00113418 Ry
     correction to one-el term =       6.18457328 Ry

     iteration #  9     ecut=    80.00 Ry     beta= 0.20
     Davidson diagonalization with overlap

---- Real-time Memory Report at c_bands before calling an iterative solver
           540 MiB given to the printing process from OS
             0 MiB allocation reported by mallinfo(arena+hblkhd)
        215415 MiB available memory on the node where the printing process lives
------------------
     ethr =  4.65E-07,  avg # of iterations = 11.4

     negative rho (up, down):  8.942E-04 0.000E+00

     add environment contribution to local potential

     total cpu time spent up to now is      576.5 secs

     total energy              =    -661.67829616 Ry
     estimated scf accuracy    <       0.00043130 Ry

     total charge of GC-SCF    =       0.22111384 e
     the Fermi energy          =      -2.75104014 eV
                        (error :       0.15295986 eV)
     electrostatic embedding   =      -0.02610359 Ry
     cavitation energy         =       0.02464122 Ry
     electrolyte free energy   =      -0.00112583 Ry
     correction to one-el term =       5.36707354 Ry

     iteration # 10     ecut=    80.00 Ry     beta= 0.20
     Davidson diagonalization with overlap

---- Real-time Memory Report at c_bands before calling an iterative solver
           540 MiB given to the printing process from OS
             0 MiB allocation reported by mallinfo(arena+hblkhd)
        215382 MiB available memory on the node where the printing process lives
------------------
     ethr =  3.27E-07,  avg # of iterations = 13.6

     negative rho (up, down):  7.809E-04 0.000E+00

     add environment contribution to local potential

     total cpu time spent up to now is      612.4 secs

     total energy              =    -661.68176636 Ry
     estimated scf accuracy    <       0.00009841 Ry

     total charge of GC-SCF    =       0.25375532 e
     the Fermi energy          =      -2.73752422 eV
                        (error :       0.16647578 eV)
     electrostatic embedding   =      -0.02415507 Ry
     cavitation energy         =       0.02464122 Ry
     electrolyte free energy   =      -0.00110792 Ry
     correction to one-el term =       3.17966185 Ry

     iteration # 11     ecut=    80.00 Ry     beta= 0.20
     Davidson diagonalization with overlap

---- Real-time Memory Report at c_bands before calling an iterative solver
           540 MiB given to the printing process from OS
             0 MiB allocation reported by mallinfo(arena+hblkhd)
        215329 MiB available memory on the node where the printing process lives
------------------
     ethr =  7.47E-08,  avg # of iterations = 25.0

     negative rho (up, down):  6.119E-04 0.000E+00

     add environment contribution to local potential

     total cpu time spent up to now is      661.0 secs

     total energy              =    -661.68230910 Ry
     estimated scf accuracy    <       0.00007734 Ry

     total charge of GC-SCF    =       0.26943959 e
     the Fermi energy          =      -2.77936406 eV
                        (error :       0.12463594 eV)
     electrostatic embedding   =      -0.02350481 Ry
     cavitation energy         =       0.02464122 Ry
     electrolyte free energy   =      -0.00123812 Ry
     correction to one-el term =       1.75494312 Ry

     iteration # 12     ecut=    80.00 Ry     beta= 0.20
     Davidson diagonalization with overlap

---- Real-time Memory Report at c_bands before calling an iterative solver
           540 MiB given to the printing process from OS
             0 MiB allocation reported by mallinfo(arena+hblkhd)
        215350 MiB available memory on the node where the printing process lives
------------------
     ethr =  5.87E-08,  avg # of iterations = 16.4

     negative rho (up, down):  5.526E-04 0.000E+00

     add environment contribution to local potential

     total cpu time spent up to now is      700.7 secs

     total energy              =    -661.68327556 Ry
     estimated scf accuracy    <       0.00029221 Ry

     total charge of GC-SCF    =       0.28564385 e
     the Fermi energy          =      -2.82628671 eV
                        (error :       0.07771329 eV)
     electrostatic embedding   =      -0.02243192 Ry
     cavitation energy         =       0.02464122 Ry
     electrolyte free energy   =      -0.00141869 Ry
     correction to one-el term =       0.54805354 Ry

     iteration # 13     ecut=    80.00 Ry     beta= 0.20
     Davidson diagonalization with overlap

---- Real-time Memory Report at c_bands before calling an iterative solver
           540 MiB given to the printing process from OS
             0 MiB allocation reported by mallinfo(arena+hblkhd)
        215353 MiB available memory on the node where the printing process lives
------------------
     ethr =  5.87E-08,  avg # of iterations = 13.1

     negative rho (up, down):  4.917E-04 0.000E+00

     add environment contribution to local potential

     total cpu time spent up to now is      727.9 secs

     total energy              =    -661.67989346 Ry
     estimated scf accuracy    <       0.00033362 Ry

     total charge of GC-SCF    =       0.40837475 e
     the Fermi energy          =      -2.83651332 eV
                        (error :       0.06748668 eV)
     electrostatic embedding   =      -0.02229254 Ry
     cavitation energy         =       0.02464122 Ry
     electrolyte free energy   =      -0.00147180 Ry
     correction to one-el term =      -0.18421182 Ry

     iteration # 14     ecut=    80.00 Ry     beta= 0.20
     Davidson diagonalization with overlap

---- Real-time Memory Report at c_bands before calling an iterative solver
           540 MiB given to the printing process from OS
             0 MiB allocation reported by mallinfo(arena+hblkhd)
        215358 MiB available memory on the node where the printing process lives
------------------
     ethr =  5.87E-08,  avg # of iterations = 13.0

     negative rho (up, down):  4.680E-04 0.000E+00

     add environment contribution to local potential

     total cpu time spent up to now is      763.5 secs

     total energy              =    -661.68441125 Ry
     estimated scf accuracy    <       0.00002424 Ry

     total charge of GC-SCF    =       0.40109260 e
     the Fermi energy          =      -2.83821521 eV
                        (error :       0.06578479 eV)
     electrostatic embedding   =      -0.02606547 Ry
     cavitation energy         =       0.02464122 Ry
     electrolyte free energy   =      -0.00160491 Ry
     correction to one-el term =      -4.70402769 Ry

     iteration # 15     ecut=    80.00 Ry     beta= 0.20
     Davidson diagonalization with overlap

---- Real-time Memory Report at c_bands before calling an iterative solver
           540 MiB given to the printing process from OS
             0 MiB allocation reported by mallinfo(arena+hblkhd)
        215370 MiB available memory on the node where the printing process lives
------------------
     ethr =  1.84E-08,  avg # of iterations = 16.6

     negative rho (up, down):  4.621E-04 0.000E+00

     add environment contribution to local potential

     total cpu time spent up to now is      801.0 secs

     total energy              =    -661.68330305 Ry
     estimated scf accuracy    <       0.00001176 Ry

     total charge of GC-SCF    =       0.46859840 e
     the Fermi energy          =      -2.82722031 eV
                        (error :       0.07677969 eV)
     electrostatic embedding   =      -0.02589818 Ry
     cavitation energy         =       0.02464122 Ry
     electrolyte free energy   =      -0.00155039 Ry
     correction to one-el term =      -4.33524963 Ry

     iteration # 16     ecut=    80.00 Ry     beta= 0.20
     Davidson diagonalization with overlap

---- Real-time Memory Report at c_bands before calling an iterative solver
           540 MiB given to the printing process from OS
             0 MiB allocation reported by mallinfo(arena+hblkhd)
        215363 MiB available memory on the node where the printing process lives
------------------
     ethr =  8.94E-09,  avg # of iterations = 24.8

     negative rho (up, down):  4.584E-04 0.000E+00

     add environment contribution to local potential

     total cpu time spent up to now is      848.0 secs

     total energy              =    -661.68397868 Ry
     estimated scf accuracy    <       0.00000658 Ry

     total charge of GC-SCF    =       0.55700243 e
     the Fermi energy          =      -2.84140689 eV
                        (error :       0.06259311 eV)
     electrostatic embedding   =      -0.02976208 Ry
     cavitation energy         =       0.02464122 Ry
     electrolyte free energy   =      -0.00169403 Ry
     correction to one-el term =      -6.64174478 Ry

     iteration # 17     ecut=    80.00 Ry     beta= 0.20
     Davidson diagonalization with overlap

---- Real-time Memory Report at c_bands before calling an iterative solver
           540 MiB given to the printing process from OS
             0 MiB allocation reported by mallinfo(arena+hblkhd)
        215279 MiB available memory on the node where the printing process lives
------------------
     ethr =  5.01E-09,  avg # of iterations = 37.0

     negative rho (up, down):  4.644E-04 0.000E+00

     add environment contribution to local potential

     total cpu time spent up to now is      918.3 secs

     total energy              =    -661.68457649 Ry
     estimated scf accuracy    <       0.00000357 Ry

     total charge of GC-SCF    =       0.60797727 e
     the Fermi energy          =      -2.86612796 eV
                        (error :       0.03787204 eV)
     electrostatic embedding   =      -0.03704205 Ry
     cavitation energy         =       0.02464122 Ry
     electrolyte free energy   =      -0.00193648 Ry
     correction to one-el term =      -9.75350478 Ry

     iteration # 18     ecut=    80.00 Ry     beta= 0.20
     Davidson diagonalization with overlap

---- Real-time Memory Report at c_bands before calling an iterative solver
           540 MiB given to the printing process from OS
             0 MiB allocation reported by mallinfo(arena+hblkhd)
        215325 MiB available memory on the node where the printing process lives
------------------
     ethr =  2.71E-09,  avg # of iterations = 33.9

     negative rho (up, down):  4.716E-04 0.000E+00

     add environment contribution to local potential

     total cpu time spent up to now is      980.3 secs

     total energy              =    -661.68506619 Ry
     estimated scf accuracy    <       0.00000180 Ry

     total charge of GC-SCF    =       0.68144617 e
     the Fermi energy          =      -2.87681127 eV
                        (error :       0.02718873 eV)
     electrostatic embedding   =      -0.04257626 Ry
     cavitation energy         =       0.02464122 Ry
     electrolyte free energy   =      -0.00207308 Ry
     correction to one-el term =     -11.44896032 Ry

     iteration # 19     ecut=    80.00 Ry     beta= 0.20
     Davidson diagonalization with overlap

---- Real-time Memory Report at c_bands before calling an iterative solver
           540 MiB given to the printing process from OS
             0 MiB allocation reported by mallinfo(arena+hblkhd)
        215318 MiB available memory on the node where the printing process lives
------------------
     ethr =  1.37E-09,  avg # of iterations = 37.5

     negative rho (up, down):  4.520E-04 0.000E+00

     add environment contribution to local potential

     total cpu time spent up to now is     1056.3 secs

     total energy              =    -661.68492904 Ry
     estimated scf accuracy    <       0.00000093 Ry

     total charge of GC-SCF    =       0.69122349 e
     the Fermi energy          =      -2.89676674 eV
                        (error :       0.00723326 eV)
     electrostatic embedding   =      -0.05206353 Ry
     cavitation energy         =       0.02464122 Ry
     electrolyte free energy   =      -0.00231413 Ry
     correction to one-el term =     -14.01872543 Ry

     iteration # 20     ecut=    80.00 Ry     beta= 0.20
     Davidson diagonalization with overlap

---- Real-time Memory Report at c_bands before calling an iterative solver
           540 MiB given to the printing process from OS
             0 MiB allocation reported by mallinfo(arena+hblkhd)
        215323 MiB available memory on the node where the printing process lives
------------------
     ethr =  7.05E-10,  avg # of iterations = 15.0

     negative rho (up, down):  4.413E-04 0.000E+00

     add environment contribution to local potential

     total cpu time spent up to now is     1095.8 secs

     total energy              =    -661.68494539 Ry
     estimated scf accuracy    <       0.00000031 Ry

     total charge of GC-SCF    =       0.70236662 e
     the Fermi energy          =      -2.89958276 eV
                        (error :       0.00441724 eV)
     electrostatic embedding   =      -0.05355789 Ry
     cavitation energy         =       0.02464122 Ry
     electrolyte free energy   =      -0.00235262 Ry
     correction to one-el term =     -14.40367315 Ry

     iteration # 21     ecut=    80.00 Ry     beta= 0.20
     Davidson diagonalization with overlap

---- Real-time Memory Report at c_bands before calling an iterative solver
           540 MiB given to the printing process from OS
             0 MiB allocation reported by mallinfo(arena+hblkhd)
        215336 MiB available memory on the node where the printing process lives
------------------
     c_bands:  1 eigenvalues not converged
     ethr =  2.36E-10,  avg # of iterations = 32.1

     negative rho (up, down):  4.350E-04 0.000E+00

     add environment contribution to local potential

     total cpu time spent up to now is     1157.3 secs

     total energy              =    -661.68494428 Ry
     estimated scf accuracy    <       0.00000008 Ry

     total charge of GC-SCF    =       0.70211163 e
     the Fermi energy          =      -2.90259002 eV
                        (error :       0.00140998 eV)
     electrostatic embedding   =      -0.05526383 Ry
     cavitation energy         =       0.02464122 Ry
     electrolyte free energy   =      -0.00239354 Ry
     correction to one-el term =     -14.80326738 Ry

     iteration # 22     ecut=    80.00 Ry     beta= 0.20
     Davidson diagonalization with overlap

---- Real-time Memory Report at c_bands before calling an iterative solver
           540 MiB given to the printing process from OS
             0 MiB allocation reported by mallinfo(arena+hblkhd)
        215314 MiB available memory on the node where the printing process lives
------------------
     ethr =  5.73E-11,  avg # of iterations = 18.0

     negative rho (up, down):  4.296E-04 0.000E+00

     add environment contribution to local potential

     total cpu time spent up to now is     1199.7 secs

     total energy              =    -661.68494371 Ry
     estimated scf accuracy    <       0.00000003 Ry

     total charge of GC-SCF    =       0.70339024 e
     the Fermi energy          =      -2.90288290 eV
                        (error :       0.00111710 eV)
     electrostatic embedding   =      -0.05521935 Ry
     cavitation energy         =       0.02464122 Ry
     electrolyte free energy   =      -0.00239466 Ry
     correction to one-el term =     -14.79513855 Ry

     iteration # 23     ecut=    80.00 Ry     beta= 0.20
     Davidson diagonalization with overlap

---- Real-time Memory Report at c_bands before calling an iterative solver
           540 MiB given to the printing process from OS
             0 MiB allocation reported by mallinfo(arena+hblkhd)
        215328 MiB available memory on the node where the printing process lives
------------------
     ethr =  2.11E-11,  avg # of iterations = 16.9

     negative rho (up, down):  4.265E-04 0.000E+00

     add environment contribution to local potential

     total cpu time spent up to now is     1241.8 secs

     total energy              =    -661.68494377 Ry
     estimated scf accuracy    <          8.1E-09 Ry

     total charge of GC-SCF    =       0.70460022 e
     the Fermi energy          =      -2.90316105 eV
                        (error :       0.00083895 eV)
     electrostatic embedding   =      -0.05540125 Ry
     cavitation energy         =       0.02464122 Ry
     electrolyte free energy   =      -0.00239874 Ry
     correction to one-el term =     -14.84104350 Ry

     iteration # 24     ecut=    80.00 Ry     beta= 0.20
     Davidson diagonalization with overlap

---- Real-time Memory Report at c_bands before calling an iterative solver
           540 MiB given to the printing process from OS
             0 MiB allocation reported by mallinfo(arena+hblkhd)
        215333 MiB available memory on the node where the printing process lives
------------------
     ethr =  6.17E-12,  avg # of iterations = 32.8

     negative rho (up, down):  4.236E-04 0.000E+00

     add environment contribution to local potential

     total cpu time spent up to now is     1304.0 secs

     total energy              =    -661.68494399 Ry
     estimated scf accuracy    <          5.4E-09 Ry

     total charge of GC-SCF    =       0.70672528 e
     the Fermi energy          =      -2.90346987 eV
                        (error :       0.00053013 eV)
     electrostatic embedding   =      -0.05556496 Ry
     cavitation energy         =       0.02464122 Ry
     electrolyte free energy   =      -0.00240246 Ry
     correction to one-el term =     -14.88176189 Ry

     iteration # 25     ecut=    80.00 Ry     beta= 0.20
     Davidson diagonalization with overlap

---- Real-time Memory Report at c_bands before calling an iterative solver
           540 MiB given to the printing process from OS
             0 MiB allocation reported by mallinfo(arena+hblkhd)
        215323 MiB available memory on the node where the printing process lives
------------------
     c_bands:  1 eigenvalues not converged
     ethr =  4.13E-12,  avg # of iterations = 38.9

     negative rho (up, down):  4.215E-04 0.000E+00

     add environment contribution to local potential

     total cpu time spent up to now is     1376.4 secs

     total energy              =    -661.68494341 Ry
     estimated scf accuracy    <          2.3E-09 Ry

     total charge of GC-SCF    =       0.70669380 e
     the Fermi energy          =      -2.90385268 eV
                        (error :       0.00014732 eV)
     electrostatic embedding   =      -0.05587948 Ry
     cavitation energy         =       0.02464122 Ry
     electrolyte free energy   =      -0.00240896 Ry
     correction to one-el term =     -14.95681452 Ry

     iteration # 26     ecut=    80.00 Ry     beta= 0.20
     Davidson diagonalization with overlap

---- Real-time Memory Report at c_bands before calling an iterative solver
           540 MiB given to the printing process from OS
             0 MiB allocation reported by mallinfo(arena+hblkhd)
        215312 MiB available memory on the node where the printing process lives
------------------
     ethr =  1.74E-12,  avg # of iterations = 16.2

     negative rho (up, down):  4.196E-04 0.000E+00

     add environment contribution to local potential

     total cpu time spent up to now is     1414.4 secs

     total energy              =    -661.68494337 Ry
     estimated scf accuracy    <          9.7E-10 Ry

     total charge of GC-SCF    =       0.70692319 e
     the Fermi energy          =      -2.90392613 eV
                        (error :       0.00007387 eV)
     electrostatic embedding   =      -0.05587084 Ry
     cavitation energy         =       0.02464122 Ry
     electrolyte free energy   =      -0.00240915 Ry
     correction to one-el term =     -14.95552808 Ry

     iteration # 27     ecut=    80.00 Ry     beta= 0.20
     Davidson diagonalization with overlap

---- Real-time Memory Report at c_bands before calling an iterative solver
           540 MiB given to the printing process from OS
             0 MiB allocation reported by mallinfo(arena+hblkhd)
        215317 MiB available memory on the node where the printing process lives
------------------
     ethr =  7.39E-13,  avg # of iterations = 17.2

     negative rho (up, down):  4.181E-04 0.000E+00

     add environment contribution to local potential

     total cpu time spent up to now is     1456.3 secs

     total energy              =    -661.68494329 Ry
     estimated scf accuracy    <          4.2E-10 Ry

     total charge of GC-SCF    =       0.70703931 e
     the Fermi energy          =      -2.90400128 eV
                        (error :       0.00000128 eV)
     electrostatic embedding   =      -0.05590540 Ry
     cavitation energy         =       0.02464122 Ry
     electrolyte free energy   =      -0.00241003 Ry
     correction to one-el term =     -14.96385507 Ry

     iteration # 28     ecut=    80.00 Ry     beta= 0.20
     Davidson diagonalization with overlap

---- Real-time Memory Report at c_bands before calling an iterative solver
           540 MiB given to the printing process from OS
             0 MiB allocation reported by mallinfo(arena+hblkhd)
        215287 MiB available memory on the node where the printing process lives
------------------
     ethr =  3.20E-13,  avg # of iterations = 17.7

     negative rho (up, down):  4.168E-04 0.000E+00

     add environment contribution to local potential

     total cpu time spent up to now is     1497.1 secs

     total energy              =    -661.68494325 Ry
     estimated scf accuracy    <          2.3E-10 Ry

     total charge of GC-SCF    =       0.70705847 e
     the Fermi energy          =      -2.90400270 eV
                        (error :       0.00000270 eV)
     electrostatic embedding   =      -0.05592461 Ry
     cavitation energy         =       0.02464122 Ry
     electrolyte free energy   =      -0.00241034 Ry
     correction to one-el term =     -14.96797305 Ry

     iteration # 29     ecut=    80.00 Ry     beta= 0.20
     Davidson diagonalization with overlap

---- Real-time Memory Report at c_bands before calling an iterative solver
           540 MiB given to the printing process from OS
             0 MiB allocation reported by mallinfo(arena+hblkhd)
        215286 MiB available memory on the node where the printing process lives
------------------
     ethr =  1.73E-13,  avg # of iterations = 18.4

     negative rho (up, down):  4.158E-04 0.000E+00

     add environment contribution to local potential

     total cpu time spent up to now is     1540.8 secs

     total energy              =    -661.68494323 Ry
     estimated scf accuracy    <          5.5E-11 Ry

     total charge of GC-SCF    =       0.70712947 e
     the Fermi energy          =      -2.90401833 eV
                        (error :       0.00001833 eV)
     electrostatic embedding   =      -0.05592815 Ry
     cavitation energy         =       0.02464122 Ry
     electrolyte free energy   =      -0.00241046 Ry
     correction to one-el term =     -14.96854946 Ry

     iteration # 30     ecut=    80.00 Ry     beta= 0.20
     Davidson diagonalization with overlap

---- Real-time Memory Report at c_bands before calling an iterative solver
           540 MiB given to the printing process from OS
             0 MiB allocation reported by mallinfo(arena+hblkhd)
        215288 MiB available memory on the node where the printing process lives
------------------
     ethr =  1.00E-13,  avg # of iterations = 18.7

     negative rho (up, down):  4.150E-04 0.000E+00

     add environment contribution to local potential

     total cpu time spent up to now is     1585.6 secs

     total energy              =    -661.68494321 Ry
     estimated scf accuracy    <          2.5E-11 Ry

     total charge of GC-SCF    =       0.70715976 e
     the Fermi energy          =      -2.90402664 eV
                        (error :       0.00002664 eV)
     electrostatic embedding   =      -0.05593872 Ry
     cavitation energy         =       0.02464122 Ry
     electrolyte free energy   =      -0.00241066 Ry
     correction to one-el term =     -14.97088601 Ry

     iteration # 31     ecut=    80.00 Ry     beta= 0.20
     Davidson diagonalization with overlap

---- Real-time Memory Report at c_bands before calling an iterative solver
           540 MiB given to the printing process from OS
             0 MiB allocation reported by mallinfo(arena+hblkhd)
        215250 MiB available memory on the node where the printing process lives
------------------
     ethr =  1.00E-13,  avg # of iterations = 18.2

     negative rho (up, down):  4.144E-04 0.000E+00

     add environment contribution to local potential

     total cpu time spent up to now is     1625.5 secs

     total energy              =    -661.68494320 Ry
     estimated scf accuracy    <          1.2E-11 Ry

     total charge of GC-SCF    =       0.70717038 e
     the Fermi energy          =      -2.90402833 eV
                        (error :       0.00002833 eV)
     electrostatic embedding   =      -0.05594274 Ry
     cavitation energy         =       0.02464122 Ry
     electrolyte free energy   =      -0.00241073 Ry
     correction to one-el term =     -14.97183736 Ry

     iteration # 32     ecut=    80.00 Ry     beta= 0.20
     Davidson diagonalization with overlap

---- Real-time Memory Report at c_bands before calling an iterative solver
           540 MiB given to the printing process from OS
             0 MiB allocation reported by mallinfo(arena+hblkhd)
        215278 MiB available memory on the node where the printing process lives
------------------
     ethr =  1.00E-13,  avg # of iterations = 18.0

     negative rho (up, down):  4.139E-04 0.000E+00

     add environment contribution to local potential

     total cpu time spent up to now is     1661.7 secs

     total energy              =    -661.68494320 Ry
     estimated scf accuracy    <          7.0E-12 Ry

     total charge of GC-SCF    =       0.70713247 e
     the Fermi energy          =      -2.90402877 eV
                        (error :       0.00002877 eV)
     electrostatic embedding   =      -0.05594405 Ry
     cavitation energy         =       0.02464122 Ry
     electrolyte free energy   =      -0.00241076 Ry
     correction to one-el term =     -14.97220042 Ry

     iteration # 33     ecut=    80.00 Ry     beta= 0.20
     Davidson diagonalization with overlap

---- Real-time Memory Report at c_bands before calling an iterative solver
           540 MiB given to the printing process from OS
             0 MiB allocation reported by mallinfo(arena+hblkhd)
        215276 MiB available memory on the node where the printing process lives
------------------
     ethr =  1.00E-13,  avg # of iterations = 16.5

     negative rho (up, down):  4.135E-04 0.000E+00

     add environment contribution to local potential

     total cpu time spent up to now is     1696.7 secs

     total energy              =    -661.68494320 Ry
     estimated scf accuracy    <          3.5E-12 Ry

     total charge of GC-SCF    =       0.70708957 e
     the Fermi energy          =      -2.90402030 eV
                        (error :       0.00002030 eV)
     electrostatic embedding   =      -0.05593827 Ry
     cavitation energy         =       0.02464122 Ry
     electrolyte free energy   =      -0.00241063 Ry
     correction to one-el term =     -14.97092530 Ry

     iteration # 34     ecut=    80.00 Ry     beta= 0.20
     Davidson diagonalization with overlap

---- Real-time Memory Report at c_bands before calling an iterative solver
           540 MiB given to the printing process from OS
             0 MiB allocation reported by mallinfo(arena+hblkhd)
        215283 MiB available memory on the node where the printing process lives
------------------
     ethr =  1.00E-13,  avg # of iterations = 16.5

     negative rho (up, down):  4.132E-04 0.000E+00

     add environment contribution to local potential

     total cpu time spent up to now is     1734.2 secs

     total energy              =    -661.68494321 Ry
     estimated scf accuracy    <          2.1E-12 Ry

     total charge of GC-SCF    =       0.70706437 e
     the Fermi energy          =      -2.90400942 eV
                        (error :       0.00000942 eV)
     electrostatic embedding   =      -0.05593189 Ry
     cavitation energy         =       0.02464122 Ry
     electrolyte free energy   =      -0.00241049 Ry
     correction to one-el term =     -14.96945320 Ry

     iteration # 35     ecut=    80.00 Ry     beta= 0.20
     Davidson diagonalization with overlap

---- Real-time Memory Report at c_bands before calling an iterative solver
           540 MiB given to the printing process from OS
             0 MiB allocation reported by mallinfo(arena+hblkhd)
        215268 MiB available memory on the node where the printing process lives
------------------
     ethr =  1.00E-13,  avg # of iterations = 15.4

     negative rho (up, down):  4.129E-04 0.000E+00

     add environment contribution to local potential

     total cpu time spent up to now is     1767.2 secs

     total energy              =    -661.68494321 Ry
     estimated scf accuracy    <          9.4E-13 Ry

     total charge of GC-SCF    =       0.70705833 e
     the Fermi energy          =      -2.90400501 eV
                        (error :       0.00000501 eV)
     electrostatic embedding   =      -0.05592807 Ry
     cavitation energy         =       0.02464122 Ry
     electrolyte free energy   =      -0.00241041 Ry
     correction to one-el term =     -14.96857964 Ry

     iteration # 36     ecut=    80.00 Ry     beta= 0.20
     Davidson diagonalization with overlap

---- Real-time Memory Report at c_bands before calling an iterative solver
           540 MiB given to the printing process from OS
             0 MiB allocation reported by mallinfo(arena+hblkhd)
        215258 MiB available memory on the node where the printing process lives
------------------
     ethr =  1.00E-13,  avg # of iterations = 14.8

     negative rho (up, down):  4.127E-04 0.000E+00

     add environment contribution to local potential

     total cpu time spent up to now is     1797.6 secs

     total energy              =    -661.68494321 Ry
     estimated scf accuracy    <          1.0E-12 Ry

     total charge of GC-SCF    =       0.70704764 e
     the Fermi energy          =      -2.90400175 eV
                        (error :       0.00000175 eV)
     electrostatic embedding   =      -0.05592718 Ry
     cavitation energy         =       0.02464122 Ry
     electrolyte free energy   =      -0.00241038 Ry
     correction to one-el term =     -14.96835651 Ry

     iteration # 37     ecut=    80.00 Ry     beta= 0.20
     Davidson diagonalization with overlap

---- Real-time Memory Report at c_bands before calling an iterative solver
           540 MiB given to the printing process from OS
             0 MiB allocation reported by mallinfo(arena+hblkhd)
        215256 MiB available memory on the node where the printing process lives
------------------
     ethr =  1.00E-13,  avg # of iterations = 14.6

     negative rho (up, down):  4.125E-04 0.000E+00

     add environment contribution to local potential

     total cpu time spent up to now is     1828.1 secs

     total energy              =    -661.68494321 Ry
     estimated scf accuracy    <          3.1E-13 Ry

     total charge of GC-SCF    =       0.70703880 e
     the Fermi energy          =      -2.90399931 eV
                        (error :       0.00000069 eV)
     electrostatic embedding   =      -0.05592555 Ry
     cavitation energy         =       0.02464122 Ry
     electrolyte free energy   =      -0.00241034 Ry
     correction to one-el term =     -14.96797148 Ry

     iteration # 38     ecut=    80.00 Ry     beta= 0.20
     Davidson diagonalization with overlap

---- Real-time Memory Report at c_bands before calling an iterative solver
           540 MiB given to the printing process from OS
             0 MiB allocation reported by mallinfo(arena+hblkhd)
        215268 MiB available memory on the node where the printing process lives
------------------
     ethr =  1.00E-13,  avg # of iterations = 14.0

     negative rho (up, down):  4.124E-04 0.000E+00

     add environment contribution to local potential

     total cpu time spent up to now is     1857.5 secs

     total energy              =    -661.68494321 Ry
     estimated scf accuracy    <          2.1E-13 Ry

     total charge of GC-SCF    =       0.70704509 e
     the Fermi energy          =      -2.90399795 eV
                        (error :       0.00000205 eV)
     electrostatic embedding   =      -0.05592419 Ry
     cavitation energy         =       0.02464122 Ry
     electrolyte free energy   =      -0.00241031 Ry
     correction to one-el term =     -14.96765533 Ry

     iteration # 39     ecut=    80.00 Ry     beta= 0.20
     Davidson diagonalization with overlap

---- Real-time Memory Report at c_bands before calling an iterative solver
           540 MiB given to the printing process from OS
             0 MiB allocation reported by mallinfo(arena+hblkhd)
        215254 MiB available memory on the node where the printing process lives
------------------
     ethr =  1.00E-13,  avg # of iterations = 13.2

     negative rho (up, down):  4.123E-04 0.000E+00

     add environment contribution to local potential

     total cpu time spent up to now is     1885.2 secs

     total energy              =    -661.68494321 Ry
     estimated scf accuracy    <          4.8E-14 Ry

     total charge of GC-SCF    =       0.70704533 e
     the Fermi energy          =      -2.90399921 eV
                        (error :       0.00000079 eV)
     electrostatic embedding   =      -0.05592514 Ry
     cavitation energy         =       0.02464122 Ry
     electrolyte free energy   =      -0.00241033 Ry
     correction to one-el term =     -14.96787642 Ry

     iteration # 40     ecut=    80.00 Ry     beta= 0.20
     Davidson diagonalization with overlap

---- Real-time Memory Report at c_bands before calling an iterative solver
           540 MiB given to the printing process from OS
             0 MiB allocation reported by mallinfo(arena+hblkhd)
        215276 MiB available memory on the node where the printing process lives
------------------
     ethr =  1.00E-13,  avg # of iterations = 12.3

     negative rho (up, down):  4.122E-04 0.000E+00

     add environment contribution to local potential

     total cpu time spent up to now is     1912.2 secs

     total energy              =    -661.68494321 Ry
     estimated scf accuracy    <          1.4E-14 Ry

     total charge of GC-SCF    =       0.70704610 e
     the Fermi energy          =      -2.90399956 eV
                        (error :       0.00000044 eV)
     electrostatic embedding   =      -0.05592520 Ry
     cavitation energy         =       0.02464122 Ry
     electrolyte free energy   =      -0.00241034 Ry
     correction to one-el term =     -14.96789031 Ry

     iteration # 41     ecut=    80.00 Ry     beta= 0.20
     Davidson diagonalization with overlap

---- Real-time Memory Report at c_bands before calling an iterative solver
           540 MiB given to the printing process from OS
             0 MiB allocation reported by mallinfo(arena+hblkhd)
        215279 MiB available memory on the node where the printing process lives
------------------
     ethr =  1.00E-13,  avg # of iterations = 11.9

     negative rho (up, down):  4.119E-04 0.000E+00

     total cpu time spent up to now is     1934.0 secs

     End of self-consistent calculation

          k = 0.0000 0.0000 0.0000 (250151 PWs)   bands (ev):

   -50.5691 -50.5690 -50.5689 -50.5688 -50.2105 -50.2105 -50.2105 -50.2105
   -49.5249 -49.5247 -49.5245 -49.5242 -49.4519 -49.4519 -49.4516 -49.4516
   -49.4380 -49.4311 -49.4294 -49.4294 -49.4266 -49.4236 -49.4235 -49.4235
   -49.4225 -49.4225 -49.4206 -49.4203 -49.4190 -49.4190 -49.4167 -49.4144
   -49.4118 -49.4118 -49.4115 -49.4106 -49.3937 -49.3936 -49.3926 -49.3926
   -49.3909 -49.3909 -49.3890 -49.3890  -6.3655  -6.1058  -5.6769  -5.1757
    -5.1757  -5.0743  -4.9102  -4.9102  -4.4715  -4.4715  -4.3489  -3.8582
    -3.8582  -3.5615  -3.1268  -3.1268  -3.0369  -2.9096  -2.6163  -2.5843
    -2.5302  -2.5302  -2.5256  -2.5157  -2.3372  -2.3372  -2.2097  -2.2097
    -2.1890  -2.1485  -2.0817  -1.8683  -1.7505  -1.7505  -1.6355  -1.5508
    -1.4199  -1.4199  -1.4034  -1.1785  -1.1785  -1.0999  -0.9514  -0.8431
    -0.5383  -0.5383  -0.2256  -0.1715  -0.1436  -0.0107   0.0582   0.0849
     0.0849   0.1684   0.1838

     occupation numbers 
     1.0000   1.0000   1.0000   1.0000   1.0000   1.0000   1.0000   1.0000
     1.0000   1.0000   1.0000   1.0000   1.0000   1.0000   1.0000   1.0000
     1.0000   1.0000   1.0000   1.0000   1.0000   1.0000   1.0000   1.0000
     1.0000   1.0000   1.0000   1.0000   1.0000   1.0000   1.0000   1.0000
     1.0000   1.0000   1.0000   1.0000   1.0000   1.0000   1.0000   1.0000
     1.0000   1.0000   1.0000   1.0000   1.0000   1.0000   1.0000   1.0000
     1.0000   1.0000   1.0000   1.0000   1.0000   1.0000   1.0000   1.0000
     1.0000   1.0000   1.0737   1.0737   1.0195   0.4294   0.0002   0.0000
     0.0000   0.0000   0.0000   0.0000   0.0000   0.0000   0.0000   0.0000
     0.0000   0.0000   0.0000   0.0000   0.0000   0.0000   0.0000   0.0000
     0.0000   0.0000   0.0000   0.0000   0.0000   0.0000   0.0000   0.0000
     0.0000   0.0000   0.0000   0.0000   0.0000   0.0000   0.0000   0.0000
     0.0000   0.0000   0.0000

          k = 0.0000 0.1421 0.0000 (249995 PWs)   bands (ev):

   -50.5691 -50.5690 -50.5689 -50.5688 -50.2105 -50.2105 -50.2105 -50.2105
   -49.5249 -49.5247 -49.5244 -49.5242 -49.4519 -49.4519 -49.4516 -49.4516
   -49.4378 -49.4309 -49.4293 -49.4293 -49.4265 -49.4238 -49.4236 -49.4236
   -49.4225 -49.4225 -49.4213 -49.4197 -49.4190 -49.4190 -49.4168 -49.4146
   -49.4118 -49.4118 -49.4114 -49.4104 -49.3937 -49.3937 -49.3926 -49.3926
   -49.3909 -49.3909 -49.3890 -49.3890  -6.3415  -6.0817  -5.6527  -5.1514
    -5.1514  -5.0501  -4.8859  -4.8859  -4.4475  -4.4475  -4.3250  -3.8351
    -3.8351  -3.5435  -3.4571  -3.2034  -3.1066  -3.1066  -2.7653  -2.6543
    -2.6543  -2.5165  -2.4841  -2.3556  -2.3556  -2.3172  -2.3172  -2.2827
    -2.1772  -2.1575  -1.9406  -1.8881  -1.8881  -1.7872  -1.6041  -1.5509
    -1.5508  -1.5508  -1.3140  -1.1094  -1.1094  -0.9854  -0.9277  -0.8120
    -0.4519  -0.4519  -0.2068  -0.1405  -0.1070  -0.0007  -0.0007   0.0076
     0.0885   0.1790   0.1986

     occupation numbers 
     1.0000   1.0000   1.0000   1.0000   1.0000   1.0000   1.0000   1.0000
     1.0000   1.0000   1.0000   1.0000   1.0000   1.0000   1.0000   1.0000
     1.0000   1.0000   1.0000   1.0000   1.0000   1.0000   1.0000   1.0000
     1.0000   1.0000   1.0000   1.0000   1.0000   1.0000   1.0000   1.0000
     1.0000   1.0000   1.0000   1.0000   1.0000   1.0000   1.0000   1.0000
     1.0000   1.0000   1.0000   1.0000   1.0000   1.0000   1.0000   1.0000
     1.0000   1.0000   1.0000   1.0000   1.0000   1.0000   1.0000   1.0000
     1.0000   1.0000   1.0000   1.0255   1.0821   1.0821   0.0275   0.0008
     0.0008   0.0000   0.0000   0.0000   0.0000   0.0000   0.0000   0.0000
     0.0000   0.0000   0.0000   0.0000   0.0000   0.0000   0.0000   0.0000
     0.0000   0.0000   0.0000   0.0000   0.0000   0.0000   0.0000   0.0000
     0.0000   0.0000   0.0000   0.0000   0.0000   0.0000   0.0000   0.0000
     0.0000   0.0000   0.0000

          k = 0.0000 0.2843 0.0000 (249899 PWs)   bands (ev):

   -50.5691 -50.5690 -50.5689 -50.5688 -50.2105 -50.2105 -50.2105 -50.2105
   -49.5249 -49.5247 -49.5244 -49.5242 -49.4519 -49.4519 -49.4516 -49.4516
   -49.4372 -49.4306 -49.4290 -49.4290 -49.4264 -49.4244 -49.4238 -49.4238
   -49.4225 -49.4225 -49.4221 -49.4191 -49.4190 -49.4190 -49.4172 -49.4150
   -49.4120 -49.4120 -49.4112 -49.4101 -49.3938 -49.3938 -49.3927 -49.3927
   -49.3909 -49.3909 -49.3889 -49.3889  -6.2693  -6.0094  -5.5802  -5.0785
    -5.0785  -4.9776  -4.8132  -4.8132  -4.3756  -4.3756  -4.2542  -3.9556
    -3.7661  -3.7661  -3.6873  -3.4787  -3.2350  -3.0481  -3.0481  -2.9499
    -2.9499  -2.6591  -2.6591  -2.6431  -2.4852  -2.3893  -2.3139  -2.3139
    -2.2074  -2.2074  -2.0630  -1.9301  -1.7547  -1.7547  -1.7196  -1.6340
    -1.5101  -1.3701  -1.1474  -1.1474  -1.0805  -0.9238  -0.7189  -0.6512
    -0.3313  -0.3313  -0.1325  -0.1325  -0.1000  -0.0645  -0.0256   0.0976
     0.1582   0.2884   0.3142

     occupation numbers 
     1.0000   1.0000   1.0000   1.0000   1.0000   1.0000   1.0000   1.0000
     1.0000   1.0000   1.0000   1.0000   1.0000   1.0000   1.0000   1.0000
     1.0000   1.0000   1.0000   1.0000   1.0000   1.0000   1.0000   1.0000
     1.0000   1.0000   1.0000   1.0000   1.0000   1.0000   1.0000   1.0000
     1.0000   1.0000   1.0000   1.0000   1.0000   1.0000   1.0000   1.0000
     1.0000   1.0000   1.0000   1.0000   1.0000   1.0000   1.0000   1.0000
     1.0000   1.0000   1.0000   1.0000   1.0000   1.0000   1.0000   1.0000
     1.0000   1.0000   1.0000   1.0000   1.0130   1.0432   1.0432   0.6483
     0.6483   0.0009   0.0009   0.0005   0.0000   0.0000   0.0000   0.0000
     0.0000   0.0000   0.0000   0.0000   0.0000   0.0000   0.0000   0.0000
     0.0000   0.0000   0.0000   0.0000   0.0000   0.0000   0.0000   0.0000
     0.0000   0.0000   0.0000   0.0000   0.0000   0.0000   0.0000   0.0000
     0.0000   0.0000   0.0000

          k = 0.0000 0.4264 0.0000 (249905 PWs)   bands (ev):

   -50.5691 -50.5690 -50.5689 -50.5688 -50.2105 -50.2105 -50.2105 -50.2105
   -49.5248 -49.5246 -49.5244 -49.5242 -49.4519 -49.4519 -49.4516 -49.4516
   -49.4363 -49.4301 -49.4285 -49.4285 -49.4266 -49.4252 -49.4242 -49.4242
   -49.4227 -49.4224 -49.4224 -49.4191 -49.4191 -49.4188 -49.4177 -49.4155
   -49.4121 -49.4121 -49.4109 -49.4096 -49.3939 -49.3939 -49.3927 -49.3927
   -49.3909 -49.3909 -49.3888 -49.3888  -6.1491  -5.8888  -5.4592  -4.9574
    -4.9574  -4.8570  -4.6923  -4.6923  -4.4102  -4.2563  -4.2563  -4.1784
    -4.0976  -3.7108  -3.6525  -3.6525  -3.3495  -3.3089  -3.3089  -3.0941
    -3.0440  -3.0440  -2.9351  -2.9351  -2.6008  -2.6008  -2.5384  -2.3036
    -2.3036  -2.2314  -2.1816  -1.9894  -1.9894  -1.9057  -1.7510  -1.3535
    -1.3228  -1.2875  -1.2875  -1.0692  -0.7387  -0.7345  -0.5641  -0.3789
    -0.3789  -0.3011  -0.1280  -0.1280  -0.0516   0.0373   0.1205   0.1568
     0.2496   0.3008   0.3371

     occupation numbers 
     1.0000   1.0000   1.0000   1.0000   1.0000   1.0000   1.0000   1.0000
     1.0000   1.0000   1.0000   1.0000   1.0000   1.0000   1.0000   1.0000
     1.0000   1.0000   1.0000   1.0000   1.0000   1.0000   1.0000   1.0000
     1.0000   1.0000   1.0000   1.0000   1.0000   1.0000   1.0000   1.0000
     1.0000   1.0000   1.0000   1.0000   1.0000   1.0000   1.0000   1.0000
     1.0000   1.0000   1.0000   1.0000   1.0000   1.0000   1.0000   1.0000
     1.0000   1.0000   1.0000   1.0000   1.0000   1.0000   1.0000   1.0000
     1.0000   1.0000   1.0000   1.0000   1.0004   1.0017   1.0017   1.0832
     1.0351   1.0351   0.5664   0.5664   0.0001   0.0001   0.0000   0.0000
     0.0000   0.0000   0.0000   0.0000   0.0000   0.0000   0.0000   0.0000
     0.0000   0.0000   0.0000   0.0000   0.0000   0.0000   0.0000   0.0000
     0.0000   0.0000   0.0000   0.0000   0.0000   0.0000   0.0000   0.0000
     0.0000   0.0000   0.0000

          k = 0.0000 0.5685 0.0000 (249832 PWs)   bands (ev):

   -50.5691 -50.5690 -50.5689 -50.5688 -50.2105 -50.2105 -50.2105 -50.2105
   -49.5248 -49.5246 -49.5244 -49.5242 -49.4519 -49.4519 -49.4516 -49.4516
   -49.4351 -49.4295 -49.4279 -49.4279 -49.4276 -49.4254 -49.4247 -49.4247
   -49.4233 -49.4222 -49.4222 -49.4191 -49.4191 -49.4186 -49.4181 -49.4159
   -49.4123 -49.4123 -49.4107 -49.4093 -49.3941 -49.3941 -49.3927 -49.3927
   -49.3909 -49.3909 -49.3887 -49.3887  -5.9804  -5.7197  -5.2897  -4.8225
    -4.7887  -4.7887  -4.6858  -4.5579  -4.5238  -4.5238  -4.1182  -4.0903
    -4.0903  -3.9635  -3.6733  -3.6733  -3.5022  -3.4937  -3.4937  -3.3986
    -3.3986  -3.2073  -2.9763  -2.9763  -2.8287  -2.8093  -2.8093  -2.4704
    -2.4704  -2.2257  -2.1097  -2.1097  -2.0107  -1.9052  -1.6858  -1.4584
    -1.4584  -1.3693  -1.1349  -0.8163  -0.4950  -0.4865  -0.4379  -0.4379
    -0.3476  -0.2984  -0.1794  -0.1281  -0.1281  -0.1080   0.0863   0.3201
     0.3586   0.3588   0.3808

     occupation numbers 
     1.0000   1.0000   1.0000   1.0000   1.0000   1.0000   1.0000   1.0000
     1.0000   1.0000   1.0000   1.0000   1.0000   1.0000   1.0000   1.0000
     1.0000   1.0000   1.0000   1.0000   1.0000   1.0000   1.0000   1.0000
     1.0000   1.0000   1.0000   1.0000   1.0000   1.0000   1.0000   1.0000
     1.0000   1.0000   1.0000   1.0000   1.0000   1.0000   1.0000   1.0000
     1.0000   1.0000   1.0000   1.0000   1.0000   1.0000   1.0000   1.0000
     1.0000   1.0000   1.0000   1.0000   1.0000   1.0000   1.0000   1.0000
     1.0000   1.0000   1.0000   1.0000   1.0000   1.0000   1.0000   1.0001
     1.0001   1.0236   0.7885   0.7885   0.1187   0.0793   0.0793   0.0000
     0.0000   0.0000   0.0000   0.0000   0.0000   0.0000   0.0000   0.0000
     0.0000   0.0000   0.0000   0.0000   0.0000   0.0000   0.0000   0.0000
     0.0000   0.0000   0.0000   0.0000   0.0000   0.0000   0.0000   0.0000
     0.0000   0.0000   0.0000

          k = 0.0000 0.7107 0.0000 (249892 PWs)   bands (ev):

   -50.5691 -50.5690 -50.5689 -50.5688 -50.2105 -50.2105 -50.2105 -50.2105
   -49.5248 -49.5246 -49.5244 -49.5242 -49.4519 -49.4519 -49.4516 -49.4516
   -49.4338 -49.4295 -49.4284 -49.4272 -49.4272 -49.4254 -49.4254 -49.4253
   -49.4238 -49.4221 -49.4221 -49.4191 -49.4191 -49.4186 -49.4183 -49.4162
   -49.4125 -49.4125 -49.4105 -49.4090 -49.3942 -49.3942 -49.3928 -49.3928
   -49.3910 -49.3910 -49.3886 -49.3886  -5.7634  -5.5021  -5.1835  -5.0726
    -4.9191  -4.5734  -4.5734  -4.5149  -4.4365  -4.3091  -4.3091  -4.0091
    -4.0091  -3.8967  -3.8835  -3.8835  -3.7346  -3.7346  -3.7195  -3.3523
    -3.3523  -3.2477  -3.2477  -3.1704  -3.0354  -2.7945  -2.7945  -2.6249
    -2.6249  -2.3508  -2.1742  -2.1742  -1.9370  -1.7280  -1.5752  -1.5752
    -1.4047  -1.3784  -0.9650  -0.8667  -0.8543  -0.6453  -0.4996  -0.4996
    -0.3512  -0.1086  -0.1086  -0.1031  -0.0714  -0.0147   0.0614   0.2915
     0.3648   0.4463   0.5631

     occupation numbers 
     1.0000   1.0000   1.0000   1.0000   1.0000   1.0000   1.0000   1.0000
     1.0000   1.0000   1.0000   1.0000   1.0000   1.0000   1.0000   1.0000
     1.0000   1.0000   1.0000   1.0000   1.0000   1.0000   1.0000   1.0000
     1.0000   1.0000   1.0000   1.0000   1.0000   1.0000   1.0000   1.0000
     1.0000   1.0000   1.0000   1.0000   1.0000   1.0000   1.0000   1.0000
     1.0000   1.0000   1.0000   1.0000   1.0000   1.0000   1.0000   1.0000
     1.0000   1.0000   1.0000   1.0000   1.0000   1.0000   1.0000   1.0000
     1.0000   1.0000   1.0000   1.0000   1.0000   1.0000   1.0000   1.0004
     1.0004   1.0095   1.0095   1.0450   1.0160   0.0568   0.0568   0.0002
     0.0002   0.0000   0.0000   0.0000   0.0000   0.0000   0.0000   0.0000
     0.0000   0.0000   0.0000   0.0000   0.0000   0.0000   0.0000   0.0000
     0.0000   0.0000   0.0000   0.0000   0.0000   0.0000   0.0000   0.0000
     0.0000   0.0000   0.0000

          k = 0.0000-0.8528 0.0000 (249810 PWs)   bands (ev):

   -50.5691 -50.5690 -50.5689 -50.5688 -50.2105 -50.2105 -50.2105 -50.2105
   -49.5248 -49.5246 -49.5244 -49.5241 -49.4519 -49.4519 -49.4516 -49.4516
   -49.4330 -49.4301 -49.4284 -49.4267 -49.4267 -49.4259 -49.4259 -49.4253
   -49.4240 -49.4220 -49.4220 -49.4191 -49.4191 -49.4187 -49.4183 -49.4162
   -49.4125 -49.4125 -49.4104 -49.4089 -49.3942 -49.3942 -49.3928 -49.3928
   -49.3910 -49.3910 -49.3886 -49.3886  -5.5037  -5.4917  -5.2419  -5.2299
    -4.8150  -4.7928  -4.3278  -4.3278  -4.2985  -4.2985  -4.2169  -4.1768
    -4.0618  -4.0618  -4.0331  -4.0331  -3.6341  -3.6341  -3.5999  -3.5999
    -3.4994  -3.4457  -3.0703  -3.0703  -3.0144  -3.0144  -2.9396  -2.5666
    -2.5666  -2.4648  -2.2277  -2.2277  -1.9012  -1.6084  -1.6084  -1.4238
    -1.4059  -1.3367  -1.0873  -1.0209  -0.8535  -0.5470  -0.5315  -0.5315
    -0.4693  -0.4271  -0.0870  -0.0870   0.1163   0.2107   0.2647   0.2955
     0.2975   0.3312   0.6069

     occupation numbers 
     1.0000   1.0000   1.0000   1.0000   1.0000   1.0000   1.0000   1.0000
     1.0000   1.0000   1.0000   1.0000   1.0000   1.0000   1.0000   1.0000
     1.0000   1.0000   1.0000   1.0000   1.0000   1.0000   1.0000   1.0000
     1.0000   1.0000   1.0000   1.0000   1.0000   1.0000   1.0000   1.0000
     1.0000   1.0000   1.0000   1.0000   1.0000   1.0000   1.0000   1.0000
     1.0000   1.0000   1.0000   1.0000   1.0000   1.0000   1.0000   1.0000
     1.0000   1.0000   1.0000   1.0000   1.0000   1.0000   1.0000   1.0000
     1.0000   1.0000   1.0000   1.0000   1.0000   1.0000   1.0000   1.0000
     1.0000   1.0000   1.0728   1.0728   0.9531   0.9531   0.5914   0.0000
     0.0000   0.0000   0.0000   0.0000   0.0000   0.0000   0.0000   0.0000
     0.0000   0.0000   0.0000   0.0000   0.0000   0.0000   0.0000   0.0000
     0.0000   0.0000   0.0000   0.0000   0.0000   0.0000   0.0000   0.0000
     0.0000   0.0000   0.0000

          k = 0.1429 0.0000 0.0000 (249958 PWs)   bands (ev):

   -50.5691 -50.5690 -50.5689 -50.5688 -50.2105 -50.2105 -50.2105 -50.2105
   -49.5249 -49.5247 -49.5245 -49.5243 -49.4519 -49.4519 -49.4516 -49.4516
   -49.4378 -49.4312 -49.4309 -49.4280 -49.4264 -49.4243 -49.4236 -49.4234
   -49.4227 -49.4219 -49.4206 -49.4204 -49.4195 -49.4181 -49.4168 -49.4145
   -49.4119 -49.4117 -49.4116 -49.4106 -49.3936 -49.3936 -49.3927 -49.3927
   -49.3908 -49.3907 -49.3891 -49.3891  -6.3412  -6.0814  -5.6523  -5.4907
[...]
     atom   10 type  1   force =    -0.00003704    0.02666638   -6.66321652
     atom   11 type  1   force =    -0.00000001   -0.02268490   -6.10695685
     atom   12 type  1   force =    -0.00000001    0.03368592   -2.45215857
     atom   13 type  1   force =    -0.00000001   -0.02790049    0.31241082
     atom   14 type  1   force =    -0.00000001    0.03300476    4.09157704
     atom   15 type  1   force =    -0.00005043    0.02268598    6.10722403
     atom   16 type  1   force =    -0.00022996   -0.03633832    9.02300014
     atom   17 type  1   force =    -0.00007442   -0.03368343    2.45218088
     atom   18 type  1   force =     0.00000000   -0.02673723    6.66398234
     atom   19 type  1   force =    -0.00000001    0.04926845   10.58791872
     atom   20 type  1   force =    -0.00000001   -0.04407342   12.97884079
     atom   21 type  1   force =    -0.00016951   -0.01390100   12.70104714
     atom   22 type  1   force =    -0.00021258    0.06679053   15.33939886
     atom   23 type  1   force =     0.00000002   -0.02966192   16.04050795
     atom   24 type  1   force =     0.00000989    0.02964633  -16.04065753
     atom   25 type  1   force =     0.00001823    0.04405056  -12.98036985
     atom   26 type  1   force =     0.00000002   -0.06679824  -15.33936259
     atom   27 type  1   force =    -0.00000000    0.01391183  -12.70122359
     atom   28 type  1   force =     0.00000002    0.03633341   -9.02298620
     atom   29 type  1   force =     0.00005462   -0.03303692   -4.09150893
     atom   30 type  1   force =     0.00007028    0.02789726   -0.31284325
     atom   31 type  1   force =     0.00002718   -0.04932970  -10.58766092
     atom   32 type  1   force =     0.00003704    0.02666636   -6.66321653
     atom   33 type  1   force =    -0.00000000   -0.02267986   -6.10747975
     atom   34 type  1   force =     0.00000003    0.03367868   -2.45219581
     atom   35 type  1   force =     0.00000003   -0.02789255    0.31327110
     atom   36 type  1   force =     0.00000003    0.03306952    4.09144064
     atom   37 type  1   force =     0.00005043    0.02268596    6.10722403
     atom   38 type  1   force =     0.00022995   -0.03633831    9.02300013
     atom   39 type  1   force =     0.00007440   -0.03368342    2.45218089
     atom   40 type  1   force =    -0.00000001   -0.02659748    6.66243444
     atom   41 type  1   force =     0.00000004    0.04939803   10.58740620
     atom   42 type  1   force =     0.00000004   -0.04403457   12.98187834
     atom   43 type  1   force =     0.00016948   -0.01390101   12.70104713
     atom   44 type  1   force =     0.00021256    0.06679053   15.33939888
     The local contribution  to forces
     atom    1 type  1   force =     0.00000137    0.02127619  -16.16820695
     atom    2 type  1   force =     0.00001689   -0.02130812   16.16804947
     atom    3 type  1   force =     0.00002084   -0.05712351   13.00883063
     atom    4 type  1   force =     0.00000136    0.06230674   15.43962880
     atom    5 type  1   force =    -0.00000000   -0.00300208   12.72194766
     atom    6 type  1   force =     0.00000136   -0.03764338    9.03398493
     atom    7 type  1   force =     0.00005848    0.03584153    4.09963393
     atom    8 type  1   force =     0.00007206   -0.03110229    0.30964462
     atom    9 type  1   force =     0.00003066    0.05359134   10.60822998
     atom   10 type  1   force =     0.00003985   -0.03035961    6.67019592
     atom   11 type  1   force =     0.00000000    0.02668401    6.11743591
     atom   12 type  1   force =     0.00000136   -0.03565130    2.45287835
     atom   13 type  1   force =     0.00000136    0.03110525   -0.30920955
     atom   14 type  1   force =     0.00000136   -0.03581088   -4.09970965
     atom   15 type  1   force =     0.00004968   -0.02668581   -6.11770615
     atom   16 type  1   force =     0.00024174    0.03765056   -9.03398039
     atom   17 type  1   force =     0.00007874    0.03564767   -2.45290406
     atom   18 type  1   force =     0.00000000    0.03043269   -6.67096318
     atom   19 type  1   force =     0.00000136   -0.05352898  -10.60848626
     atom   20 type  1   force =     0.00000136    0.05714980  -13.00727929
     atom   21 type  1   force =     0.00017661    0.00299993  -12.72213504
     atom   22 type  1   force =     0.00021237   -0.06229702  -15.43960349
     atom   23 type  1   force =     0.00000274    0.02132840  -16.16789071
     atom   24 type  1   force =    -0.00001415   -0.02130812   16.16804947
     atom   25 type  1   force =    -0.00001812   -0.05712351   13.00883063
     atom   26 type  1   force =     0.00000273    0.06230467   15.43956935
     atom   27 type  1   force =     0.00000135   -0.00301094   12.72231220
     atom   28 type  1   force =     0.00000272   -0.03764584    9.03396753
     atom   29 type  1   force =    -0.00005577    0.03584153    4.09963393
     atom   30 type  1   force =    -0.00006934   -0.03110229    0.30964462
     atom   31 type  1   force =    -0.00002794    0.05359134   10.60822998
     atom   32 type  1   force =    -0.00003712   -0.03035961    6.67019592
     atom   33 type  1   force =     0.00000136    0.02668010    6.11796319
     atom   34 type  1   force =     0.00000272   -0.03564173    2.45292040
     atom   35 type  1   force =     0.00000272    0.03109794   -0.31007690
     atom   36 type  1   force =     0.00000272   -0.03587241   -4.09955992
     atom   37 type  1   force =    -0.00004696   -0.02668581   -6.11770615
     atom   38 type  1   force =    -0.00023902    0.03765056   -9.03398039
     atom   39 type  1   force =    -0.00007602    0.03564767   -2.45290406
     atom   40 type  1   force =     0.00000136    0.03028862   -6.66941413
     atom   41 type  1   force =     0.00000272   -0.05366071  -10.60797901
     atom   42 type  1   force =     0.00000272    0.05710478  -13.01036295
     atom   43 type  1   force =    -0.00017390    0.00299993  -12.72213504
     atom   44 type  1   force =    -0.00020965   -0.06229702  -15.43960349
     The core correction contribution to forces
     atom    1 type  1   force =     0.00000000    0.00000000    0.00000000
     atom    2 type  1   force =     0.00000000    0.00000000    0.00000000
     atom    3 type  1   force =     0.00000000    0.00000000    0.00000000
     atom    4 type  1   force =     0.00000000    0.00000000    0.00000000
     atom    5 type  1   force =     0.00000000    0.00000000    0.00000000
     atom    6 type  1   force =     0.00000000    0.00000000    0.00000000
     atom    7 type  1   force =     0.00000000    0.00000000    0.00000000
     atom    8 type  1   force =     0.00000000    0.00000000    0.00000000
     atom    9 type  1   force =     0.00000000    0.00000000    0.00000000
     atom   10 type  1   force =     0.00000000    0.00000000    0.00000000
     atom   11 type  1   force =     0.00000000    0.00000000    0.00000000
     atom   12 type  1   force =     0.00000000    0.00000000    0.00000000
     atom   13 type  1   force =     0.00000000    0.00000000    0.00000000
     atom   14 type  1   force =     0.00000000    0.00000000    0.00000000
     atom   15 type  1   force =     0.00000000    0.00000000    0.00000000
     atom   16 type  1   force =     0.00000000    0.00000000    0.00000000
     atom   17 type  1   force =     0.00000000    0.00000000    0.00000000
     atom   18 type  1   force =     0.00000000    0.00000000    0.00000000
     atom   19 type  1   force =     0.00000000    0.00000000    0.00000000
     atom   20 type  1   force =     0.00000000    0.00000000    0.00000000
     atom   21 type  1   force =     0.00000000    0.00000000    0.00000000
     atom   22 type  1   force =     0.00000000    0.00000000    0.00000000
     atom   23 type  1   force =     0.00000000    0.00000000    0.00000000
     atom   24 type  1   force =     0.00000000    0.00000000    0.00000000
     atom   25 type  1   force =     0.00000000    0.00000000    0.00000000
     atom   26 type  1   force =     0.00000000    0.00000000    0.00000000
     atom   27 type  1   force =     0.00000000    0.00000000    0.00000000
     atom   28 type  1   force =     0.00000000    0.00000000    0.00000000
     atom   29 type  1   force =     0.00000000    0.00000000    0.00000000
     atom   30 type  1   force =     0.00000000    0.00000000    0.00000000
     atom   31 type  1   force =     0.00000000    0.00000000    0.00000000
     atom   32 type  1   force =     0.00000000    0.00000000    0.00000000
     atom   33 type  1   force =     0.00000000    0.00000000    0.00000000
     atom   34 type  1   force =     0.00000000    0.00000000    0.00000000
     atom   35 type  1   force =     0.00000000    0.00000000    0.00000000
     atom   36 type  1   force =     0.00000000    0.00000000    0.00000000
     atom   37 type  1   force =     0.00000000    0.00000000    0.00000000
     atom   38 type  1   force =     0.00000000    0.00000000    0.00000000
     atom   39 type  1   force =     0.00000000    0.00000000    0.00000000
     atom   40 type  1   force =     0.00000000    0.00000000    0.00000000
     atom   41 type  1   force =     0.00000000    0.00000000    0.00000000
     atom   42 type  1   force =     0.00000000    0.00000000    0.00000000
     atom   43 type  1   force =     0.00000000    0.00000000    0.00000000
     atom   44 type  1   force =     0.00000000    0.00000000    0.00000000
     The Hubbard contrib.    to forces
     atom    1 type  1   force =     0.00000000    0.00000000    0.00000000
     atom    2 type  1   force =     0.00000000    0.00000000    0.00000000
     atom    3 type  1   force =     0.00000000    0.00000000    0.00000000
     atom    4 type  1   force =     0.00000000    0.00000000    0.00000000
     atom    5 type  1   force =     0.00000000    0.00000000    0.00000000
     atom    6 type  1   force =     0.00000000    0.00000000    0.00000000
     atom    7 type  1   force =     0.00000000    0.00000000    0.00000000
     atom    8 type  1   force =     0.00000000    0.00000000    0.00000000
     atom    9 type  1   force =     0.00000000    0.00000000    0.00000000
     atom   10 type  1   force =     0.00000000    0.00000000    0.00000000
     atom   11 type  1   force =     0.00000000    0.00000000    0.00000000
     atom   12 type  1   force =     0.00000000    0.00000000    0.00000000
     atom   13 type  1   force =     0.00000000    0.00000000    0.00000000
     atom   14 type  1   force =     0.00000000    0.00000000    0.00000000
     atom   15 type  1   force =     0.00000000    0.00000000    0.00000000
     atom   16 type  1   force =     0.00000000    0.00000000    0.00000000
     atom   17 type  1   force =     0.00000000    0.00000000    0.00000000
     atom   18 type  1   force =     0.00000000    0.00000000    0.00000000
     atom   19 type  1   force =     0.00000000    0.00000000    0.00000000
     atom   20 type  1   force =     0.00000000    0.00000000    0.00000000
     atom   21 type  1   force =     0.00000000    0.00000000    0.00000000
     atom   22 type  1   force =     0.00000000    0.00000000    0.00000000
     atom   23 type  1   force =     0.00000000    0.00000000    0.00000000
     atom   24 type  1   force =     0.00000000    0.00000000    0.00000000
     atom   25 type  1   force =     0.00000000    0.00000000    0.00000000
     atom   26 type  1   force =     0.00000000    0.00000000    0.00000000
     atom   27 type  1   force =     0.00000000    0.00000000    0.00000000
     atom   28 type  1   force =     0.00000000    0.00000000    0.00000000
     atom   29 type  1   force =     0.00000000    0.00000000    0.00000000
     atom   30 type  1   force =     0.00000000    0.00000000    0.00000000
     atom   31 type  1   force =     0.00000000    0.00000000    0.00000000
     atom   32 type  1   force =     0.00000000    0.00000000    0.00000000
     atom   33 type  1   force =     0.00000000    0.00000000    0.00000000
     atom   34 type  1   force =     0.00000000    0.00000000    0.00000000
     atom   35 type  1   force =     0.00000000    0.00000000    0.00000000
     atom   36 type  1   force =     0.00000000    0.00000000    0.00000000
     atom   37 type  1   force =     0.00000000    0.00000000    0.00000000
     atom   38 type  1   force =     0.00000000    0.00000000    0.00000000
     atom   39 type  1   force =     0.00000000    0.00000000    0.00000000
     atom   40 type  1   force =     0.00000000    0.00000000    0.00000000
     atom   41 type  1   force =     0.00000000    0.00000000    0.00000000
     atom   42 type  1   force =     0.00000000    0.00000000    0.00000000
     atom   43 type  1   force =     0.00000000    0.00000000    0.00000000
     atom   44 type  1   force =     0.00000000    0.00000000    0.00000000
     The SCF correction term to forces
     atom    1 type  1   force =    -0.00000000    0.00000002   -0.00000001
     atom    2 type  1   force =    -0.00000001    0.00000002   -0.00000005
     atom    3 type  1   force =    -0.00000001   -0.00000001   -0.00000011
     atom    4 type  1   force =     0.00000000    0.00000002   -0.00000006
     atom    5 type  1   force =    -0.00000000    0.00000000   -0.00000009
     atom    6 type  1   force =    -0.00000000   -0.00000000   -0.00000011
     atom    7 type  1   force =    -0.00000001   -0.00000000   -0.00000007
     atom    8 type  1   force =    -0.00000000    0.00000001   -0.00000002
     atom    9 type  1   force =    -0.00000000    0.00000001   -0.00000008
     atom   10 type  1   force =    -0.00000000    0.00000000   -0.00000010
     atom   11 type  1   force =    -0.00000000    0.00000000   -0.00000011
     atom   12 type  1   force =    -0.00000000    0.00000000   -0.00000006
     atom   13 type  1   force =     0.00000000   -0.00000001    0.00000001
     atom   14 type  1   force =    -0.00000000   -0.00000000    0.00000005
     atom   15 type  1   force =    -0.00000001   -0.00000001    0.00000007
     atom   16 type  1   force =     0.00000000    0.00000001    0.00000010
     atom   17 type  1   force =    -0.00000000   -0.00000001    0.00000005
     atom   18 type  1   force =    -0.00000000    0.00000001    0.00000010
     atom   19 type  1   force =    -0.00000000   -0.00000001    0.00000008
     atom   20 type  1   force =     0.00000000   -0.00000000    0.00000008
     atom   21 type  1   force =    -0.00000000    0.00000001    0.00000008
     atom   22 type  1   force =     0.00000003    0.00000001    0.00000012
     atom   23 type  1   force =     0.00000000    0.00000000   -0.00000010
     atom   24 type  1   force =     0.00000001    0.00000002   -0.00000005
     atom   25 type  1   force =     0.00000001   -0.00000001   -0.00000011
     atom   26 type  1   force =    -0.00000000    0.00000006   -0.00000010
     atom   27 type  1   force =     0.00000000    0.00000001   -0.00000007
     atom   28 type  1   force =    -0.00000000    0.00000000   -0.00000010
     atom   29 type  1   force =     0.00000001   -0.00000000   -0.00000007
     atom   30 type  1   force =     0.00000000    0.00000001   -0.00000002
     atom   31 type  1   force =     0.00000000    0.00000001   -0.00000008
     atom   32 type  1   force =     0.00000000    0.00000000   -0.00000010
     atom   33 type  1   force =    -0.00000000    0.00000001   -0.00000012
     atom   34 type  1   force =    -0.00000000    0.00000001   -0.00000006
     atom   35 type  1   force =     0.00000000   -0.00000001    0.00000000
     atom   36 type  1   force =    -0.00000000    0.00000000    0.00000006
     atom   37 type  1   force =     0.00000001   -0.00000001    0.00000007
     atom   38 type  1   force =    -0.00000000    0.00000001    0.00000010
     atom   39 type  1   force =     0.00000000   -0.00000001    0.00000005
     atom   40 type  1   force =    -0.00000000    0.00000001    0.00000009
     atom   41 type  1   force =     0.00000000   -0.00000001    0.00000009
     atom   42 type  1   force =     0.00000000    0.00000002    0.00000007
     atom   43 type  1   force =     0.00000000    0.00000001    0.00000008
     atom   44 type  1   force =    -0.00000003    0.00000001    0.00000012

     Total force =     0.001134     Total SCF correction =     0.000001

     Writing all to output data dir ./Li/Lithium.save/ :
     XML data file
     init_run     :     19.24s CPU     27.38s WALL (       1 calls)
     electrons    :   1478.94s CPU   1906.39s WALL (       1 calls)
     forces       :     20.34s CPU     22.09s WALL (       1 calls)

     Called by init_run:
     wfcinit      :      2.94s CPU      3.89s WALL (       1 calls)
     wfcinit:wfcr :      2.71s CPU      3.66s WALL (      14 calls)
     potinit      :      0.95s CPU      1.00s WALL (       1 calls)
     hinit0       :      3.90s CPU      4.35s WALL (       1 calls)

     Called by electrons:
     c_bands      :   1271.87s CPU   1650.85s WALL (      41 calls)
     sum_band     :     53.48s CPU     74.84s WALL (      41 calls)
     v_of_rho     :      2.74s CPU      3.30s WALL (      42 calls)
     v_h          :      0.25s CPU      0.31s WALL (      42 calls)
     v_xc         :      2.48s CPU      2.98s WALL (      42 calls)
     newd         :      1.45s CPU      1.60s WALL (      42 calls)
     PAW_pot      :      0.39s CPU      0.52s WALL (      42 calls)
     mix_rho      :      7.98s CPU     10.07s WALL (      41 calls)

     Called by c_bands:
     init_us_2    :     10.73s CPU     10.90s WALL (    1176 calls)
     cegterg      :   1182.34s CPU   1426.71s WALL (     871 calls)

     Called by sum_band:
     sum_band:wei :      0.08s CPU      0.10s WALL (      41 calls)
     sum_band:loo :     51.37s CPU     72.39s WALL (      41 calls)
     sum_band:buf :      0.90s CPU      0.98s WALL (     574 calls)
     sum_band:ini :      5.35s CPU      5.38s WALL (     574 calls)
     sum_band:cal :      9.34s CPU     10.33s WALL (     574 calls)
     sum_band:bec :      0.12s CPU      0.13s WALL (     574 calls)
     addusdens    :      1.45s CPU      1.51s WALL (      41 calls)
                                        0.00s GPU  (      41 calls)
     addusd:skk   :      0.39s CPU      0.39s WALL (      41 calls)
                                        0.00s GPU  (      41 calls)

     Called by *egterg:
     cdiaghg      :    438.33s CPU    452.97s WALL (   13228 calls)
     cegterg:over :     59.27s CPU     63.93s WALL (   12424 calls)
     cegterg:upda :     55.10s CPU     56.41s WALL (   12424 calls)
     cegterg:last :     19.24s CPU     19.37s WALL (    1142 calls)
     h_psi        :    522.62s CPU    743.68s WALL (   13309 calls)
     s_psi        :     65.20s CPU     65.79s WALL (   13309 calls)
     g_psi        :      0.68s CPU      0.72s WALL (   12424 calls)

     Called by h_psi:
     h_psi:calbec :     74.34s CPU     85.18s WALL (   13309 calls)
     vloc_psi     :    379.32s CPU    587.80s WALL (   13309 calls)
                                        0.00s GPU  (   13309 calls)
     add_vuspsi   :     66.99s CPU     68.50s WALL (   13309 calls)

     General routines
     calbec       :     84.38s CPU     96.28s WALL (   13939 calls)
     fft          :      3.41s CPU      4.11s WALL (     546 calls)
     ffts         :      6.19s CPU      7.64s WALL (    5003 calls)
     fftw         :    399.69s CPU    620.84s WALL (  667208 calls)
     interpolate  :      1.08s CPU      1.14s WALL (      42 calls)

     Parallel routines

     PAW routines
     PAW_pot      :      0.39s CPU      0.52s WALL (      42 calls)
     PAW_symme    :      0.02s CPU      0.03s WALL (      83 calls)

     Environ routines

     PWSCF        :  25m18.63s CPU  32m36.18s WALL


   This run was terminated on:   5:40:17   3Jan2025            

=------------------------------------------------------------------------------=
   JOB DONE.
=------------------------------------------------------------------------------=
