
     Program PWSCF v.7.4 starts on  4Jan2025 at 23:42:25 
        Git branch: develop
        Last git commit: e877ff360aceba4b8d76ffc2fb1c70545fc5dd57
        Last git commit date: Sat Jan 4 12:56:15 2025 +0000
        Last git commit subject: Merge branch 'orthoU' into 'develop'

     This program is part of the open-source Quantum ESPRESSO suite
     for quantum simulation of materials; please cite
         "P. Giannozzi et al., J. Phys.:Condens. Matter 21 395502 (2009);
         "P. Giannozzi et al., J. Phys.:Condens. Matter 29 465901 (2017);
         "P. Giannozzi et al., J. Chem. Phys. 152 154105 (2020);
          URL http://www.quantum-espresso.org", 
     in publications or presentations arising from this work. More details at
     http://www.quantum-espresso.org/quote

     Parallel version (MPI), running on   360 processors

     MPI processes distributed on     9 nodes
     176994 MiB available memory on the printing compute node when the environment starts
 
     Reading input from espresso.pwi
Warning: card &CELL ignored
Warning: card    PRESS_CONV_THR   = 0.1 ignored
Warning: card    CELL_DOFREE      = 'ALL' ignored
Warning: card / ignored
Warning: card &FCP ignored
Warning: card / ignored
Warning: card &RISM ignored
Warning: card / ignored

     Current dimensions of program PWSCF are:
     Max number of different atomic species (ntypx) = 10
     Max number of k-points (npk) =  40000
     Max angular momentum in pseudopotentials (lmaxx) =  4

     IMPORTANT: XC functional enforced from input :
     Exchange-correlation= PBE
                           (   1   4   3   4   0   0   0)
     Any further DFT definition will be discarded
     Please, verify this is what you really want

 
     Reading input from environ.in:
     * using ionic solvent mode
     * setting boundary derivatives method to SSCS default
     * setting electrolyte-boundary derivatives method to SSCS default

Environ Warning (1001): card EOF ignored

     
     Found identity + (  0.5000  0.0000 -0.0000) symmetry
     This is a supercell, fractional translations are disabled
 
     K-points division:     npool     =       2
     R & G space division:  proc/nbgrp/npool/nimage =     180
     Subspace diagonalization in iterative solution of the eigenvalue problem:
     a serial algorithm will be used

 
     Parallelization info
     --------------------
     sticks:   dense  smooth     PW     G-vecs:    dense   smooth      PW
     Min          66      26      7                35664     9000    1225
     Max          67      27      8                35727     9059    1269
     Sum       11999    4803   1285              6425037  1625491  225007
 
     Using Slab Decomposition
 


     bravais-lattice index     =            8
     lattice parameter (alat)  =      12.9830  a.u.
     unit-cell volume          =   16814.9378 (a.u.)^3
     number of atoms/cell      =           20
     number of atomic types    =            1
     number of electrons       =        60.00
     number of Kohn-Sham states=           45
     kinetic-energy cutoff     =      80.0000  Ry
     charge density cutoff     =     800.0000  Ry
     scf convergence threshold =      1.0E-06
     mixing beta               =       0.2000
     number of iterations used =            8  local-TF  mixing
     energy convergence thresh.=      1.0E-05
     force convergence thresh. =      3.9E-04
     Exchange-correlation= PBE
                           (   1   4   3   4   0   0   0)
     nstep                     =          999


     ================================================================================
 
                                  Environ Setup Summary

     ================================================================================
 
     Please cite

          O. Andreussi, I. Dabo and N. Marzari, J. Chem. Phys. 136, 064102 (2012)
          F. Nattino, M. Truscott, N. Marzari, and O. Andreussi, J. Chem. Phys. 150, 041722 (2019)

     in publications or presentations arising from this work.

     ================================================================================
 
     Parameters
     ==========

     compensation onset threshold      =               0.1000E+00
     static permittivity               =                    89.90
     surface tension in input (dyn/cm) =                    37.30
     surface tension in internal units =               0.4792E-04

     Solvent Boundary
     ================

     solvent mode                      =                    ionic
     derivatives method                =                   lowmem
     electrolyte derivatives method    =                   lowmem
     numerical core for derivatives    =                      fft
     switching function adopted        =                     SCCS
     density limit for vacuum region   =               0.5000E-02
     density limit for bulk solvent    =               0.1000E-03
     soft-sphere radius mode           =                    bondi
     soft-sphere softness              =                     0.50
     alpha                             =                     1.32

     Electrostatic Setup
     ===================

     electrostatic problem to solve    =                    modpb
     numerical solver adopted          =                   newton
     type of auxiliary density adopted =                     none
     numerical core for poisson        =                      fft
     adopting a nested solver scheme
     inner solver                      =                       cg
     inner core                        =                      fft
     type of pbc corrections           =                parabolic
     numerical core for corrections    =                      1da

     ================================================================================
 

     >>>>> Grand-Canonical SCF is activated <<<<<
     Initial Total Charge  =     0.000000 e
     Target Fermi Energy   =    -3.904000 eV
     Thr. of Fermi Energy  =     0.001000 eV
     Wave-shift of Kerker  =     0.400000 bohr^-1
     Wave-shift of Hartree =     1.500000 bohr^-1
     Mixing Rate of Fermi  =     0.050000

     celldm(1)=  12.983009  celldm(2)=   1.118034  celldm(3)=   6.872491
     celldm(4)=   0.000000  celldm(5)=   0.000000  celldm(6)=   0.000000

     crystal axes: (cart. coord. in units of alat)
               a(1) = (   1.000000   0.000000   0.000000 )  
               a(2) = (   0.000000   1.118034   0.000000 )  
               a(3) = (   0.000000   0.000000   6.872491 )  

     reciprocal axes: (cart. coord. in units 2 pi/alat)
               b(1) = (  1.000000  0.000000  0.000000 )  
               b(2) = (  0.000000  0.894427  0.000000 )  
               b(3) = (  0.000000  0.000000  0.145508 )  


     PseudoPot. # 1 for Li read from file:
     /home/mmm1182/Repos/Pseudopotentials/pslibrary/Li.pbe-sl-kjpaw_psl.1.0.0.UPF
     MD5 check sum: f40bb4162937df3f7c561f1969c76545
     Pseudo is Projector augmented-wave, Zval =  3.0
     Generated using 'atomic' code by A. Dal Corso  v.7.3.1
     Shape of augmentation charge: PSQ
     Using radial grid of 1017 points,  4 beta functions with: 
                l(1) =   0
                l(2) =   0
                l(3) =   1
                l(4) =   1
     Q(r) pseudized with 0 coefficients 


     atomic species   valence    mass     pseudopotential
     Li                3.00     6.94000     Li( 1.00)

      2 Sym. Ops. (no inversion) found


                                    s                        frac. trans.

      isym =  1     identity                                     

 cryst.   s( 1) = (     1          0          0      )
                  (     0          1          0      )
                  (     0          0          1      )

 cart.    s( 1) = (  1.0000000  0.0000000  0.0000000 )
                  (  0.0000000  1.0000000  0.0000000 )
                  (  0.0000000  0.0000000  1.0000000 )


      isym =  2     inv. 180 deg rotation - cart. axis [1,0,0]   

 cryst.   s( 2) = (    -1          0          0      )
                  (     0          1          0      )
                  (     0          0          1      )

 cart.    s( 2) = ( -1.0000000  0.0000000  0.0000000 )
                  (  0.0000000  1.0000000  0.0000000 )
                  (  0.0000000  0.0000000  1.0000000 )


     point group C_s (m)    
     there are  2 classes
     the character table:

       E     s    
A'     1.00  1.00
A''    1.00 -1.00

     the symmetry operations in each class and the name of the first element:

     E        1
          identity                                               
     s        2
          inv. 180 deg rotation - cart. axis [1,0,0]             

   Cartesian axes

     site n.     atom                  positions (alat units)
         1        Li     tau(   1) = (  -0.0000000   0.4639580   3.7024679  )
         2        Li     tau(   2) = (  -0.0000000   0.8879446   3.5022693  )
         3        Li     tau(   3) = (  -0.0000000   0.2262136   3.2627459  )
         4        Li     tau(   4) = (  -0.0000000   0.6184584   3.0240172  )
         5        Li     tau(   5) = (  -0.0000000   0.1061957   3.9808207  )
         6        Li     tau(   6) = (   0.2499983   0.5655020   3.3702158  )
         7        Li     tau(   7) = (   0.2499990   0.9894853   3.1700224  )
         8        Li     tau(   8) = (   0.2499999   0.2292084   2.8916791  )
         9        Li     tau(   9) = (   0.2499995   0.8349868   3.8484666  )
        10        Li     tau(  10) = (   0.2499974   0.1091967   3.6097449  )
        11        Li     tau(  11) = (   0.5000000   0.4639599   3.7024644  )
        12        Li     tau(  12) = (   0.5000000   0.8879476   3.5022707  )
        13        Li     tau(  13) = (   0.5000000   0.2262134   3.2627482  )
        14        Li     tau(  14) = (   0.5000000   0.6184584   3.0240199  )
        15        Li     tau(  15) = (   0.5000000   0.1061970   3.9808129  )
        16        Li     tau(  16) = (   0.7500017   0.5655020   3.3702158  )
        17        Li     tau(  17) = (   0.7500010   0.9894853   3.1700224  )
        18        Li     tau(  18) = (   0.7500001   0.2292084   2.8916791  )
        19        Li     tau(  19) = (   0.7500004   0.8349868   3.8484666  )
        20        Li     tau(  20) = (   0.7500026   0.1091967   3.6097449  )

   Crystallographic axes

     site n.     atom                  positions (cryst. coord.)
         1        Li     tau(   1) = ( -0.0000000  0.4149767  0.5387374  )
         2        Li     tau(   2) = ( -0.0000000  0.7942018  0.5096070  )
         3        Li     tau(   3) = ( -0.0000000  0.2023316  0.4747545  )
         4        Li     tau(   4) = ( -0.0000000  0.5531660  0.4400176  )
         5        Li     tau(   5) = ( -0.0000000  0.0949843  0.5792399  )
         6        Li     tau(   6) = (  0.2499983  0.5058003  0.4903922  )
         7        Li     tau(   7) = (  0.2499990  0.8850226  0.4612625  )
         8        Li     tau(   8) = (  0.2499999  0.2050102  0.4207614  )
         9        Li     tau(   9) = (  0.2499995  0.7468349  0.5599813  )
        10        Li     tau(  10) = (  0.2499974  0.0976685  0.5252455  )
        11        Li     tau(  11) = (  0.5000000  0.4149784  0.5387369  )
        12        Li     tau(  12) = (  0.5000000  0.7942044  0.5096072  )
        13        Li     tau(  13) = (  0.5000000  0.2023314  0.4747548  )
        14        Li     tau(  14) = (  0.5000000  0.5531660  0.4400180  )
        15        Li     tau(  15) = (  0.5000000  0.0949855  0.5792387  )
        16        Li     tau(  16) = (  0.7500017  0.5058003  0.4903922  )
        17        Li     tau(  17) = (  0.7500010  0.8850226  0.4612625  )
        18        Li     tau(  18) = (  0.7500001  0.2050102  0.4207614  )
        19        Li     tau(  19) = (  0.7500004  0.7468349  0.5599813  )
        20        Li     tau(  20) = (  0.7500026  0.0976685  0.5252455  )

     number of k points=    30  Marzari-Vanderbilt smearing, width (Ry)=  0.0100
                       cart. coord. in units 2pi/alat
        k(    1) = (   0.0000000   0.0000000   0.0000000), wk =   0.0222222
        k(    2) = (   0.0000000   0.0993808   0.0000000), wk =   0.0444444
        k(    3) = (   0.0000000   0.1987616   0.0000000), wk =   0.0444444
        k(    4) = (   0.0000000   0.2981424   0.0000000), wk =   0.0444444
        k(    5) = (   0.0000000   0.3975232   0.0000000), wk =   0.0444444
        k(    6) = (   0.1000000   0.0000000   0.0000000), wk =   0.0444444
        k(    7) = (   0.1000000   0.0993808   0.0000000), wk =   0.0888889
        k(    8) = (   0.1000000   0.1987616   0.0000000), wk =   0.0888889
        k(    9) = (   0.1000000   0.2981424   0.0000000), wk =   0.0888889
        k(   10) = (   0.1000000   0.3975232   0.0000000), wk =   0.0888889
        k(   11) = (   0.2000000   0.0000000   0.0000000), wk =   0.0444444
        k(   12) = (   0.2000000   0.0993808   0.0000000), wk =   0.0888889
        k(   13) = (   0.2000000   0.1987616   0.0000000), wk =   0.0888889
        k(   14) = (   0.2000000   0.2981424   0.0000000), wk =   0.0888889
        k(   15) = (   0.2000000   0.3975232   0.0000000), wk =   0.0888889
        k(   16) = (   0.3000000   0.0000000   0.0000000), wk =   0.0444444
        k(   17) = (   0.3000000   0.0993808   0.0000000), wk =   0.0888889
        k(   18) = (   0.3000000   0.1987616   0.0000000), wk =   0.0888889
        k(   19) = (   0.3000000   0.2981424   0.0000000), wk =   0.0888889
        k(   20) = (   0.3000000   0.3975232   0.0000000), wk =   0.0888889
        k(   21) = (   0.4000000   0.0000000   0.0000000), wk =   0.0444444
        k(   22) = (   0.4000000   0.0993808   0.0000000), wk =   0.0888889
        k(   23) = (   0.4000000   0.1987616   0.0000000), wk =   0.0888889
        k(   24) = (   0.4000000   0.2981424   0.0000000), wk =   0.0888889
        k(   25) = (   0.4000000   0.3975232   0.0000000), wk =   0.0888889
        k(   26) = (  -0.5000000   0.0000000   0.0000000), wk =   0.0222222
        k(   27) = (  -0.5000000   0.0993808   0.0000000), wk =   0.0444444
        k(   28) = (  -0.5000000   0.1987616   0.0000000), wk =   0.0444444
        k(   29) = (  -0.5000000   0.2981424   0.0000000), wk =   0.0444444
        k(   30) = (  -0.5000000   0.3975232   0.0000000), wk =   0.0444444

                       cryst. coord.
        k(    1) = (   0.0000000   0.0000000   0.0000000), wk =   0.0222222
        k(    2) = (   0.0000000   0.1111111   0.0000000), wk =   0.0444444
        k(    3) = (   0.0000000   0.2222222   0.0000000), wk =   0.0444444
        k(    4) = (   0.0000000   0.3333333   0.0000000), wk =   0.0444444
        k(    5) = (   0.0000000   0.4444444   0.0000000), wk =   0.0444444
        k(    6) = (   0.1000000   0.0000000   0.0000000), wk =   0.0444444
        k(    7) = (   0.1000000   0.1111111   0.0000000), wk =   0.0888889
        k(    8) = (   0.1000000   0.2222222   0.0000000), wk =   0.0888889
        k(    9) = (   0.1000000   0.3333333   0.0000000), wk =   0.0888889
        k(   10) = (   0.1000000   0.4444444   0.0000000), wk =   0.0888889
        k(   11) = (   0.2000000   0.0000000   0.0000000), wk =   0.0444444
        k(   12) = (   0.2000000   0.1111111   0.0000000), wk =   0.0888889
        k(   13) = (   0.2000000   0.2222222   0.0000000), wk =   0.0888889
        k(   14) = (   0.2000000   0.3333333   0.0000000), wk =   0.0888889
        k(   15) = (   0.2000000   0.4444444   0.0000000), wk =   0.0888889
        k(   16) = (   0.3000000   0.0000000   0.0000000), wk =   0.0444444
        k(   17) = (   0.3000000   0.1111111   0.0000000), wk =   0.0888889
        k(   18) = (   0.3000000   0.2222222   0.0000000), wk =   0.0888889
        k(   19) = (   0.3000000   0.3333333   0.0000000), wk =   0.0888889
        k(   20) = (   0.3000000   0.4444444   0.0000000), wk =   0.0888889
        k(   21) = (   0.4000000   0.0000000   0.0000000), wk =   0.0444444
        k(   22) = (   0.4000000   0.1111111   0.0000000), wk =   0.0888889
        k(   23) = (   0.4000000   0.2222222   0.0000000), wk =   0.0888889
        k(   24) = (   0.4000000   0.3333333   0.0000000), wk =   0.0888889
        k(   25) = (   0.4000000   0.4444444   0.0000000), wk =   0.0888889
        k(   26) = (  -0.5000000   0.0000000   0.0000000), wk =   0.0222222
        k(   27) = (  -0.5000000   0.1111111   0.0000000), wk =   0.0444444
        k(   28) = (  -0.5000000   0.2222222   0.0000000), wk =   0.0444444
        k(   29) = (  -0.5000000   0.3333333   0.0000000), wk =   0.0444444
        k(   30) = (  -0.5000000   0.4444444   0.0000000), wk =   0.0444444

     Dense  grid:  6425037 G-vectors     FFT dimensions: ( 120, 135, 810)

     Smooth grid:  1625491 G-vectors     FFT dimensions: (  75,  90, 512)

     Dynamical RAM for                 wfc:       0.77 MB

     Dynamical RAM for     wfc (w. buffer):      12.39 MB

     Dynamical RAM for           str. fact:       0.54 MB

     Dynamical RAM for           local pot:       0.00 MB

     Dynamical RAM for          nlocal pot:       2.75 MB

     Dynamical RAM for                qrad:       0.65 MB

     Dynamical RAM for          rho,v,vnew:       3.49 MB

     Dynamical RAM for               rhoin:       1.16 MB

     Dynamical RAM for            rho*nmix:       8.72 MB

     Dynamical RAM for           G-vectors:       2.11 MB

     Dynamical RAM for          h,s,v(r/c):       1.48 MB

     Dynamical RAM for          <psi|beta>:       0.11 MB

     Dynamical RAM for                 psi:       3.10 MB

     Dynamical RAM for                hpsi:       3.10 MB

     Dynamical RAM for                spsi:       3.10 MB

     Dynamical RAM for      wfcinit/wfcrot:       1.60 MB

     Dynamical RAM for           addusdens:      17.44 MB

     Dynamical RAM for          addusforce:      27.80 MB

     Estimated static dynamical RAM per process >      27.28 MB

     Estimated max dynamical RAM per process >      98.04 MB

     Estimated total dynamical RAM >      20.90 GB

     Initial potential from superposition of free atoms

     starting charge      59.9078, renormalised to      60.0000

     negative rho (up, down):  2.761E-03 0.000E+00
     Starting wfcs are random
     Checking if some PAW data can be deallocated... 

     total cpu time spent up to now is        7.8 secs

     per-process dynamical memory:   112.3 Mb

     Self-consistent Calculation

     iteration #  1     ecut=    80.00 Ry     beta= 0.20
     Davidson diagonalization with overlap

---- Real-time Memory Report at c_bands before calling an iterative solver
           349 MiB given to the printing process from OS
           109 MiB allocation reported by mallinfo(arena+hblkhd)
        173174 MiB available memory on the node where the printing process lives
------------------
     c_bands:  1 eigenvalues not converged
     ethr =  1.00E-12,  avg # of iterations =108.6

     negative rho (up, down):  2.026E-03 0.000E+00

     add environment contribution to local potential

     total cpu time spent up to now is       79.5 secs

     total energy              =    -300.72142504 Ry
     estimated scf accuracy    <       0.09782009 Ry

     total charge of GC-SCF    =       0.05708365 e
     the Fermi energy          =      -4.60298650 eV
                        (error :       0.69898650 eV)
     electrostatic embedding   =       0.00000000 Ry
     cavitation energy         =       0.02293695 Ry
     electrolyte free energy   =       0.00723735 Ry
     correction to one-el term =       0.00000000 Ry

     iteration #  2     ecut=    80.00 Ry     beta= 0.20
     Davidson diagonalization with overlap

---- Real-time Memory Report at c_bands before calling an iterative solver
           349 MiB given to the printing process from OS
           150 MiB allocation reported by mallinfo(arena+hblkhd)
        172117 MiB available memory on the node where the printing process lives
------------------
     ethr =  1.00E-05,  avg # of iterations = 12.1

     negative rho (up, down):  1.461E-03 0.000E+00

     add environment contribution to local potential

     total cpu time spent up to now is       91.9 secs

     total energy              =    -300.59608592 Ry
     estimated scf accuracy    <       0.02927934 Ry

     total charge of GC-SCF    =       0.14317354 e
     the Fermi energy          =      -3.70492378 eV
                        (error :       0.19907622 eV)
     electrostatic embedding   =      -0.02831677 Ry
     cavitation energy         =       0.02293695 Ry
     electrolyte free energy   =      -0.00492300 Ry
     correction to one-el term =      -2.62412435 Ry

     iteration #  3     ecut=    80.00 Ry     beta= 0.20
     Davidson diagonalization with overlap

---- Real-time Memory Report at c_bands before calling an iterative solver
           349 MiB given to the printing process from OS
           150 MiB allocation reported by mallinfo(arena+hblkhd)
        172119 MiB available memory on the node where the printing process lives
------------------
     ethr =  1.00E-05,  avg # of iterations = 10.2

     negative rho (up, down):  1.135E-03 0.000E+00

     add environment contribution to local potential

     total cpu time spent up to now is      104.4 secs

     total energy              =    -300.65388824 Ry
     estimated scf accuracy    <       0.00687844 Ry

     total charge of GC-SCF    =       0.27139525 e
     the Fermi energy          =      -3.11857073 eV
                        (error :       0.78542927 eV)
     electrostatic embedding   =      -0.02838096 Ry
     cavitation energy         =       0.02293695 Ry
     electrolyte free energy   =      -0.00362940 Ry
     correction to one-el term =      -4.75397765 Ry

     iteration #  4     ecut=    80.00 Ry     beta= 0.20
     Davidson diagonalization with overlap

---- Real-time Memory Report at c_bands before calling an iterative solver
           349 MiB given to the printing process from OS
           150 MiB allocation reported by mallinfo(arena+hblkhd)
        172121 MiB available memory on the node where the printing process lives
------------------
     ethr =  1.00E-05,  avg # of iterations =  8.1

     negative rho (up, down):  9.348E-04 0.000E+00

     add environment contribution to local potential

     total cpu time spent up to now is      115.2 secs

     total energy              =    -300.66904324 Ry
     estimated scf accuracy    <       0.00228978 Ry

     total charge of GC-SCF    =       0.44868319 e
     the Fermi energy          =      -2.96385248 eV
                        (error :       0.94014752 eV)
     electrostatic embedding   =      -0.03643028 Ry
     cavitation energy         =       0.02293695 Ry
     electrolyte free energy   =      -0.00288699 Ry
     correction to one-el term =      -7.26050171 Ry

     iteration #  5     ecut=    80.00 Ry     beta= 0.20
     Davidson diagonalization with overlap

---- Real-time Memory Report at c_bands before calling an iterative solver
           349 MiB given to the printing process from OS
           150 MiB allocation reported by mallinfo(arena+hblkhd)
        172116 MiB available memory on the node where the printing process lives
------------------
     ethr =  3.85E-06,  avg # of iterations = 10.3

     negative rho (up, down):  8.135E-04 0.000E+00

     add environment contribution to local potential

     total cpu time spent up to now is      127.1 secs

     total energy              =    -300.67084296 Ry
     estimated scf accuracy    <       0.00102767 Ry

     total charge of GC-SCF    =       0.75489564 e
     the Fermi energy          =      -2.93059058 eV
                        (error :       0.97340942 eV)
     electrostatic embedding   =      -0.06113959 Ry
     cavitation energy         =       0.02293695 Ry
     electrolyte free energy   =      -0.00284468 Ry
     correction to one-el term =     -10.87218923 Ry

     iteration #  6     ecut=    80.00 Ry     beta= 0.20
     Davidson diagonalization with overlap

---- Real-time Memory Report at c_bands before calling an iterative solver
           349 MiB given to the printing process from OS
           150 MiB allocation reported by mallinfo(arena+hblkhd)
        172109 MiB available memory on the node where the printing process lives
------------------
     ethr =  1.73E-06,  avg # of iterations = 12.3

     negative rho (up, down):  6.918E-04 0.000E+00

     add environment contribution to local potential

     total cpu time spent up to now is      139.9 secs

     total energy              =    -300.72749974 Ry
     estimated scf accuracy    <       0.00055534 Ry

     total charge of GC-SCF    =       0.75423372 e
     the Fermi energy          =      -2.99051359 eV
                        (error :       0.91348641 eV)
     electrostatic embedding   =      -0.13474114 Ry
     cavitation energy         =       0.02293695 Ry
     electrolyte free energy   =      -0.00359228 Ry
     correction to one-el term =     -17.94884848 Ry

     iteration #  7     ecut=    80.00 Ry     beta= 0.20
     Davidson diagonalization with overlap

---- Real-time Memory Report at c_bands before calling an iterative solver
           349 MiB given to the printing process from OS
           150 MiB allocation reported by mallinfo(arena+hblkhd)
        172094 MiB available memory on the node where the printing process lives
------------------
     ethr =  9.37E-07,  avg # of iterations =  2.2

     negative rho (up, down):  5.937E-04 0.000E+00

     add environment contribution to local potential

     total cpu time spent up to now is      148.6 secs

     total energy              =    -300.73011408 Ry
     estimated scf accuracy    <       0.00055554 Ry

     total charge of GC-SCF    =       0.74056227 e
     the Fermi energy          =      -2.98870055 eV
                        (error :       0.91529945 eV)
     electrostatic embedding   =      -0.13456553 Ry
     cavitation energy         =       0.02293695 Ry
     electrolyte free energy   =      -0.00358416 Ry
     correction to one-el term =     -17.91848307 Ry

     iteration #  8     ecut=    80.00 Ry     beta= 0.20
     Davidson diagonalization with overlap

---- Real-time Memory Report at c_bands before calling an iterative solver
           349 MiB given to the printing process from OS
           150 MiB allocation reported by mallinfo(arena+hblkhd)
        172084 MiB available memory on the node where the printing process lives
------------------
     ethr =  9.37E-07,  avg # of iterations =  1.5

     negative rho (up, down):  6.775E-04 0.000E+00

     add environment contribution to local potential

     total cpu time spent up to now is      157.3 secs

     total energy              =    -300.69240536 Ry
     estimated scf accuracy    <       0.00055666 Ry

     total charge of GC-SCF    =       0.96993415 e
     the Fermi energy          =      -2.98168376 eV
                        (error :       0.92231624 eV)
     electrostatic embedding   =      -0.13051109 Ry
     cavitation energy         =       0.02293695 Ry
     electrolyte free energy   =      -0.00353013 Ry
     correction to one-el term =     -17.55470948 Ry

     iteration #  9     ecut=    80.00 Ry     beta= 0.20
     Davidson diagonalization with overlap

---- Real-time Memory Report at c_bands before calling an iterative solver
           349 MiB given to the printing process from OS
           150 MiB allocation reported by mallinfo(arena+hblkhd)
        172079 MiB available memory on the node where the printing process lives
------------------
     ethr =  9.37E-07,  avg # of iterations = 11.7

     negative rho (up, down):  6.835E-04 0.000E+00

     add environment contribution to local potential

     total cpu time spent up to now is      170.1 secs

     total energy              =    -300.71115673 Ry
     estimated scf accuracy    <       0.00046124 Ry

     total charge of GC-SCF    =       1.12495828 e
     the Fermi energy          =      -3.07601448 eV
                        (error :       0.82798552 eV)
     electrostatic embedding   =      -0.20991655 Ry
     cavitation energy         =       0.02293695 Ry
     electrolyte free energy   =      -0.00446552 Ry
     correction to one-el term =     -23.62427860 Ry

     iteration # 10     ecut=    80.00 Ry     beta= 0.20
     Davidson diagonalization with overlap

---- Real-time Memory Report at c_bands before calling an iterative solver
           349 MiB given to the printing process from OS
           150 MiB allocation reported by mallinfo(arena+hblkhd)
        172080 MiB available memory on the node where the printing process lives
------------------
     ethr =  7.83E-07,  avg # of iterations = 11.2

     negative rho (up, down):  2.489E-03 0.000E+00

     add environment contribution to local potential

     total cpu time spent up to now is      183.6 secs

     total energy              =    -300.72240862 Ry
     estimated scf accuracy    <       0.00029735 Ry

     total charge of GC-SCF    =       1.71265773 e
     the Fermi energy          =      -3.14958873 eV
                        (error :       0.75441127 eV)
     electrostatic embedding   =      -0.27869061 Ry
     cavitation energy         =       0.02293695 Ry
     electrolyte free energy   =      -0.00532381 Ry
     correction to one-el term =     -28.21566174 Ry

     iteration # 11     ecut=    80.00 Ry     beta= 0.20
     Davidson diagonalization with overlap

---- Real-time Memory Report at c_bands before calling an iterative solver
           349 MiB given to the printing process from OS
           150 MiB allocation reported by mallinfo(arena+hblkhd)
        172080 MiB available memory on the node where the printing process lives
------------------
     ethr =  5.10E-07,  avg # of iterations = 19.3

     negative rho (up, down):  1.749E-03 0.000E+00

     add environment contribution to local potential

     total cpu time spent up to now is      201.3 secs

     total energy              =    -300.74698838 Ry
     estimated scf accuracy    <       0.00029718 Ry

     total charge of GC-SCF    =       1.83208683 e
     the Fermi energy          =      -3.41471389 eV
                        (error :       0.48928611 eV)
     electrostatic embedding   =      -0.64411750 Ry
     cavitation energy         =       0.02293695 Ry
     electrolyte free energy   =      -0.00950134 Ry
     correction to one-el term =     -44.40894623 Ry

     iteration # 12     ecut=    80.00 Ry     beta= 0.20
     Davidson diagonalization with overlap

---- Real-time Memory Report at c_bands before calling an iterative solver
           349 MiB given to the printing process from OS
           150 MiB allocation reported by mallinfo(arena+hblkhd)
        172077 MiB available memory on the node where the printing process lives
------------------
     ethr =  5.10E-07,  avg # of iterations = 13.0

     negative rho (up, down):  8.329E-04 0.000E+00

     add environment contribution to local potential

     total cpu time spent up to now is      215.3 secs

     total energy              =    -300.75840373 Ry
     estimated scf accuracy    <       0.00022809 Ry

     total charge of GC-SCF    =       1.83683471 e
     the Fermi energy          =      -3.56221014 eV
                        (error :       0.34178986 eV)
     electrostatic embedding   =      -0.74729996 Ry
     cavitation energy         =       0.02293695 Ry
     electrolyte free energy   =      -0.01111587 Ry
     correction to one-el term =     -48.25636297 Ry

     iteration # 13     ecut=    80.00 Ry     beta= 0.20
     Davidson diagonalization with overlap

---- Real-time Memory Report at c_bands before calling an iterative solver
           349 MiB given to the printing process from OS
           150 MiB allocation reported by mallinfo(arena+hblkhd)
        172074 MiB available memory on the node where the printing process lives
------------------
     ethr =  3.92E-07,  avg # of iterations = 10.9

     negative rho (up, down):  4.225E-04 0.000E+00

     add environment contribution to local potential

     total cpu time spent up to now is      227.9 secs

     total energy              =    -300.75504833 Ry
     estimated scf accuracy    <       0.00018301 Ry

     total charge of GC-SCF    =       1.90758368 e
     the Fermi energy          =      -3.57218558 eV
                        (error :       0.33181442 eV)
     electrostatic embedding   =      -0.74975180 Ry
     cavitation energy         =       0.02293695 Ry
     electrolyte free energy   =      -0.01116144 Ry
     correction to one-el term =     -48.30683665 Ry

     iteration # 14     ecut=    80.00 Ry     beta= 0.20
     Davidson diagonalization with overlap

---- Real-time Memory Report at c_bands before calling an iterative solver
           349 MiB given to the printing process from OS
           150 MiB allocation reported by mallinfo(arena+hblkhd)
        172060 MiB available memory on the node where the printing process lives
------------------
     ethr =  3.15E-07,  avg # of iterations = 10.4

     negative rho (up, down):  3.828E-04 0.000E+00

     add environment contribution to local potential

     total cpu time spent up to now is      241.0 secs

     total energy              =    -300.76557178 Ry
     estimated scf accuracy    <       0.00014462 Ry

     total charge of GC-SCF    =       1.81162253 e
     the Fermi energy          =      -3.63825348 eV
                        (error :       0.26574652 eV)
     electrostatic embedding   =      -0.81065718 Ry
     cavitation energy         =       0.02293695 Ry
     electrolyte free energy   =      -0.01197008 Ry
     correction to one-el term =     -50.27515868 Ry

     iteration # 15     ecut=    80.00 Ry     beta= 0.20
     Davidson diagonalization with overlap

---- Real-time Memory Report at c_bands before calling an iterative solver
           349 MiB given to the printing process from OS
           150 MiB allocation reported by mallinfo(arena+hblkhd)
        172072 MiB available memory on the node where the printing process lives
------------------
     ethr =  2.49E-07,  avg # of iterations = 10.9

     negative rho (up, down):  3.125E-04 0.000E+00

     add environment contribution to local potential

     total cpu time spent up to now is      253.3 secs

     total energy              =    -300.77931223 Ry
     estimated scf accuracy    <       0.00011757 Ry

     total charge of GC-SCF    =       1.60512002 e
     the Fermi energy          =      -3.58102202 eV
                        (error :       0.32297798 eV)
     electrostatic embedding   =      -0.73153986 Ry
     cavitation energy         =       0.02293695 Ry
     electrolyte free energy   =      -0.01103961 Ry
     correction to one-el term =     -47.79405903 Ry

     iteration # 16     ecut=    80.00 Ry     beta= 0.20
     Davidson diagonalization with overlap

---- Real-time Memory Report at c_bands before calling an iterative solver
           349 MiB given to the printing process from OS
           150 MiB allocation reported by mallinfo(arena+hblkhd)
        172073 MiB available memory on the node where the printing process lives
------------------
     ethr =  2.01E-07,  avg # of iterations = 16.9

     negative rho (up, down):  2.950E-04 0.000E+00

     add environment contribution to local potential

     total cpu time spent up to now is      268.7 secs

     total energy              =    -300.74708896 Ry
     estimated scf accuracy    <       0.00007674 Ry

     total charge of GC-SCF    =       1.73085599 e
     the Fermi energy          =      -3.46453258 eV
                        (error :       0.43946742 eV)
     electrostatic embedding   =      -0.57346711 Ry
     cavitation energy         =       0.02293695 Ry
     electrolyte free energy   =      -0.00918006 Ry
     correction to one-el term =     -42.26963010 Ry

     iteration # 17     ecut=    80.00 Ry     beta= 0.20
     Davidson diagonalization with overlap

---- Real-time Memory Report at c_bands before calling an iterative solver
           349 MiB given to the printing process from OS
           150 MiB allocation reported by mallinfo(arena+hblkhd)
        172068 MiB available memory on the node where the printing process lives
------------------
     ethr =  1.32E-07,  avg # of iterations = 16.0

     negative rho (up, down):  4.132E-04 0.000E+00

     add environment contribution to local potential

     total cpu time spent up to now is      283.7 secs

     total energy              =    -300.75335739 Ry
     estimated scf accuracy    <       0.00005056 Ry

     total charge of GC-SCF    =       1.95017654 e
     the Fermi energy          =      -3.54198675 eV
                        (error :       0.36201325 eV)
     electrostatic embedding   =      -0.66764788 Ry
     cavitation energy         =       0.02293695 Ry
     electrolyte free energy   =      -0.01029434 Ry
     correction to one-el term =     -45.62831520 Ry

     iteration # 18     ecut=    80.00 Ry     beta= 0.20
     Davidson diagonalization with overlap

---- Real-time Memory Report at c_bands before calling an iterative solver
           349 MiB given to the printing process from OS
           150 MiB allocation reported by mallinfo(arena+hblkhd)
        172072 MiB available memory on the node where the printing process lives
------------------
     ethr =  8.71E-08,  avg # of iterations = 19.7

     negative rho (up, down):  4.021E-04 0.000E+00

     add environment contribution to local potential

     total cpu time spent up to now is      301.3 secs

     total energy              =    -300.75873538 Ry
     estimated scf accuracy    <       0.00002520 Ry

     total charge of GC-SCF    =       1.96138888 e
     the Fermi energy          =      -3.68485942 eV
                        (error :       0.21914058 eV)
     electrostatic embedding   =      -0.85153790 Ry
     cavitation energy         =       0.02293695 Ry
     electrolyte free energy   =      -0.01248683 Ry
     correction to one-el term =     -51.53577904 Ry

     iteration # 19     ecut=    80.00 Ry     beta= 0.20
     Davidson diagonalization with overlap

---- Real-time Memory Report at c_bands before calling an iterative solver
           349 MiB given to the printing process from OS
           150 MiB allocation reported by mallinfo(arena+hblkhd)
        172074 MiB available memory on the node where the printing process lives
------------------
     ethr =  4.34E-08,  avg # of iterations =  9.4

     negative rho (up, down):  6.321E-04 0.000E+00

     add environment contribution to local potential

     total cpu time spent up to now is      313.0 secs

     total energy              =    -300.75814559 Ry
     estimated scf accuracy    <       0.00002328 Ry

     total charge of GC-SCF    =       2.06674126 e
     the Fermi energy          =      -3.69658121 eV
                        (error :       0.20741879 eV)
     electrostatic embedding   =      -0.86063295 Ry
     cavitation energy         =       0.02293695 Ry
     electrolyte free energy   =      -0.01261066 Ry
     correction to one-el term =     -51.80308452 Ry

     iteration # 20     ecut=    80.00 Ry     beta= 0.20
     Davidson diagonalization with overlap

---- Real-time Memory Report at c_bands before calling an iterative solver
           349 MiB given to the printing process from OS
           150 MiB allocation reported by mallinfo(arena+hblkhd)
        172070 MiB available memory on the node where the printing process lives
------------------
     ethr =  4.02E-08,  avg # of iterations = 19.8

     negative rho (up, down):  5.920E-04 0.000E+00

     add environment contribution to local potential

     total cpu time spent up to now is      329.1 secs

     total energy              =    -300.76174457 Ry
     estimated scf accuracy    <       0.00001591 Ry

     total charge of GC-SCF    =       2.22695423 e
     the Fermi energy          =      -3.75257883 eV
                        (error :       0.15142117 eV)
     electrostatic embedding   =      -0.95503263 Ry
     cavitation energy         =       0.02293695 Ry
     electrolyte free energy   =      -0.01371233 Ry
     correction to one-el term =     -54.50342109 Ry

     iteration # 21     ecut=    80.00 Ry     beta= 0.20
     Davidson diagonalization with overlap

---- Real-time Memory Report at c_bands before calling an iterative solver
           349 MiB given to the printing process from OS
           150 MiB allocation reported by mallinfo(arena+hblkhd)
        172073 MiB available memory on the node where the printing process lives
------------------
     ethr =  2.75E-08,  avg # of iterations = 21.1

     negative rho (up, down):  3.877E-04 0.000E+00

     add environment contribution to local potential

     total cpu time spent up to now is      347.8 secs

     total energy              =    -300.76106988 Ry
     estimated scf accuracy    <       0.00000901 Ry

     total charge of GC-SCF    =       2.18874766 e
     the Fermi energy          =      -3.85321927 eV
                        (error :       0.05078073 eV)
     electrostatic embedding   =      -1.10866470 Ry
     cavitation energy         =       0.02293695 Ry
     electrolyte free energy   =      -0.01558775 Ry
     correction to one-el term =     -58.63240622 Ry

     iteration # 22     ecut=    80.00 Ry     beta= 0.20
     Davidson diagonalization with overlap

---- Real-time Memory Report at c_bands before calling an iterative solver
           349 MiB given to the printing process from OS
           150 MiB allocation reported by mallinfo(arena+hblkhd)
        172063 MiB available memory on the node where the printing process lives
------------------
     ethr =  1.56E-08,  avg # of iterations = 12.7

     negative rho (up, down):  3.906E-04 0.000E+00

     add environment contribution to local potential

     total cpu time spent up to now is      361.6 secs

     total energy              =    -300.76022382 Ry
     estimated scf accuracy    <       0.00000282 Ry

     total charge of GC-SCF    =       2.22409652 e
     the Fermi energy          =      -3.84661969 eV
                        (error :       0.05738031 eV)
     electrostatic embedding   =      -1.07080765 Ry
     cavitation energy         =       0.02293695 Ry
     electrolyte free energy   =      -0.01516492 Ry
     correction to one-el term =     -57.66531716 Ry

     iteration # 23     ecut=    80.00 Ry     beta= 0.20
     Davidson diagonalization with overlap

---- Real-time Memory Report at c_bands before calling an iterative solver
           349 MiB given to the printing process from OS
           150 MiB allocation reported by mallinfo(arena+hblkhd)
        172070 MiB available memory on the node where the printing process lives
------------------
     ethr =  4.88E-09,  avg # of iterations = 18.2

     negative rho (up, down):  4.006E-04 0.000E+00

     add environment contribution to local potential

     total cpu time spent up to now is      377.9 secs

     total energy              =    -300.76028574 Ry
     estimated scf accuracy    <       0.00000131 Ry

     total charge of GC-SCF    =       2.25262369 e
     the Fermi energy          =      -3.87990654 eV
                        (error :       0.02409346 eV)
     electrostatic embedding   =      -1.10631638 Ry
     cavitation energy         =       0.02293695 Ry
     electrolyte free energy   =      -0.01561491 Ry
     correction to one-el term =     -58.59529201 Ry

     iteration # 24     ecut=    80.00 Ry     beta= 0.20
     Davidson diagonalization with overlap

---- Real-time Memory Report at c_bands before calling an iterative solver
           349 MiB given to the printing process from OS
           150 MiB allocation reported by mallinfo(arena+hblkhd)
        172066 MiB available memory on the node where the printing process lives
------------------
     ethr =  2.27E-09,  avg # of iterations = 18.8

     negative rho (up, down):  3.667E-04 0.000E+00

     add environment contribution to local potential

     total cpu time spent up to now is      394.8 secs

     total energy              =    -300.76013369 Ry
     estimated scf accuracy    <       0.00000049 Ry

     total charge of GC-SCF    =       2.25287461 e
     the Fermi energy          =      -3.90147315 eV
                        (error :       0.00252685 eV)
     electrostatic embedding   =      -1.13553089 Ry
     cavitation energy         =       0.02293695 Ry
     electrolyte free energy   =      -0.01597585 Ry
     correction to one-el term =     -59.34619329 Ry

     iteration # 25     ecut=    80.00 Ry     beta= 0.20
     Davidson diagonalization with overlap

---- Real-time Memory Report at c_bands before calling an iterative solver
           349 MiB given to the printing process from OS
           150 MiB allocation reported by mallinfo(arena+hblkhd)
        172069 MiB available memory on the node where the printing process lives
------------------
     ethr =  8.41E-10,  avg # of iterations = 10.5

     negative rho (up, down):  3.502E-04 0.000E+00

     add environment contribution to local potential

     total cpu time spent up to now is      408.0 secs

     total energy              =    -300.76013529 Ry
     estimated scf accuracy    <       0.00000023 Ry

     total charge of GC-SCF    =       2.25778828 e
     the Fermi energy          =      -3.90185691 eV
                        (error :       0.00214309 eV)
     electrostatic embedding   =      -1.13582935 Ry
     cavitation energy         =       0.02293695 Ry
     electrolyte free energy   =      -0.01597873 Ry
     correction to one-el term =     -59.35124867 Ry

     iteration # 26     ecut=    80.00 Ry     beta= 0.20
     Davidson diagonalization with overlap

---- Real-time Memory Report at c_bands before calling an iterative solver
           349 MiB given to the printing process from OS
           150 MiB allocation reported by mallinfo(arena+hblkhd)
        172071 MiB available memory on the node where the printing process lives
------------------
     ethr =  3.97E-10,  avg # of iterations = 12.4

     negative rho (up, down):  3.343E-04 0.000E+00

     add environment contribution to local potential

     total cpu time spent up to now is      422.7 secs

     total energy              =    -300.76011499 Ry
     estimated scf accuracy    <       0.00000010 Ry

     total charge of GC-SCF    =       2.25789937 e
     the Fermi energy          =      -3.90531061 eV
                        (error :       0.00131061 eV)
     electrostatic embedding   =      -1.14094169 Ry
     cavitation energy         =       0.02293695 Ry
     electrolyte free energy   =      -0.01604075 Ry
     correction to one-el term =     -59.48082038 Ry

     iteration # 27     ecut=    80.00 Ry     beta= 0.20
     Davidson diagonalization with overlap

---- Real-time Memory Report at c_bands before calling an iterative solver
           349 MiB given to the printing process from OS
           150 MiB allocation reported by mallinfo(arena+hblkhd)
        172072 MiB available memory on the node where the printing process lives
------------------
     ethr =  1.67E-10,  avg # of iterations =  9.2

     negative rho (up, down):  3.324E-04 0.000E+00

     add environment contribution to local potential

     total cpu time spent up to now is      435.8 secs

     total energy              =    -300.76011266 Ry
     estimated scf accuracy    <       0.00000002 Ry

     total charge of GC-SCF    =       2.25668097 e
     the Fermi energy          =      -3.90595407 eV
                        (error :       0.00195407 eV)
     electrostatic embedding   =      -1.14110544 Ry
     cavitation energy         =       0.02293695 Ry
     electrolyte free energy   =      -0.01604376 Ry
     correction to one-el term =     -59.48692699 Ry

     iteration # 28     ecut=    80.00 Ry     beta= 0.20
     Davidson diagonalization with overlap

---- Real-time Memory Report at c_bands before calling an iterative solver
           349 MiB given to the printing process from OS
           150 MiB allocation reported by mallinfo(arena+hblkhd)
        172064 MiB available memory on the node where the printing process lives
------------------
     ethr =  3.18E-11,  avg # of iterations = 16.8

     negative rho (up, down):  3.361E-04 0.000E+00

     total cpu time spent up to now is      445.3 secs

     End of self-consistent calculation

          k = 0.0000 0.0000 0.0000 (203379 PWs)   bands (ev):

   -51.6653 -51.6653 -51.6640 -51.6640 -51.2704 -51.2704 -51.2690 -51.2689
   -50.8498 -50.8496 -50.8483 -50.8481 -50.4185 -50.4123 -50.4123 -50.4095
   -50.3647 -50.3605 -50.3605 -50.3586  -7.0755  -6.0902  -5.2207  -5.1084
    -4.6959  -4.6618  -4.6618  -4.2120  -3.7980  -3.7559  -3.7559  -3.2201
    -3.2201  -2.7500  -2.7500  -2.7009  -2.5713  -2.5713  -2.5294  -2.1244
    -1.6947  -0.7825  -0.7825  -0.6033  -0.5983

     occupation numbers 
     1.0000   1.0000   1.0000   1.0000   1.0000   1.0000   1.0000   1.0000
     1.0000   1.0000   1.0000   1.0000   1.0000   1.0000   1.0000   1.0000
     1.0000   1.0000   1.0000   1.0000   1.0000   1.0000   1.0000   1.0000
     1.0000   1.0000   1.0000   1.0218   0.0606   0.0210   0.0210   0.0000
     0.0000   0.0000   0.0000   0.0000   0.0000   0.0000   0.0000   0.0000
     0.0000   0.0000   0.0000   0.0000   0.0000

          k = 0.0000 0.0994 0.0000 (203275 PWs)   bands (ev):

   -51.6653 -51.6653 -51.6640 -51.6640 -51.2704 -51.2704 -51.2690 -51.2689
   -50.8498 -50.8496 -50.8483 -50.8481 -50.4185 -50.4123 -50.4123 -50.4095
   -50.3647 -50.3605 -50.3605 -50.3586  -7.0521  -6.0737  -5.5447  -4.8339
    -4.6716  -4.6410  -4.6410  -4.3160  -3.7582  -3.7582  -3.5856  -3.3394
    -3.3394  -2.8327  -2.7927  -2.7927  -2.5932  -2.4054  -2.4054  -1.9107
    -1.6637  -0.8227  -0.8119  -0.8119  -0.3837

     occupation numbers 
     1.0000   1.0000   1.0000   1.0000   1.0000   1.0000   1.0000   1.0000
     1.0000   1.0000   1.0000   1.0000   1.0000   1.0000   1.0000   1.0000
     1.0000   1.0000   1.0000   1.0000   1.0000   1.0000   1.0000   1.0000
     1.0000   1.0000   1.0000   1.0013   0.0224   0.0224   0.0000   0.0000
     0.0000   0.0000   0.0000   0.0000   0.0000   0.0000   0.0000   0.0000
     0.0000   0.0000   0.0000   0.0000   0.0000

          k = 0.0000 0.1988 0.0000 (203225 PWs)   bands (ev):

   -51.6653 -51.6653 -51.6640 -51.6640 -51.2704 -51.2704 -51.2690 -51.2689
   -50.8498 -50.8496 -50.8483 -50.8481 -50.4185 -50.4123 -50.4123 -50.4095
   -50.3647 -50.3605 -50.3605 -50.3586  -6.9818  -6.0611  -5.8347  -4.9862
    -4.5787  -4.5786  -4.4137  -4.2178  -3.8001  -3.8001  -3.5161  -3.5161
    -3.2504  -3.1230  -2.8609  -2.8609  -2.5204  -2.1219  -2.1219  -1.8708
    -1.3549  -0.9650  -0.8148  -0.8148  -0.2480

     occupation numbers 
     1.0000   1.0000   1.0000   1.0000   1.0000   1.0000   1.0000   1.0000
     1.0000   1.0000   1.0000   1.0000   1.0000   1.0000   1.0000   1.0000
     1.0000   1.0000   1.0000   1.0000   1.0000   1.0000   1.0000   1.0000
     1.0000   1.0000   1.0000   1.0194   0.0635   0.0635   0.0000   0.0000
     0.0000   0.0000   0.0000   0.0000   0.0000   0.0000   0.0000   0.0000
     0.0000   0.0000   0.0000   0.0000   0.0000

          k = 0.0000 0.2981 0.0000 (203169 PWs)   bands (ev):

   -51.6653 -51.6653 -51.6640 -51.6640 -51.2704 -51.2704 -51.2690 -51.2689
   -50.8498 -50.8496 -50.8483 -50.8481 -50.4185 -50.4123 -50.4123 -50.4096
   -50.3647 -50.3605 -50.3605 -50.3586  -6.8650  -6.2508  -5.8377  -5.2309
    -4.4755  -4.4755  -4.3405  -3.9566  -3.9566  -3.8113  -3.5701  -3.5701
    -3.3879  -2.9538  -2.9349  -2.9349  -2.3852  -1.9794  -1.8741  -1.8740
    -1.1373  -0.8822  -0.7294  -0.7294  -0.4391

     occupation numbers 
     1.0000   1.0000   1.0000   1.0000   1.0000   1.0000   1.0000   1.0000
     1.0000   1.0000   1.0000   1.0000   1.0000   1.0000   1.0000   1.0000
     1.0000   1.0000   1.0000   1.0000   1.0000   1.0000   1.0000   1.0000
     1.0000   1.0000   1.0006   0.6810   0.6810   0.0816   0.0000   0.0000
     0.0000   0.0000   0.0000   0.0000   0.0000   0.0000   0.0000   0.0000
     0.0000   0.0000   0.0000   0.0000   0.0000

          k = 0.0000 0.3975 0.0000 (203234 PWs)   bands (ev):

   -51.6653 -51.6653 -51.6640 -51.6640 -51.2704 -51.2704 -51.2690 -51.2689
   -50.8498 -50.8496 -50.8483 -50.8481 -50.4184 -50.4123 -50.4123 -50.4096
   -50.3647 -50.3605 -50.3605 -50.3587  -6.7021  -6.4944  -5.7133  -5.4453
    -4.3341  -4.3341  -4.2760  -4.1531  -4.1531  -3.6148  -3.5628  -3.5628
    -3.4123  -2.9857  -2.9857  -2.8293  -2.2523  -2.1120  -1.7370  -1.7369
    -1.1258  -0.8710  -0.5888  -0.5888  -0.4135

     occupation numbers 
     1.0000   1.0000   1.0000   1.0000   1.0000   1.0000   1.0000   1.0000
     1.0000   1.0000   1.0000   1.0000   1.0000   1.0000   1.0000   1.0000
     1.0000   1.0000   1.0000   1.0000   1.0000   1.0000   1.0000   1.0000
     1.0007   1.0007   1.0046   1.0573   1.0573   0.0002   0.0000   0.0000
     0.0000   0.0000   0.0000   0.0000   0.0000   0.0000   0.0000   0.0000
     0.0000   0.0000   0.0000   0.0000   0.0000

          k = 0.1000 0.0000 0.0000 (203333 PWs)   bands (ev):

   -51.6653 -51.6653 -51.6640 -51.6640 -51.2703 -51.2703 -51.2690 -51.2690
   -50.8498 -50.8496 -50.8484 -50.8482 -50.4184 -50.4130 -50.4116 -50.4095
   -50.3647 -50.3610 -50.3601 -50.3586  -7.0515  -6.0658  -5.1963  -5.1218
    -5.0840  -4.6711  -4.1875  -4.1686  -4.1560  -3.7727  -3.5074  -3.3608
    -3.2247  -2.9455  -2.7434  -2.6791  -2.5002  -2.4795  -2.3995  -2.1018
    -1.6718  -0.9663  -0.6795  -0.5776  -0.5772

     occupation numbers 
     1.0000   1.0000   1.0000   1.0000   1.0000   1.0000   1.0000   1.0000
     1.0000   1.0000   1.0000   1.0000   1.0000   1.0000   1.0000   1.0000
     1.0000   1.0000   1.0000   1.0000   1.0000   1.0000   1.0000   1.0000
     1.0000   1.0000   1.0346   1.0467   1.0553   0.0327   0.0000   0.0000
     0.0000   0.0000   0.0000   0.0000   0.0000   0.0000   0.0000   0.0000
     0.0000   0.0000   0.0000   0.0000   0.0000

          k = 0.1000 0.0994 0.0000 (203258 PWs)   bands (ev):

   -51.6653 -51.6653 -51.6640 -51.6640 -51.2703 -51.2703 -51.2690 -51.2690
   -50.8498 -50.8496 -50.8484 -50.8482 -50.4184 -50.4130 -50.4116 -50.4095
   -50.3647 -50.3610 -50.3601 -50.3586  -7.0281  -6.0494  -5.5205  -5.0999
    -4.8090  -4.6470  -4.2915  -4.1584  -4.1375  -3.7294  -3.5597  -3.3239
    -3.1557  -2.9745  -2.8099  -2.7514  -2.5670  -2.5343  -2.1922  -1.8829
    -1.6441  -0.9647  -0.8011  -0.6534  -0.4471

     occupation numbers 
     1.0000   1.0000   1.0000   1.0000   1.0000   1.0000   1.0000   1.0000
     1.0000   1.0000   1.0000   1.0000   1.0000   1.0000   1.0000   1.0000
     1.0000   1.0000   1.0000   1.0000   1.0000   1.0000   1.0000   1.0000
     1.0000   1.0000   1.0029   1.0537   1.0678   0.0098   0.0000   0.0000
     0.0000   0.0000   0.0000   0.0000   0.0000   0.0000   0.0000   0.0000
     0.0000   0.0000   0.0000   0.0000   0.0000

          k = 0.1000 0.1988 0.0000 (203264 PWs)   bands (ev):

   -51.6653 -51.6653 -51.6640 -51.6640 -51.2703 -51.2703 -51.2690 -51.2690
   -50.8498 -50.8496 -50.8484 -50.8482 -50.4184 -50.4130 -50.4116 -50.4095
   -50.3647 -50.3610 -50.3601 -50.3586  -6.9579  -6.0369  -5.8105  -5.0342
    -4.9616  -4.3893  -4.1923  -4.1662  -4.0832  -3.9714  -3.3925  -3.2353
    -3.2234  -3.0995  -3.0139  -2.7458  -2.4959  -2.3234  -1.9521  -1.8439
    -1.3326  -1.0056  -0.9447  -0.5619  -0.4408

     occupation numbers 
     1.0000   1.0000   1.0000   1.0000   1.0000   1.0000   1.0000   1.0000
     1.0000   1.0000   1.0000   1.0000   1.0000   1.0000   1.0000   1.0000
     1.0000   1.0000   1.0000   1.0000   1.0000   1.0000   1.0000   1.0000
     1.0000   1.0001   1.0318   1.0483   1.0805   0.7602   0.0000   0.0000
     0.0000   0.0000   0.0000   0.0000   0.0000   0.0000   0.0000   0.0000
     0.0000   0.0000   0.0000   0.0000   0.0000

          k = 0.1000 0.2981 0.0000 (203250 PWs)   bands (ev):

   -51.6653 -51.6653 -51.6640 -51.6640 -51.2703 -51.2703 -51.2690 -51.2690
   -50.8498 -50.8496 -50.8484 -50.8482 -50.4184 -50.4130 -50.4116 -50.4096
   -50.3646 -50.3610 -50.3601 -50.3587  -6.8411  -6.2269  -5.8134  -5.2064
    -4.9250  -4.3533  -4.3162  -4.0103  -3.9720  -3.7841  -3.5047  -3.4273
    -3.3646  -3.0261  -2.9250  -2.7204  -2.3615  -2.0356  -1.9547  -1.7686
    -1.1112  -1.0279  -0.8644  -0.4443  -0.4336

     occupation numbers 
     1.0000   1.0000   1.0000   1.0000   1.0000   1.0000   1.0000   1.0000
     1.0000   1.0000   1.0000   1.0000   1.0000   1.0000   1.0000   1.0000
     1.0000   1.0000   1.0000   1.0000   1.0000   1.0000   1.0000   1.0000
     1.0000   1.0004   1.0013   0.9358   0.7630   0.0435   0.0000   0.0000
     0.0000   0.0000   0.0000   0.0000   0.0000   0.0000   0.0000   0.0000
     0.0000   0.0000   0.0000   0.0000   0.0000

          k = 0.1000 0.3975 0.0000 (203200 PWs)   bands (ev):

   -51.6653 -51.6653 -51.6640 -51.6640 -51.2703 -51.2703 -51.2690 -51.2690
   -50.8498 -50.8496 -50.8484 -50.8482 -50.4184 -50.4130 -50.4116 -50.4096
   -50.3646 -50.3610 -50.3601 -50.3587  -6.6782  -6.4705  -5.6890  -5.4209
    -4.7739  -4.5779  -4.2517  -3.9499  -3.8712  -3.6001  -3.5976  -3.5889
    -3.3852  -3.0239  -2.8005  -2.7093  -2.2296  -2.0885  -1.8269  -1.7179
    -1.1011  -0.8752  -0.8590  -0.5240  -0.4019

     occupation numbers 
     1.0000   1.0000   1.0000   1.0000   1.0000   1.0000   1.0000   1.0000
     1.0000   1.0000   1.0000   1.0000   1.0000   1.0000   1.0000   1.0000
     1.0000   1.0000   1.0000   1.0000   1.0000   1.0000   1.0000   1.0000
     1.0000   1.0000   1.0088   0.6447   0.2496   0.0001   0.0001   0.0001
     0.0000   0.0000   0.0000   0.0000   0.0000   0.0000   0.0000   0.0000
     0.0000   0.0000   0.0000   0.0000   0.0000

          k = 0.2000 0.0000 0.0000 (203263 PWs)   bands (ev):

   -51.6652 -51.6652 -51.6641 -51.6641 -51.2702 -51.2702 -51.2691 -51.2691
   -50.8497 -50.8495 -50.8485 -50.8483 -50.4181 -50.4138 -50.4110 -50.4095
   -50.3645 -50.3616 -50.3597 -50.3587  -6.9797  -5.9929  -5.5336  -5.1233
    -5.0111  -4.5968  -4.5587  -4.1142  -3.7677  -3.6972  -3.6675  -3.6014
    -3.2496  -2.8770  -2.8730  -2.6153  -2.4132  -2.3744  -2.1729  -2.0373
    -1.6032  -1.0046  -0.6924  -0.5252  -0.5000

     occupation numbers 
     1.0000   1.0000   1.0000   1.0000   1.0000   1.0000   1.0000   1.0000
     1.0000   1.0000   1.0000   1.0000   1.0000   1.0000   1.0000   1.0000
     1.0000   1.0000   1.0000   1.0000   1.0000   1.0000   1.0000   1.0000
     1.0000   1.0000   1.0000   1.0799   0.0288   0.0035   0.0012   0.0001
     0.0000   0.0000   0.0000   0.0000   0.0000   0.0000   0.0000   0.0000
     0.0000   0.0000   0.0000   0.0000   0.0000

          k = 0.2000 0.0994 0.0000 (203259 PWs)   bands (ev):

   -51.6652 -51.6652 -51.6641 -51.6641 -51.2702 -51.2702 -51.2691 -51.2691
   -50.8497 -50.8495 -50.8485 -50.8483 -50.4181 -50.4138 -50.4110 -50.4096
   -50.3645 -50.3616 -50.3597 -50.3587  -6.9563  -5.9765  -5.5110  -5.4482
    -4.7343  -4.5737  -4.5455  -4.2185  -4.0671  -3.6072  -3.4825  -3.3896
    -3.2649  -3.0203  -2.7432  -2.6993  -2.4894  -2.4180  -2.0848  -1.8013
    -1.5868  -1.0625  -0.7418  -0.6268  -0.3612

     occupation numbers 
     1.0000   1.0000   1.0000   1.0000   1.0000   1.0000   1.0000   1.0000
     1.0000   1.0000   1.0000   1.0000   1.0000   1.0000   1.0000   1.0000
     1.0000   1.0000   1.0000   1.0000   1.0000   1.0000   1.0000   1.0000
     1.0000   1.0000   1.0000   1.0191   1.0691   0.0001   0.0000   0.0000
     0.0000   0.0000   0.0000   0.0000   0.0000   0.0000   0.0000   0.0000
     0.0000   0.0000   0.0000   0.0000   0.0000

          k = 0.2000 0.1988 0.0000 (203186 PWs)   bands (ev):

   -51.6652 -51.6652 -51.6641 -51.6641 -51.2702 -51.2702 -51.2691 -51.2691
   -50.8497 -50.8495 -50.8485 -50.8483 -50.4181 -50.4138 -50.4111 -50.4096
   -50.3645 -50.3616 -50.3597 -50.3587  -6.8861  -5.9644  -5.7382  -5.4435
    -4.8878  -4.5457  -4.3348  -4.3163  -4.1163  -3.6357  -3.4552  -3.1429
    -3.1054  -3.0300  -2.9817  -2.6071  -2.4236  -2.3960  -1.9038  -1.7646
    -1.2684  -1.1760  -0.8880  -0.4886  -0.4657

     occupation numbers 
     1.0000   1.0000   1.0000   1.0000   1.0000   1.0000   1.0000   1.0000
     1.0000   1.0000   1.0000   1.0000   1.0000   1.0000   1.0000   1.0000
     1.0000   1.0000   1.0000   1.0000   1.0000   1.0000   1.0000   1.0000
     1.0000   1.0000   1.0007   1.0013   1.0791   0.0004   0.0000   0.0000
     0.0000   0.0000   0.0000   0.0000   0.0000   0.0000   0.0000   0.0000
     0.0000   0.0000   0.0000   0.0000   0.0000

          k = 0.2000 0.2981 0.0000 (203209 PWs)   bands (ev):

   -51.6652 -51.6652 -51.6641 -51.6641 -51.2702 -51.2702 -51.2691 -51.2691
   -50.8497 -50.8495 -50.8485 -50.8483 -50.4181 -50.4138 -50.4111 -50.4096
   -50.3644 -50.3616 -50.3597 -50.3587  -6.7693  -6.1550  -5.7407  -5.3311
    -5.1332  -4.7391  -4.3362  -4.2435  -3.8033  -3.7027  -3.4313  -3.2956
    -3.1261  -2.9159  -2.8389  -2.5274  -2.2924  -2.1932  -1.8819  -1.7286
    -1.2556  -1.0369  -0.8153  -0.5730  -0.4267

     occupation numbers 
     1.0000   1.0000   1.0000   1.0000   1.0000   1.0000   1.0000   1.0000
     1.0000   1.0000   1.0000   1.0000   1.0000   1.0000   1.0000   1.0000
     1.0000   1.0000   1.0000   1.0000   1.0000   1.0000   1.0000   1.0000
     1.0000   1.0000   1.0007   1.0108   0.0683   0.0042   0.0000   0.0000
     0.0000   0.0000   0.0000   0.0000   0.0000   0.0000   0.0000   0.0000
     0.0000   0.0000   0.0000   0.0000   0.0000

          k = 0.2000 0.3975 0.0000 (203166 PWs)   bands (ev):

   -51.6652 -51.6652 -51.6641 -51.6641 -51.2702 -51.2702 -51.2691 -51.2691
   -50.8497 -50.8495 -50.8485 -50.8483 -50.4181 -50.4138 -50.4111 -50.4096
   -50.3644 -50.3616 -50.3597 -50.3587  -6.6064  -6.3987  -5.6164  -5.3477
    -5.1749  -4.9730  -4.2359  -4.1793  -3.9742  -3.5119  -3.3611  -3.3035
    -3.1830  -2.9315  -2.7144  -2.4837  -2.1638  -2.0193  -1.9403  -1.6797
    -1.2202  -1.0317  -0.8295  -0.6304  -0.4350

     occupation numbers 
     1.0000   1.0000   1.0000   1.0000   1.0000   1.0000   1.0000   1.0000
     1.0000   1.0000   1.0000   1.0000   1.0000   1.0000   1.0000   1.0000
     1.0000   1.0000   1.0000   1.0000   1.0000   1.0000   1.0000   1.0000
     1.0000   1.0000   1.0129   1.0397   0.7744   0.0000   0.0000   0.0000
     0.0000   0.0000   0.0000   0.0000   0.0000   0.0000   0.0000   0.0000
     0.0000   0.0000   0.0000   0.0000   0.0000

          k = 0.3000 0.0000 0.0000 (203139 PWs)   bands (ev):

   -51.6650 -51.6650 -51.6642 -51.6642 -51.2701 -51.2701 -51.2692 -51.2692
   -50.8495 -50.8493 -50.8486 -50.8485 -50.4177 -50.4147 -50.4106 -50.4096
   -50.3642 -50.3621 -50.3594 -50.3587  -6.8599  -5.8965  -5.8715  -5.0024
    -4.9112  -4.8904  -4.4740  -4.0782  -3.9938  -3.9683  -3.5733  -3.5495
    -3.2052  -2.9188  -2.8010  -2.5139  -2.2714  -2.1782  -2.0532  -1.9426
    -1.4887  -1.0239  -0.8794  -0.5132  -0.3775

     occupation numbers 
     1.0000   1.0000   1.0000   1.0000   1.0000   1.0000   1.0000   1.0000
     1.0000   1.0000   1.0000   1.0000   1.0000   1.0000   1.0000   1.0000
     1.0000   1.0000   1.0000   1.0000   1.0000   1.0000   1.0000   1.0000
     1.0000   1.0000   1.0000   1.0780   0.8681   0.7439   0.0000   0.0000
     0.0000   0.0000   0.0000   0.0000   0.0000   0.0000   0.0000   0.0000
     0.0000   0.0000   0.0000   0.0000   0.0000

          k = 0.3000 0.0994 0.0000 (203174 PWs)   bands (ev):

   -51.6650 -51.6650 -51.6642 -51.6642 -51.2701 -51.2701 -51.2692 -51.2692
   -50.8495 -50.8493 -50.8486 -50.8485 -50.4177 -50.4147 -50.4106 -50.4096
   -50.3642 -50.3621 -50.3594 -50.3587  -6.8365  -5.8736  -5.8552  -5.3282
    -4.8965  -4.6108  -4.4525  -4.3957  -4.0982  -3.6792  -3.5621  -3.3560
    -3.2749  -2.9403  -2.6378  -2.5921  -2.3636  -2.2093  -2.0593  -1.6754
    -1.4949  -1.1238  -0.7904  -0.6806  -0.3063

     occupation numbers 
     1.0000   1.0000   1.0000   1.0000   1.0000   1.0000   1.0000   1.0000
     1.0000   1.0000   1.0000   1.0000   1.0000   1.0000   1.0000   1.0000
     1.0000   1.0000   1.0000   1.0000   1.0000   1.0000   1.0000   1.0000
     1.0000   1.0000   1.0000   1.0001   1.0833   0.0019   0.0000   0.0000
     0.0000   0.0000   0.0000   0.0000   0.0000   0.0000   0.0000   0.0000
     0.0000   0.0000   0.0000   0.0000   0.0000

          k = 0.3000 0.1988 0.0000 (203207 PWs)   bands (ev):

   -51.6650 -51.6650 -51.6642 -51.6642 -51.2701 -51.2701 -51.2692 -51.2692
   -50.8495 -50.8493 -50.8486 -50.8485 -50.4177 -50.4147 -50.4106 -50.4097
   -50.3642 -50.3621 -50.3594 -50.3587  -6.7663  -5.8438  -5.8049  -5.6179
    -4.8925  -4.7657  -4.6743  -4.1961  -3.9912  -3.8491  -3.3581  -3.1220
    -3.0117  -2.9173  -2.9133  -2.3733  -2.3083  -2.2568  -1.9999  -1.6384
    -1.2561  -1.1741  -0.8194  -0.7023  -0.3022

     occupation numbers 
     1.0000   1.0000   1.0000   1.0000   1.0000   1.0000   1.0000   1.0000
     1.0000   1.0000   1.0000   1.0000   1.0000   1.0000   1.0000   1.0000
     1.0000   1.0000   1.0000   1.0000   1.0000   1.0000   1.0000   1.0000
     1.0000   1.0000   1.0000   1.0297   0.8566   0.1722   0.0000   0.0000
     0.0000   0.0000   0.0000   0.0000   0.0000   0.0000   0.0000   0.0000
     0.0000   0.0000   0.0000   0.0000   0.0000

          k = 0.3000 0.2981 0.0000 (203169 PWs)   bands (ev):

   -51.6650 -51.6650 -51.6642 -51.6642 -51.2701 -51.2701 -51.2692 -51.2692
   -50.8495 -50.8493 -50.8486 -50.8485 -50.4176 -50.4147 -50.4106 -50.4097
   -50.3641 -50.3621 -50.3594 -50.3587  -6.6496  -6.0354  -5.6905  -5.6197
    -5.0876  -5.0117  -4.6732  -4.1240  -4.0888  -3.5688  -3.3189  -3.1839
    -2.8686  -2.7468  -2.6966  -2.4122  -2.2425  -2.1846  -1.7670  -1.7116
    -1.4044  -0.9391  -0.7518  -0.6508  -0.4459

     occupation numbers 
     1.0000   1.0000   1.0000   1.0000   1.0000   1.0000   1.0000   1.0000
     1.0000   1.0000   1.0000   1.0000   1.0000   1.0000   1.0000   1.0000
     1.0000   1.0000   1.0000   1.0000   1.0000   1.0000   1.0000   1.0000
     1.0000   1.0000   1.0000   1.0756   1.0824   0.0000   0.0000   0.0000
     0.0000   0.0000   0.0000   0.0000   0.0000   0.0000   0.0000   0.0000
     0.0000   0.0000   0.0000   0.0000   0.0000

          k = 0.3000 0.3975 0.0000 (203179 PWs)   bands (ev):

   -51.6650 -51.6650 -51.6642 -51.6642 -51.2701 -51.2701 -51.2692 -51.2692
   -50.8495 -50.8493 -50.8486 -50.8485 -50.4176 -50.4147 -50.4106 -50.4097
   -50.3641 -50.3621 -50.3594 -50.3587  -6.4868  -6.2791  -5.5314  -5.4957
    -5.3265  -5.2261  -4.5601  -4.2895  -4.0603  -3.3874  -3.2924  -3.1674
    -2.8170  -2.6253  -2.5731  -2.4032  -2.1146  -2.0627  -1.9113  -1.5957
    -1.4028  -0.9479  -0.7972  -0.6838  -0.6315

     occupation numbers 
     1.0000   1.0000   1.0000   1.0000   1.0000   1.0000   1.0000   1.0000
     1.0000   1.0000   1.0000   1.0000   1.0000   1.0000   1.0000   1.0000
     1.0000   1.0000   1.0000   1.0000   1.0000   1.0000   1.0000   1.0000
     1.0000   1.0000   1.0000   1.0031   1.0613   0.0000   0.0000   0.0000
     0.0000   0.0000   0.0000   0.0000   0.0000   0.0000   0.0000   0.0000
     0.0000   0.0000   0.0000   0.0000   0.0000

          k = 0.4000 0.0000 0.0000 (203087 PWs)   bands (ev):

   -51.6648 -51.6648 -51.6644 -51.6644 -51.2699 -51.2699 -51.2694 -51.2694
   -50.8493 -50.8491 -50.8488 -50.8487 -50.4171 -50.4155 -50.4102 -50.4098
   -50.3638 -50.3627 -50.3591 -50.3588  -6.6918  -6.2104  -5.7019  -5.2207
    -4.8347  -4.7229  -4.3678  -4.3042  -4.2570  -3.8355  -3.8289  -3.4048
    -3.3944  -2.9783  -2.4055  -2.3854  -2.0861  -2.0536  -1.9180  -1.8466
    -1.3452  -1.3275  -0.9017  -0.8531  -0.3489

     occupation numbers 
     1.0000   1.0000   1.0000   1.0000   1.0000   1.0000   1.0000   1.0000
     1.0000   1.0000   1.0000   1.0000   1.0000   1.0000   1.0000   1.0000
     1.0000   1.0000   1.0000   1.0000   1.0000   1.0000   1.0000   1.0000
     1.0000   1.0000   1.0002   1.0020   1.0077   0.1337   0.1174   0.0000
     0.0000   0.0000   0.0000   0.0000   0.0000   0.0000   0.0000   0.0000
     0.0000   0.0000   0.0000   0.0000   0.0000

          k = 0.4000 0.0994 0.0000 (203147 PWs)   bands (ev):

   -51.6648 -51.6648 -51.6644 -51.6644 -51.2699 -51.2699 -51.2694 -51.2694
   -50.8493 -50.8491 -50.8488 -50.8487 -50.4171 -50.4155 -50.4102 -50.4098
   -50.3637 -50.3627 -50.3591 -50.3588  -6.6685  -6.1872  -5.6858  -5.2052
    -5.1611  -4.6920  -4.4397  -4.2855  -3.9668  -3.9334  -3.8297  -3.4962
    -3.1841  -2.7548  -2.5053  -2.4435  -2.2008  -2.0701  -1.9544  -1.5474
    -1.3638  -1.2846  -0.8768  -0.8678  -0.3843

     occupation numbers 
     1.0000   1.0000   1.0000   1.0000   1.0000   1.0000   1.0000   1.0000
     1.0000   1.0000   1.0000   1.0000   1.0000   1.0000   1.0000   1.0000
     1.0000   1.0000   1.0000   1.0000   1.0000   1.0000   1.0000   1.0000
     1.0000   1.0000   1.0000   1.0035   0.7360   0.5533   0.1195   0.0000
     0.0000   0.0000   0.0000   0.0000   0.0000   0.0000   0.0000   0.0000
     0.0000   0.0000   0.0000   0.0000   0.0000

          k = 0.4000 0.1988 0.0000 (203116 PWs)   bands (ev):

   -51.6648 -51.6648 -51.6644 -51.6644 -51.2699 -51.2699 -51.2694 -51.2694
   -50.8493 -50.8491 -50.8488 -50.8487 -50.4170 -50.4155 -50.4102 -50.4098
   -50.3637 -50.3627 -50.3591 -50.3588  -6.5985  -6.1179  -5.6754  -5.4501
    -5.1984  -4.9764  -4.5967  -4.1304  -4.0310  -3.8198  -3.5904  -3.3654
    -2.8380  -2.7662  -2.5685  -2.3725  -2.1633  -2.0962  -1.9796  -1.4876
    -1.2394  -1.0970  -0.8949  -0.8160  -0.4449

     occupation numbers 
     1.0000   1.0000   1.0000   1.0000   1.0000   1.0000   1.0000   1.0000
     1.0000   1.0000   1.0000   1.0000   1.0000   1.0000   1.0000   1.0000
     1.0000   1.0000   1.0000   1.0000   1.0000   1.0000   1.0000   1.0000
     1.0000   1.0000   1.0000   1.0721   1.0025   0.0976   0.0001   0.0000
     0.0000   0.0000   0.0000   0.0000   0.0000   0.0000   0.0000   0.0000
     0.0000   0.0000   0.0000   0.0000   0.0000

          k = 0.4000 0.2981 0.0000 (203047 PWs)   bands (ev):

   -51.6648 -51.6648 -51.6644 -51.6644 -51.2699 -51.2699 -51.2694 -51.2694
   -50.8493 -50.8491 -50.8488 -50.8487 -50.4170 -50.4155 -50.4103 -50.4098
   -50.3637 -50.3627 -50.3591 -50.3588  -6.4819  -6.0024  -5.8682  -5.4510
    -5.3934  -4.9754  -4.8433  -4.3757  -3.9605  -3.5320  -3.3859  -3.0357
    -2.9180  -2.7213  -2.5011  -2.1041  -2.0804  -2.0572  -1.9170  -1.6317
    -1.2962  -0.9753  -0.8024  -0.7179  -0.5080

     occupation numbers 
     1.0000   1.0000   1.0000   1.0000   1.0000   1.0000   1.0000   1.0000
     1.0000   1.0000   1.0000   1.0000   1.0000   1.0000   1.0000   1.0000
     1.0000   1.0000   1.0000   1.0000   1.0000   1.0000   1.0000   1.0000
     1.0000   1.0000   1.0000   1.0002   0.7026   0.0000   0.0000   0.0000
     0.0000   0.0000   0.0000   0.0000   0.0000   0.0000   0.0000   0.0000
     0.0000   0.0000   0.0000   0.0000   0.0000

          k = 0.4000 0.3975 0.0000 (203101 PWs)   bands (ev):

   -51.6648 -51.6648 -51.6644 -51.6644 -51.2699 -51.2699 -51.2694 -51.2694
   -50.8493 -50.8491 -50.8488 -50.8487 -50.4170 -50.4155 -50.4103 -50.4098
   -50.3637 -50.3627 -50.3591 -50.3588  -6.3194  -6.1117  -5.8414  -5.6349
    -5.3278  -5.0572  -4.8565  -4.5846  -3.8985  -3.4833  -3.2218  -2.9777
    -2.8349  -2.4864  -2.3825  -2.1636  -2.0621  -1.9485  -1.7880  -1.7707
    -1.3284  -0.9875  -0.8528  -0.7508  -0.5365

     occupation numbers 
     1.0000   1.0000   1.0000   1.0000   1.0000   1.0000   1.0000   1.0000
     1.0000   1.0000   1.0000   1.0000   1.0000   1.0000   1.0000   1.0000
     1.0000   1.0000   1.0000   1.0000   1.0000   1.0000   1.0000   1.0000
     1.0000   1.0000   1.0000   1.0000   0.3698   0.0000   0.0000   0.0000
     0.0000   0.0000   0.0000   0.0000   0.0000   0.0000   0.0000   0.0000
     0.0000   0.0000   0.0000   0.0000   0.0000

          k =-0.5000 0.0000 0.0000 (203092 PWs)   bands (ev):

   -51.6647 -51.6646 -51.6646 -51.6646 -51.2697 -51.2697 -51.2697 -51.2697
   -50.8491 -50.8491 -50.8489 -50.8489 -50.4164 -50.4163 -50.4099 -50.4099
   -50.3633 -50.3633 -50.3589 -50.3589  -6.4754  -6.4754  -5.4847  -5.4847
    -4.6221  -4.6221  -4.5106  -4.5106  -4.0898  -4.0898  -3.6250  -3.6250
    -3.2000  -3.2000  -2.2599  -2.2599  -1.9430  -1.9429  -1.8096  -1.8096
    -1.3681  -1.3681  -1.1203  -1.1202  -0.1595

     occupation numbers 
     1.0000   1.0000   1.0000   1.0000   1.0000   1.0000   1.0000   1.0000
     1.0000   1.0000   1.0000   1.0000   1.0000   1.0000   1.0000   1.0000
     1.0000   1.0000   1.0000   1.0000   1.0000   1.0000   1.0000   1.0000
     1.0000   1.0000   1.0000   1.0000   1.0826   1.0826   0.0002   0.0002
     0.0000   0.0000   0.0000   0.0000   0.0000   0.0000   0.0000   0.0000
     0.0000   0.0000   0.0000   0.0000   0.0000

          k =-0.5000 0.0994 0.0000 (203092 PWs)   bands (ev):

   -51.6647 -51.6646 -51.6646 -51.6646 -51.2697 -51.2697 -51.2697 -51.2697
   -50.8491 -50.8491 -50.8489 -50.8489 -50.4163 -50.4163 -50.4100 -50.4099
   -50.3633 -50.3632 -50.3589 -50.3589  -6.4522  -6.4522  -5.4688  -5.4688
    -4.9484  -4.9484  -4.2236  -4.2235  -4.0758  -4.0758  -3.7291  -3.7291
    -2.9760  -2.9760  -2.3773  -2.3773  -2.0434  -2.0434  -1.6296  -1.6295
    -1.3262  -1.3261  -1.0965  -1.0965  -0.2549

     occupation numbers 
     1.0000   1.0000   1.0000   1.0000   1.0000   1.0000   1.0000   1.0000
     1.0000   1.0000   1.0000   1.0000   1.0000   1.0000   1.0000   1.0000
     1.0000   1.0000   1.0000   1.0000   1.0000   1.0000   1.0000   1.0000
     1.0000   1.0000   1.0171   1.0171   1.0765   1.0765   0.0097   0.0097
     0.0000   0.0000   0.0000   0.0000   0.0000   0.0000   0.0000   0.0000
     0.0000   0.0000   0.0000   0.0000   0.0000

          k =-0.5000 0.1988 0.0000 (202990 PWs)   bands (ev):

   -51.6647 -51.6646 -51.6646 -51.6646 -51.2697 -51.2697 -51.2697 -51.2697
   -50.8491 -50.8491 -50.8489 -50.8489 -50.4163 -50.4163 -50.4100 -50.4100
   -50.3633 -50.3632 -50.3589 -50.3589  -6.3824  -6.3824  -5.4599  -5.4599
    -5.2358  -5.2358  -4.3834  -4.3834  -3.8257  -3.8257  -3.6074  -3.6074
    -2.6545  -2.6545  -2.5759  -2.5759  -2.0276  -2.0276  -1.5771  -1.5771
    -1.2519  -1.2519  -0.9288  -0.9288  -0.3912

     occupation numbers 
     1.0000   1.0000   1.0000   1.0000   1.0000   1.0000   1.0000   1.0000
     1.0000   1.0000   1.0000   1.0000   1.0000   1.0000   1.0000   1.0000
     1.0000   1.0000   1.0000   1.0000   1.0000   1.0000   1.0000   1.0000
     1.0000   1.0000   1.0001   1.0001   0.1102   0.1102   0.0001   0.0001
     0.0000   0.0000   0.0000   0.0000   0.0000   0.0000   0.0000   0.0000
     0.0000   0.0000   0.0000   0.0000   0.0000

          k =-0.5000 0.2981 0.0000 (202980 PWs)   bands (ev):

   -51.6647 -51.6646 -51.6646 -51.6646 -51.2697 -51.2697 -51.2697 -51.2697
   -50.8491 -50.8491 -50.8489 -50.8489 -50.4163 -50.4163 -50.4100 -50.4100
   -50.3632 -50.3632 -50.3589 -50.3589  -6.2662  -6.2662  -5.6540  -5.6540
    -5.2357  -5.2357  -4.6300  -4.6300  -3.7589  -3.7589  -3.1619  -3.1619
    -2.8655  -2.8655  -2.2607  -2.2607  -1.9628  -1.9628  -1.6411  -1.6411
    -1.2523  -1.2523  -0.7672  -0.7671  -0.4175

     occupation numbers 
     1.0000   1.0000   1.0000   1.0000   1.0000   1.0000   1.0000   1.0000
     1.0000   1.0000   1.0000   1.0000   1.0000   1.0000   1.0000   1.0000
     1.0000   1.0000   1.0000   1.0000   1.0000   1.0000   1.0000   1.0000
     1.0000   1.0000   1.0000   1.0000   0.0228   0.0228   0.0000   0.0000
     0.0000   0.0000   0.0000   0.0000   0.0000   0.0000   0.0000   0.0000
     0.0000   0.0000   0.0000   0.0000   0.0000

          k =-0.5000 0.3975 0.0000 (202998 PWs)   bands (ev):

   -51.6647 -51.6646 -51.6646 -51.6646 -51.2697 -51.2697 -51.2697 -51.2697
   -50.8491 -50.8491 -50.8489 -50.8489 -50.4163 -50.4163 -50.4100 -50.4100
   -50.3632 -50.3632 -50.3589 -50.3589  -6.1043  -6.1042  -5.8969  -5.8969
    -5.1140  -5.1139  -4.8425  -4.8424  -3.7008  -3.7008  -3.0273  -3.0273
    -2.7397  -2.7396  -2.1682  -2.1682  -1.8830  -1.8830  -1.7530  -1.7530
    -1.2038  -1.2038  -0.8253  -0.8253  -0.4384

     occupation numbers 
     1.0000   1.0000   1.0000   1.0000   1.0000   1.0000   1.0000   1.0000
     1.0000   1.0000   1.0000   1.0000   1.0000   1.0000   1.0000   1.0000
     1.0000   1.0000   1.0000   1.0000   1.0000   1.0000   1.0000   1.0000
     1.0000   1.0000   1.0000   1.0000   0.0040   0.0040   0.0000   0.0000
     0.0000   0.0000   0.0000   0.0000   0.0000   0.0000   0.0000   0.0000
     0.0000   0.0000   0.0000   0.0000   0.0000

     the Fermi energy is    -3.9047 ev

!    total energy              =    -300.76011857 Ry
     total all-electron energy =      -300.760281 Ry
     estimated scf accuracy    <          8.0E-09 Ry

!    total charge of GC-SCF    =       2.25640181 e
     smearing contrib. (-TS)   =       0.00073170 Ry
     internal energy E=F+TS    =    -300.76085027 Ry

     The total energy is F=E-TS. E is the sum of the following terms:
     one-electron contribution =   -2537.62261069 Ry
     hartree contribution      =    1233.06329083 Ry
     xc contribution           =     -70.66804650 Ry
     ewald contribution        =    1133.93359460 Ry
     one-center paw contrib.   =       1.76836257 Ry
      -> PAW hartree energy AE =       7.37339035 Ry
      -> PAW hartree energy PS =      -7.15052004 Ry
      -> PAW xc energy AE      =      -3.47492179 Ry
      -> PAW xc energy PS      =       3.34034038 Ry
      -> total E_H with PAW    =    1233.28616114 Ry
      -> total E_XC with PAW   =     -70.80262792 Ry
     pot.stat. contrib. (-muN) =      -0.64744902 Ry
     electrostatic embedding   =      -1.13984005 Ry
     cavitation energy         =       0.02293695 Ry
     electrolyte free energy   =      -0.01602791 Ry
     correction to one-el term =     -59.45506106 Ry

     WARNING: you are using the parabolic pbc correction;
              the potential shift above must be added to 
              band and Fermi energies.

     convergence has been achieved in  28 iterations
     The dielectric solvent contribution to forces
     atom    1 type  1   force =     0.00000000    0.00533730    0.03840646
     atom    2 type  1   force =     0.00000000   -0.00313186    0.00401840
     atom    3 type  1   force =     0.00000000   -0.00398495   -0.01454698
     atom    4 type  1   force =     0.00000000    0.01605927   -0.02288830
     atom    5 type  1   force =     0.00000000    0.00772983   -0.01882770
     atom    6 type  1   force =     0.00000010    0.00313153   -0.00401365
     atom    7 type  1   force =     0.00000025   -0.00533720   -0.03840068
     atom    8 type  1   force =     0.00000031   -0.00772880    0.01882635
     atom    9 type  1   force =     0.00000010   -0.01606084    0.02289319
     atom   10 type  1   force =     0.00000012    0.00398583    0.01455218
     atom   11 type  1   force =    -0.00000000    0.00533704    0.03840640
     atom   12 type  1   force =    -0.00000000   -0.00313190    0.00401845
     atom   13 type  1   force =    -0.00000000   -0.00398494   -0.01454694
     atom   14 type  1   force =    -0.00000000    0.01605927   -0.02288888
     atom   15 type  1   force =    -0.00000000    0.00773020   -0.01882431
     atom   16 type  1   force =    -0.00000010    0.00313153   -0.00401365
     atom   17 type  1   force =    -0.00000025   -0.00533720   -0.03840067
     atom   18 type  1   force =    -0.00000031   -0.00772880    0.01882635
     atom   19 type  1   force =    -0.00000010   -0.01606084    0.02289319
     atom   20 type  1   force =    -0.00000012    0.00398583    0.01455218
 

     Forces acting on atoms (cartesian axes, Ry/au):

     atom    1 type  1   force =     0.00000000    0.00000535   -0.00068090
     atom    2 type  1   force =     0.00000000    0.00002766   -0.00005136
     atom    3 type  1   force =     0.00000000    0.00100791    0.00130828
[...]
     1.0000   1.0000   1.0000   1.0000   1.0000   1.0000   1.0000   1.0000
     1.0000   1.0000   1.0000   1.0000   0.0111   0.0111   0.0000   0.0000
     0.0000   0.0000   0.0000   0.0000   0.0000   0.0000   0.0000   0.0000
     0.0000   0.0000   0.0000   0.0000   0.0000

     the Fermi energy is    -3.9040 ev

!    total energy              =    -300.76139820 Ry
     total all-electron energy =      -300.761561 Ry
     estimated scf accuracy    <          4.7E-13 Ry

!    total charge of GC-SCF    =       2.33041053 e
     smearing contrib. (-TS)   =       0.00068524 Ry
     internal energy E=F+TS    =    -300.76208344 Ry

     The total energy is F=E-TS. E is the sum of the following terms:
     one-electron contribution =   -2517.17893215 Ry
     hartree contribution      =    1222.76570466 Ry
     xc contribution           =     -70.60069764 Ry
     ewald contribution        =    1124.88696789 Ry
     one-center paw contrib.   =       1.76913825 Ry
      -> PAW hartree energy AE =       7.36635793 Ry
      -> PAW hartree energy PS =      -7.14343558 Ry
      -> PAW xc energy AE      =      -3.47345686 Ry
      -> PAW xc energy PS      =       3.33884362 Ry
      -> total E_H with PAW    =    1222.98862701 Ry
      -> total E_XC with PAW   =     -70.73531088 Ry
     pot.stat. contrib. (-muN) =      -0.66868499 Ry
     electrostatic embedding   =      -1.19807959 Ry
     cavitation energy         =       0.02342473 Ry
     electrolyte free energy   =      -0.01733925 Ry
     correction to one-el term =     -60.54358534 Ry

     WARNING: you are using the parabolic pbc correction;
              the potential shift above must be added to 
              band and Fermi energies.

     convergence has been achieved in  22 iterations
     The dielectric solvent contribution to forces
     atom    1 type  1   force =     0.00000000    0.00586342    0.03943287
     atom    2 type  1   force =     0.00000000   -0.00330776    0.00445328
     atom    3 type  1   force =     0.00000000   -0.00399329   -0.01481982
     atom    4 type  1   force =     0.00000000    0.01722647   -0.02322525
     atom    5 type  1   force =     0.00000000    0.00859035   -0.02390029
     atom    6 type  1   force =    -0.00000007    0.00330924   -0.00448503
     atom    7 type  1   force =    -0.00000016   -0.00586183   -0.03946764
     atom    8 type  1   force =    -0.00000017   -0.00859797    0.02389254
     atom    9 type  1   force =    -0.00000034   -0.01721944    0.02320095
     atom   10 type  1   force =    -0.00000013    0.00399000    0.01478841
     atom   11 type  1   force =    -0.00000000    0.00586330    0.03943277
     atom   12 type  1   force =    -0.00000000   -0.00330780    0.00445333
     atom   13 type  1   force =    -0.00000000   -0.00399325   -0.01481977
     atom   14 type  1   force =    -0.00000000    0.01722645   -0.02322524
     atom   15 type  1   force =    -0.00000000    0.00859061   -0.02389737
     atom   16 type  1   force =     0.00000007    0.00330924   -0.00448503
     atom   17 type  1   force =     0.00000016   -0.00586183   -0.03946764
     atom   18 type  1   force =     0.00000017   -0.00859797    0.02389254
     atom   19 type  1   force =     0.00000034   -0.01721944    0.02320095
     atom   20 type  1   force =     0.00000013    0.00399000    0.01478841
 

     Forces acting on atoms (cartesian axes, Ry/au):

     atom    1 type  1   force =     0.00000000    0.00008414   -0.00007016
     atom    2 type  1   force =     0.00000000   -0.00020671   -0.00002131
     atom    3 type  1   force =     0.00000000   -0.00027107    0.00028751
     atom    4 type  1   force =     0.00000000   -0.00003834   -0.00036693
     atom    5 type  1   force =     0.00000000    0.00020911    0.00014543
     atom    6 type  1   force =    -0.00000024    0.00020793    0.00002177
     atom    7 type  1   force =    -0.00000011   -0.00008196    0.00006518
     atom    8 type  1   force =    -0.00000007   -0.00021290   -0.00013721
     atom    9 type  1   force =    -0.00000046    0.00003997    0.00037108
     atom   10 type  1   force =    -0.00000042    0.00026970   -0.00029526
     atom   11 type  1   force =     0.00000000    0.00008434   -0.00007053
     atom   12 type  1   force =     0.00000000   -0.00020660   -0.00002174
     atom   13 type  1   force =     0.00000000   -0.00027070    0.00028731
     atom   14 type  1   force =     0.00000000   -0.00003860   -0.00036705
     atom   15 type  1   force =     0.00000000    0.00020896    0.00014634
     atom   16 type  1   force =     0.00000024    0.00020793    0.00002177
     atom   17 type  1   force =     0.00000011   -0.00008196    0.00006518
     atom   18 type  1   force =     0.00000007   -0.00021290   -0.00013721
     atom   19 type  1   force =     0.00000046    0.00003997    0.00037108
     atom   20 type  1   force =     0.00000042    0.00026970   -0.00029526
     The non-local contrib.  to forces
     atom    1 type  1   force =     0.00000000    0.00113119    0.04983871
     atom    2 type  1   force =     0.00000000    0.00519059   -0.00137047
     atom    3 type  1   force =     0.00000000    0.00390070    0.00293228
     atom    4 type  1   force =     0.00000000    0.02276433   -0.08076227
     atom    5 type  1   force =     0.00000000    0.01671871    0.09301788
     atom    6 type  1   force =    -0.00000028   -0.00519273    0.00136785
     atom    7 type  1   force =    -0.00000048   -0.00112358   -0.04984678
     atom    8 type  1   force =    -0.00000042   -0.01672937   -0.09300920
     atom    9 type  1   force =    -0.00000125   -0.02275603    0.08076987
     atom   10 type  1   force =    -0.00000095   -0.00390177   -0.00294434
     atom   11 type  1   force =     0.00000000    0.00113119    0.04983885
     atom   12 type  1   force =     0.00000000    0.00519052   -0.00137123
     atom   13 type  1   force =     0.00000000    0.00390095    0.00293229
     atom   14 type  1   force =     0.00000000    0.02276414   -0.08076257
     atom   15 type  1   force =     0.00000000    0.01671950    0.09301896
     atom   16 type  1   force =     0.00000028   -0.00519273    0.00136785
     atom   17 type  1   force =     0.00000048   -0.00112358   -0.04984678
     atom   18 type  1   force =     0.00000042   -0.01672937   -0.09300920
     atom   19 type  1   force =     0.00000125   -0.02275603    0.08076987
     atom   20 type  1   force =     0.00000095   -0.00390177   -0.00294434
     The ionic contribution  to forces
     atom    1 type  1   force =    -0.00000002    0.06661896    4.73681142
     atom    2 type  1   force =    -0.00000002    0.00947274    1.15316029
     atom    3 type  1   force =    -0.00000003   -0.12225230   -2.95042756
     atom    4 type  1   force =    -0.00000002    0.34834356   -6.89315333
     atom    5 type  1   force =    -0.00000001    0.20450538    8.15129902
     atom    6 type  1   force =    -0.00000959   -0.00947642   -1.15318722
     atom    7 type  1   force =    -0.00000898   -0.06651262   -4.73674350
     atom    8 type  1   force =    -0.00000466   -0.20462511   -8.15130023
     atom    9 type  1   force =    -0.00001860   -0.34827013    6.89319767
     atom   10 type  1   force =    -0.00002008    0.12219267    2.95034638
     atom   11 type  1   force =     0.00000001    0.06662132    4.73682513
     atom   12 type  1   force =     0.00000001    0.00946968    1.15317069
     atom   13 type  1   force =     0.00000002   -0.12224592   -2.95042860
     atom   14 type  1   force =     0.00000001    0.34834057   -6.89316068
     atom   15 type  1   force =     0.00000000    0.20450924    8.15127747
     atom   16 type  1   force =     0.00000960   -0.00947642   -1.15318724
     atom   17 type  1   force =     0.00000898   -0.06651262   -4.73674347
     atom   18 type  1   force =     0.00000466   -0.20462510   -8.15130020
     atom   19 type  1   force =     0.00001860   -0.34827013    6.89319764
     atom   20 type  1   force =     0.00002009    0.12219267    2.95034633
     The local contribution  to forces
     atom    1 type  1   force =     0.00000349   -0.07352938   -4.82615266
     atom    2 type  1   force =     0.00000348   -0.01156218   -1.15626536
     atom    3 type  1   force =     0.00000291    0.12207387    2.96260523
     atom    4 type  1   force =     0.00000408   -0.38837127    6.99677202
     atom    5 type  1   force =     0.00000408   -0.22959890   -8.22026833
     atom    6 type  1   force =     0.00001441    0.01156725    1.15632682
     atom    7 type  1   force =     0.00001393    0.07341594    4.82612297
     atom    8 type  1   force =     0.00000988    0.22973262    8.22027733
     atom    9 type  1   force =     0.00002386    0.38828389   -6.99679585
     atom   10 type  1   force =     0.00002515   -0.12201140   -2.96248887
     atom   11 type  1   force =     0.00000442   -0.07353141   -4.82616676
     atom   12 type  1   force =     0.00000440   -0.01155891   -1.15627547
     atom   13 type  1   force =     0.00000557    0.12206759    2.96260603
     atom   14 type  1   force =     0.00000500   -0.38836829    6.99677951
     atom   15 type  1   force =     0.00000384   -0.22960395   -8.22024985
     atom   16 type  1   force =    -0.00000502    0.01156783    1.15632743
     atom   17 type  1   force =    -0.00000509    0.07341593    4.82612237
     atom   18 type  1   force =    -0.00000046    0.22973321    8.22027615
     atom   19 type  1   force =    -0.00001560    0.38828389   -6.99679525
     atom   20 type  1   force =    -0.00001633   -0.12201140   -2.96248766
     The core correction contribution to forces
     atom    1 type  1   force =     0.00000000    0.00000000    0.00000000
     atom    2 type  1   force =     0.00000000    0.00000000    0.00000000
     atom    3 type  1   force =     0.00000000    0.00000000    0.00000000
     atom    4 type  1   force =     0.00000000    0.00000000    0.00000000
     atom    5 type  1   force =     0.00000000    0.00000000    0.00000000
     atom    6 type  1   force =     0.00000000    0.00000000    0.00000000
     atom    7 type  1   force =     0.00000000    0.00000000    0.00000000
     atom    8 type  1   force =     0.00000000    0.00000000    0.00000000
     atom    9 type  1   force =     0.00000000    0.00000000    0.00000000
     atom   10 type  1   force =     0.00000000    0.00000000    0.00000000
     atom   11 type  1   force =     0.00000000    0.00000000    0.00000000
     atom   12 type  1   force =     0.00000000    0.00000000    0.00000000
     atom   13 type  1   force =     0.00000000    0.00000000    0.00000000
     atom   14 type  1   force =     0.00000000    0.00000000    0.00000000
     atom   15 type  1   force =     0.00000000    0.00000000    0.00000000
     atom   16 type  1   force =     0.00000000    0.00000000    0.00000000
     atom   17 type  1   force =     0.00000000    0.00000000    0.00000000
     atom   18 type  1   force =     0.00000000    0.00000000    0.00000000
     atom   19 type  1   force =     0.00000000    0.00000000    0.00000000
     atom   20 type  1   force =     0.00000000    0.00000000    0.00000000
     The Hubbard contrib.    to forces
     atom    1 type  1   force =     0.00000000    0.00000000    0.00000000
     atom    2 type  1   force =     0.00000000    0.00000000    0.00000000
     atom    3 type  1   force =     0.00000000    0.00000000    0.00000000
     atom    4 type  1   force =     0.00000000    0.00000000    0.00000000
     atom    5 type  1   force =     0.00000000    0.00000000    0.00000000
     atom    6 type  1   force =     0.00000000    0.00000000    0.00000000
     atom    7 type  1   force =     0.00000000    0.00000000    0.00000000
     atom    8 type  1   force =     0.00000000    0.00000000    0.00000000
     atom    9 type  1   force =     0.00000000    0.00000000    0.00000000
     atom   10 type  1   force =     0.00000000    0.00000000    0.00000000
     atom   11 type  1   force =     0.00000000    0.00000000    0.00000000
     atom   12 type  1   force =     0.00000000    0.00000000    0.00000000
     atom   13 type  1   force =     0.00000000    0.00000000    0.00000000
     atom   14 type  1   force =     0.00000000    0.00000000    0.00000000
     atom   15 type  1   force =     0.00000000    0.00000000    0.00000000
     atom   16 type  1   force =     0.00000000    0.00000000    0.00000000
     atom   17 type  1   force =     0.00000000    0.00000000    0.00000000
     atom   18 type  1   force =     0.00000000    0.00000000    0.00000000
     atom   19 type  1   force =     0.00000000    0.00000000    0.00000000
     atom   20 type  1   force =     0.00000000    0.00000000    0.00000000
     The SCF correction term to forces
     atom    1 type  1   force =    -0.00000000   -0.00000014   -0.00000050
     atom    2 type  1   force =     0.00000000   -0.00000018    0.00000096
     atom    3 type  1   force =    -0.00000000   -0.00000014   -0.00000261
     atom    4 type  1   force =     0.00000000   -0.00000153    0.00000191
     atom    5 type  1   force =    -0.00000000   -0.00000652   -0.00000285
     atom    6 type  1   force =    -0.00000001    0.00000021   -0.00000094
     atom    7 type  1   force =    -0.00000001    0.00000004    0.00000042
     atom    8 type  1   force =     0.00000001    0.00000654    0.00000294
     atom    9 type  1   force =     0.00000000    0.00000160   -0.00000184
     atom   10 type  1   force =    -0.00000000    0.00000011    0.00000260
     atom   11 type  1   force =     0.00000000   -0.00000014   -0.00000051
     atom   12 type  1   force =     0.00000000   -0.00000018    0.00000096
     atom   13 type  1   force =    -0.00000000   -0.00000015   -0.00000263
     atom   14 type  1   force =     0.00000000   -0.00000155    0.00000194
     atom   15 type  1   force =     0.00000000   -0.00000652   -0.00000285
     atom   16 type  1   force =     0.00000001    0.00000021   -0.00000094
     atom   17 type  1   force =     0.00000001    0.00000004    0.00000042
     atom   18 type  1   force =    -0.00000001    0.00000654    0.00000294
     atom   19 type  1   force =    -0.00000000    0.00000160   -0.00000184
     atom   20 type  1   force =     0.00000000    0.00000011    0.00000260

     Total force =     0.001289     Total SCF correction =     0.000016
     Energy error            =      9.5E-06 Ry
     Gradient error          =      3.7E-04 Ry/Bohr

     bfgs converged in  23 scf cycles and  22 bfgs steps
     (criteria: energy <  1.0E-05 Ry, force <  3.9E-04 Ry/Bohr)

     End of BFGS Geometry Optimization

     Final energy             =    -300.7613982005 Ry

     File ./Li/Lithium.bfgs deleted, as requested
Begin final coordinates

ATOMIC_POSITIONS (angstrom)
Li              -0.0000000600        3.1665425591       25.4086824609
Li              -0.0000000600        6.0798936345       24.0808616195
Li              -0.0000000500        1.5937677475       22.3963690890
Li              -0.0000000700        4.2450939305       20.7314078453
Li              -0.0000000700        0.7760364685       27.4652005215
Li               1.7175846919        3.9057473230       23.1353703486
Li               1.7175825672        6.8190406657       21.8075907296
Li               1.7175813732        1.5284038047       19.7507053633
Li               1.7175870824        5.7404215918       26.4847056861
Li               1.7175835690        0.7106440478       24.8198693087
Li               3.4351561700        3.1665442448       25.4086890269
Li               3.4351561700        6.0798932833       24.0808702930
Li               3.4351561500        1.5937605685       22.3963709539
Li               3.4351561600        4.2450976534       20.7314066097
Li               3.4351561800        0.7760347567       27.4651605710
Li               5.1527276381        3.9057473130       23.1353703386
Li               5.1527297728        6.8190406657       21.8075907396
Li               5.1527309568        1.5284037947       19.7507053832
Li               5.1527252676        5.7404215918       26.4847056761
Li               5.1527287710        0.7106440478       24.8198692887
End final coordinates



     Writing all to output data dir ./Li/Lithium.save/ :
     XML data file
     init_run     :      6.61s CPU      7.56s WALL (       1 calls)
     electrons    :   6217.15s CPU   6259.45s WALL (      23 calls)
     update_pot   :      2.68s CPU      2.74s WALL (      22 calls)
     forces       :    218.65s CPU    219.47s WALL (      23 calls)

     Called by init_run:
     wfcinit      :      1.42s CPU      1.61s WALL (       1 calls)
     wfcinit:wfcr :      1.35s CPU      1.54s WALL (      15 calls)
     potinit      :      0.13s CPU      0.25s WALL (       1 calls)
     hinit0       :      1.75s CPU      2.22s WALL (       1 calls)

     Called by electrons:
     c_bands      :   3364.99s CPU   3391.45s WALL (     438 calls)
     sum_band     :    300.88s CPU    302.91s WALL (     438 calls)
     v_of_rho     :     33.13s CPU     33.58s WALL (     439 calls)
     v_h          :      2.98s CPU      3.00s WALL (     439 calls)
     v_xc         :     30.14s CPU     30.58s WALL (     439 calls)
     newd         :      9.68s CPU      9.86s WALL (     439 calls)
     PAW_pot      :     12.04s CPU     12.18s WALL (     461 calls)
     mix_rho      :     91.66s CPU     92.23s WALL (     438 calls)

     Called by c_bands:
     init_us_2    :     29.17s CPU     29.60s WALL (   13830 calls)
     cegterg      :   3087.45s CPU   3108.80s WALL (    7395 calls)

     Called by sum_band:
     sum_band:wei :      1.25s CPU      1.25s WALL (     438 calls)
     sum_band:loo :    277.92s CPU    279.62s WALL (     438 calls)
     sum_band:buf :      2.52s CPU      2.55s WALL (    6570 calls)
     sum_band:ini :     14.14s CPU     14.24s WALL (    6570 calls)
     sum_band:cal :     24.52s CPU     24.68s WALL (    6900 calls)
     sum_band:bec :      0.83s CPU      0.86s WALL (    6900 calls)
     addusdens    :      7.75s CPU      7.88s WALL (     438 calls)
                                        0.00s GPU  (     438 calls)
     addusd:skk   :      1.02s CPU      1.02s WALL (     438 calls)
                                        0.00s GPU  (     438 calls)

     Called by *egterg:
     cdiaghg      :    411.18s CPU    414.36s WALL (   96339 calls)
     cegterg:over :    225.96s CPU    227.67s WALL (   89718 calls)
     cegterg:upda :    117.38s CPU    118.15s WALL (   89718 calls)
     cegterg:last :     26.47s CPU     26.59s WALL (   10175 calls)
     h_psi        :   2137.08s CPU   2152.14s WALL (   97128 calls)
     s_psi        :     83.29s CPU     84.06s WALL (   97128 calls)
     g_psi        :      3.81s CPU      3.84s WALL (   89718 calls)

     Called by h_psi:
     h_psi:calbec :    151.98s CPU    153.66s WALL (   97128 calls)
     vloc_psi     :   1884.17s CPU   1896.72s WALL (   97128 calls)
                                        0.00s GPU  (   97128 calls)
     add_vuspsi   :     94.01s CPU     94.93s WALL (   97128 calls)

     General routines
     calbec       :    180.34s CPU    182.33s WALL (  105408 calls)
     fft          :     31.18s CPU     31.85s WALL (    5751 calls)
     ffts         :     48.44s CPU     48.75s WALL (   49216 calls)
     fftw         :   2038.06s CPU   2051.45s WALL ( 2819650 calls)
     interpolate  :      2.42s CPU      2.47s WALL (     439 calls)
 
     Parallel routines

     PAW routines
     PAW_pot      :     12.04s CPU     12.18s WALL (     461 calls)
     PAW_symme    :      0.18s CPU      0.18s WALL (     899 calls)
 
     Environ routines
 
     PWSCF        :      1h50m CPU      1h51m WALL

 
   This run was terminated on:   1:33:40   5Jan2025            

=------------------------------------------------------------------------------=
   JOB DONE.
=------------------------------------------------------------------------------=
