
     Program PWSCF v.7.4 starts on  5Jan2025 at  3:21:51 

     This program is part of the open-source Quantum ESPRESSO suite
     for quantum simulation of materials; please cite
         "P. Giannozzi et al., J. Phys.:Condens. Matter 21 395502 (2009);
         "P. Giannozzi et al., J. Phys.:Condens. Matter 29 465901 (2017);
         "P. Giannozzi et al., J. Chem. Phys. 152 154105 (2020);
          URL http://www.quantum-espresso.org", 
     in publications or presentations arising from this work. More details at
     http://www.quantum-espresso.org/quote

     Parallel version (MPI & OpenMP), running on     512 processor cores
     Number of MPI processes:               512
     Threads/MPI process:                     1

     MPI processes distributed on     4 nodes
     229420 MiB available memory on the printing compute node when the environment starts

     Reading input from espresso.pwi
Warning: card &CELL ignored
Warning: card    PRESS_CONV_THR   = 0.1 ignored
Warning: card    CELL_DOFREE      = 'ALL' ignored
Warning: card / ignored
Warning: card &FCP ignored
Warning: card / ignored
Warning: card &RISM ignored
Warning: card / ignored

     Current dimensions of program PWSCF are:
     Max number of different atomic species (ntypx) = 10
     Max number of k-points (npk) =  40000
     Max angular momentum in pseudopotentials (lmaxx) =  4

     IMPORTANT: XC functional enforced from input :
     Exchange-correlation= PBE
                           (   1   4   3   4   0   0   0)
     Any further DFT definition will be discarded
     Please, verify this is what you really want


     Reading input from environ.in:
     * using ionic solvent mode
     * setting boundary derivatives method to SSCS default
     * setting electrolyte-boundary derivatives method to SSCS default

Environ Warning (1001): card EOF ignored

     

     K-points division:     npool     =       2
     R & G space division:  proc/nbgrp/npool/nimage =     256
     Subspace diagonalization in iterative solution of the eigenvalue problem:
     a serial algorithm will be used


     Parallelization info
     --------------------
     sticks:   dense  smooth     PW     G-vecs:    dense   smooth      PW
     Min          49      19      5                30863     7773    1061
     Max          50      20      6                30904     7852    1116
     Sum       12597    5037   1349              7904519  1999739  278317

     Using Slab Decomposition



     bravais-lattice index     =            8
     lattice parameter (alat)  =      18.3607  a.u.
     unit-cell volume          =   20684.8735 (a.u.)^3
     number of atoms/cell      =           44
     number of atomic types    =            1
     number of electrons       =       132.00
     number of Kohn-Sham states=           99
     kinetic-energy cutoff     =      80.0000  Ry
     charge density cutoff     =     800.0000  Ry
     scf convergence threshold =      1.0E-14
     mixing beta               =       0.2000
     number of iterations used =            8  local-TF  mixing
     Exchange-correlation= PBE
                           (   1   4   3   4   0   0   0)

     ================================================================================

                                  Environ Setup Summary

     ================================================================================

     Please cite

          O. Andreussi, I. Dabo and N. Marzari, J. Chem. Phys. 136, 064102 (2012)
          F. Nattino, M. Truscott, N. Marzari, and O. Andreussi, J. Chem. Phys. 150, 041722 (2019)

     in publications or presentations arising from this work.

     ================================================================================

     Parameters
     ==========

     compensation onset threshold      =               0.1000E+00
     static permittivity               =                    89.90
     surface tension in input (dyn/cm) =                    37.30
     surface tension in internal units =               0.4792E-04

     Solvent Boundary
     ================

     solvent mode                      =                    ionic
     derivatives method                =                   lowmem
     electrolyte derivatives method    =                   lowmem
     numerical core for derivatives    =                      fft
     switching function adopted        =                     SCCS
     density limit for vacuum region   =               0.5000E-02
     density limit for bulk solvent    =               0.1000E-03
     soft-sphere radius mode           =                    bondi
     soft-sphere softness              =                     0.50
     alpha                             =                     1.32

     Electrostatic Setup
     ===================

     electrostatic problem to solve    =                    modpb
     numerical solver adopted          =                   newton
     type of auxiliary density adopted =                     none
     numerical core for poisson        =                      fft
     adopting a nested solver scheme
     inner solver                      =                       cg
     inner core                        =                      fft
     type of pbc corrections           =                parabolic
     numerical core for corrections    =                      1da

     ================================================================================


     >>>>> Grand-Canonical SCF is activated <<<<<
     Initial Total Charge  =     0.000000 e
     Target Fermi Energy   =    -1.904000 eV
     Thr. of Fermi Energy  =     0.001000 eV
     Wave-shift of Kerker  =     0.400000 bohr^-1
     Wave-shift of Hartree =     1.500000 bohr^-1
     Mixing Rate of Fermi  =     0.050000

     celldm(1)=  18.360747  celldm(2)=   0.586302  celldm(3)=   5.699811
     celldm(4)=   0.000000  celldm(5)=   0.000000  celldm(6)=   0.000000

     crystal axes: (cart. coord. in units of alat)
               a(1) = (   1.000000   0.000000   0.000000 )  
               a(2) = (   0.000000   0.586302   0.000000 )  
               a(3) = (   0.000000   0.000000   5.699811 )  

     reciprocal axes: (cart. coord. in units 2 pi/alat)
               b(1) = (  1.000000  0.000000  0.000000 )  
               b(2) = (  0.000000  1.705606  0.000000 )  
               b(3) = (  0.000000  0.000000  0.175444 )  


     PseudoPot. # 1 for Li read from file:
     /work/e89/e89/ba3g18/Repos/Pseudopotentials/Pslibrary/Li.pbe-sl-kjpaw_psl.1.0.0.UPF
     MD5 check sum: 3f4d2cafebb47c6c3aa8ed472e6f074d
     Pseudo is Projector augmented-wave, Zval =  3.0
     Generated using 'atomic' code by A. Dal Corso  v.7.4
     Shape of augmentation charge: PSQ
     Using radial grid of 1017 points,  4 beta functions with: 
                l(1) =   0
                l(2) =   0
                l(3) =   1
                l(4) =   1
     Q(r) pseudized with 0 coefficients 


     atomic species   valence    mass     pseudopotential
     Li                3.00     6.94000     Li( 1.00)

      2 Sym. Ops. (no inversion) found


                                    s                        frac. trans.

      isym =  1     identity                                     

 cryst.   s( 1) = (     1          0          0      )
                  (     0          1          0      )
                  (     0          0          1      )

 cart.    s( 1) = (  1.0000000  0.0000000  0.0000000 )
                  (  0.0000000  1.0000000  0.0000000 )
                  (  0.0000000  0.0000000  1.0000000 )


      isym =  2     inv. 180 deg rotation - cart. axis [1,0,0]   

 cryst.   s( 2) = (    -1          0          0      )
                  (     0          1          0      )
                  (     0          0          1      )

 cart.    s( 2) = ( -1.0000000  0.0000000  0.0000000 )
                  (  0.0000000  1.0000000  0.0000000 )
                  (  0.0000000  0.0000000  1.0000000 )


     point group C_s (m)    
     there are  2 classes
     the character table:

       E     s    
A'     1.00  1.00
A''    1.00 -1.00

     the symmetry operations in each class and the name of the first element:

     E        1
          identity                                               
     s        2
          inv. 180 deg rotation - cart. axis [1,0,0]             

   Cartesian axes

     site n.     atom                  positions (alat units)
         1        Li     tau(   1) = (   0.5000000   0.5902007   3.6215390  )
         2        Li     tau(   2) = (   0.2499920   0.4225150   2.0782489  )
         3        Li     tau(   3) = (   0.2499997   0.1101460   2.2201788  )
         4        Li     tau(   4) = (   0.5000000   0.2346870   2.1122790  )
         5        Li     tau(   5) = (   0.0000000   0.5114110   2.2638606  )
         6        Li     tau(   6) = (   0.5000000   0.1984300   2.4191709  )
         7        Li     tau(   7) = (   0.2500107   0.3191111   2.6761766  )
         8        Li     tau(   8) = (   0.2499913   0.5915233   2.8194173  )
         9        Li     tau(   9) = (   0.2500068   0.3702456   2.3756846  )
        10        Li     tau(  10) = (   0.2499927   0.0527181   2.5159671  )
        11        Li     tau(  11) = (   0.0000000   0.4674378   2.5747948  )
        12        Li     tau(  12) = (   0.5000000   0.1526858   2.7217183  )
        13        Li     tau(  13) = (   0.5000000   0.4211449   2.8803690  )
        14        Li     tau(  14) = (   0.5000000   0.1072630   3.0236264  )
        15        Li     tau(  15) = (   0.2499824   0.5452528   3.1250417  )
        16        Li     tau(  16) = (   0.2500229   0.2279655   3.2806452  )
        17        Li     tau(  17) = (   0.2500141   0.2736841   2.9780991  )
        18        Li     tau(  18) = (   0.0000000   0.3736947   3.1838754  )
        19        Li     tau(  19) = (   0.5000000   0.0561513   3.3241068  )
        20        Li     tau(  20) = (   0.5000000   0.3162657   3.4795657  )
        21        Li     tau(  21) = (   0.2499788   0.5013149   3.4359594  )
        22        Li     tau(  22) = (   0.2500283   0.1917577   3.5875413  )
        23        Li     tau(  23) = (   1.0000000   0.5902464   3.6215431  )
        24        Li     tau(  24) = (   0.7500080   0.4225150   2.0782489  )
        25        Li     tau(  25) = (   0.7500003   0.1101460   2.2201788  )
        26        Li     tau(  26) = (   1.0000000   0.2346758   2.1122754  )
        27        Li     tau(  27) = (   0.5000000   0.5114105   2.2638363  )
        28        Li     tau(  28) = (   1.0000000   0.1984341   2.4191699  )
        29        Li     tau(  29) = (   0.7499893   0.3191111   2.6761766  )
        30        Li     tau(  30) = (   0.7500087   0.5915233   2.8194173  )
        31        Li     tau(  31) = (   0.7499932   0.3702456   2.3756846  )
        32        Li     tau(  32) = (   0.7500073   0.0527181   2.5159671  )
        33        Li     tau(  33) = (   0.5000000   0.4674285   2.5747611  )
        34        Li     tau(  34) = (   1.0000000   0.1526903   2.7217191  )
        35        Li     tau(  35) = (   1.0000000   0.4211597   2.8804235  )
        36        Li     tau(  36) = (   1.0000000   0.1072718   3.0236329  )
        37        Li     tau(  37) = (   0.7500176   0.5452528   3.1250417  )
        38        Li     tau(  38) = (   0.7499771   0.2279655   3.2806452  )
        39        Li     tau(  39) = (   0.7499859   0.2736841   2.9780991  )
        40        Li     tau(  40) = (   0.5000000   0.3736504   3.1838107  )
        41        Li     tau(  41) = (   1.0000000   0.0561538   3.3241065  )
        42        Li     tau(  42) = (   1.0000000   0.3162864   3.4796643  )
        43        Li     tau(  43) = (   0.7500212   0.5013149   3.4359594  )
        44        Li     tau(  44) = (   0.7499717   0.1917577   3.5875413  )

   Crystallographic axes

     site n.     atom                  positions (cryst. coord.)
         1        Li     tau(   1) = (  0.5000000  1.0066496  0.6353788  )
         2        Li     tau(   2) = (  0.2499920  0.7206440  0.3646172  )
         3        Li     tau(   3) = (  0.2499997  0.1878656  0.3895180  )
         4        Li     tau(   4) = (  0.5000000  0.4002834  0.3705875  )
         5        Li     tau(   5) = (  0.0000000  0.8722655  0.3971817  )
         6        Li     tau(   6) = (  0.5000000  0.3384434  0.4244300  )
         7        Li     tau(   7) = (  0.2500107  0.5442777  0.4695202  )
         8        Li     tau(   8) = (  0.2499913  1.0089054  0.4946510  )
         9        Li     tau(   9) = (  0.2500068  0.6314930  0.4168006  )
        10        Li     tau(  10) = (  0.2499927  0.0899162  0.4414124  )
        11        Li     tau(  11) = (  0.0000000  0.7972645  0.4517334  )
        12        Li     tau(  12) = (  0.5000000  0.2604217  0.4775103  )
        13        Li     tau(  13) = (  0.5000000  0.7183072  0.5053446  )
        14        Li     tau(  14) = (  0.5000000  0.1829484  0.5304784  )
        15        Li     tau(  15) = (  0.2499824  0.9299863  0.5482711  )
        16        Li     tau(  16) = (  0.2500229  0.3888192  0.5755709  )
        17        Li     tau(  17) = (  0.2500141  0.4667971  0.5224908  )
        18        Li     tau(  18) = (  0.0000000  0.6373759  0.5585932  )
        19        Li     tau(  19) = (  0.5000000  0.0957719  0.5831960  )
        20        Li     tau(  20) = (  0.5000000  0.5394246  0.6104704  )
        21        Li     tau(  21) = (  0.2499788  0.8550455  0.6028199  )
        22        Li     tau(  22) = (  0.2500283  0.3270630  0.6294141  )
        23        Li     tau(  23) = (  1.0000000  1.0067275  0.6353795  )
        24        Li     tau(  24) = (  0.7500080  0.7206440  0.3646172  )
        25        Li     tau(  25) = (  0.7500003  0.1878656  0.3895180  )
        26        Li     tau(  26) = (  1.0000000  0.4002644  0.3705869  )
        27        Li     tau(  27) = (  0.5000000  0.8722647  0.3971774  )
        28        Li     tau(  28) = (  1.0000000  0.3384503  0.4244299  )
        29        Li     tau(  29) = (  0.7499893  0.5442777  0.4695202  )
        30        Li     tau(  30) = (  0.7500087  1.0089054  0.4946510  )
        31        Li     tau(  31) = (  0.7499932  0.6314930  0.4168006  )
        32        Li     tau(  32) = (  0.7500073  0.0899162  0.4414124  )
        33        Li     tau(  33) = (  0.5000000  0.7972486  0.4517274  )
        34        Li     tau(  34) = (  1.0000000  0.2604294  0.4775104  )
        35        Li     tau(  35) = (  1.0000000  0.7183323  0.5053542  )
        36        Li     tau(  36) = (  1.0000000  0.1829633  0.5304795  )
        37        Li     tau(  37) = (  0.7500176  0.9299863  0.5482711  )
        38        Li     tau(  38) = (  0.7499771  0.3888192  0.5755709  )
        39        Li     tau(  39) = (  0.7499859  0.4667971  0.5224908  )
        40        Li     tau(  40) = (  0.5000000  0.6373002  0.5585818  )
        41        Li     tau(  41) = (  1.0000000  0.0957763  0.5831959  )
        42        Li     tau(  42) = (  1.0000000  0.5394598  0.6104877  )
        43        Li     tau(  43) = (  0.7500212  0.8550455  0.6028199  )
        44        Li     tau(  44) = (  0.7499717  0.3270630  0.6294141  )

     number of k points=    28  Marzari-Vanderbilt smearing, width (Ry)=  0.0100
                       cart. coord. in units 2pi/alat
        k(    1) = (   0.0000000   0.0000000   0.0000000), wk =   0.0238095
        k(    2) = (   0.0000000   0.1421338   0.0000000), wk =   0.0476190
        k(    3) = (   0.0000000   0.2842676   0.0000000), wk =   0.0476190
        k(    4) = (   0.0000000   0.4264014   0.0000000), wk =   0.0476190
        k(    5) = (   0.0000000   0.5685352   0.0000000), wk =   0.0476190
        k(    6) = (   0.0000000   0.7106690   0.0000000), wk =   0.0476190
        k(    7) = (   0.0000000  -0.8528028   0.0000000), wk =   0.0238095
        k(    8) = (   0.1428571   0.0000000   0.0000000), wk =   0.0476190
        k(    9) = (   0.1428571   0.1421338   0.0000000), wk =   0.0952381
        k(   10) = (   0.1428571   0.2842676   0.0000000), wk =   0.0952381
        k(   11) = (   0.1428571   0.4264014   0.0000000), wk =   0.0952381
        k(   12) = (   0.1428571   0.5685352   0.0000000), wk =   0.0952381
        k(   13) = (   0.1428571   0.7106690   0.0000000), wk =   0.0952381
        k(   14) = (   0.1428571  -0.8528028   0.0000000), wk =   0.0476190
        k(   15) = (   0.2857143   0.0000000   0.0000000), wk =   0.0476190
        k(   16) = (   0.2857143   0.1421338   0.0000000), wk =   0.0952381
        k(   17) = (   0.2857143   0.2842676   0.0000000), wk =   0.0952381
        k(   18) = (   0.2857143   0.4264014   0.0000000), wk =   0.0952381
        k(   19) = (   0.2857143   0.5685352   0.0000000), wk =   0.0952381
        k(   20) = (   0.2857143   0.7106690   0.0000000), wk =   0.0952381
        k(   21) = (   0.2857143  -0.8528028   0.0000000), wk =   0.0476190
        k(   22) = (   0.4285714   0.0000000   0.0000000), wk =   0.0476190
        k(   23) = (   0.4285714   0.1421338   0.0000000), wk =   0.0952381
        k(   24) = (   0.4285714   0.2842676   0.0000000), wk =   0.0952381
        k(   25) = (   0.4285714   0.4264014   0.0000000), wk =   0.0952381
        k(   26) = (   0.4285714   0.5685352   0.0000000), wk =   0.0952381
        k(   27) = (   0.4285714   0.7106690   0.0000000), wk =   0.0952381
        k(   28) = (   0.4285714  -0.8528028   0.0000000), wk =   0.0476190

                       cryst. coord.
        k(    1) = (   0.0000000   0.0000000   0.0000000), wk =   0.0238095
        k(    2) = (   0.0000000   0.0833333   0.0000000), wk =   0.0476190
        k(    3) = (   0.0000000   0.1666667   0.0000000), wk =   0.0476190
        k(    4) = (   0.0000000   0.2500000   0.0000000), wk =   0.0476190
        k(    5) = (   0.0000000   0.3333333   0.0000000), wk =   0.0476190
        k(    6) = (   0.0000000   0.4166667   0.0000000), wk =   0.0476190
        k(    7) = (   0.0000000  -0.5000000   0.0000000), wk =   0.0238095
        k(    8) = (   0.1428571   0.0000000   0.0000000), wk =   0.0476190
        k(    9) = (   0.1428571   0.0833333   0.0000000), wk =   0.0952381
        k(   10) = (   0.1428571   0.1666667   0.0000000), wk =   0.0952381
        k(   11) = (   0.1428571   0.2500000   0.0000000), wk =   0.0952381
        k(   12) = (   0.1428571   0.3333333   0.0000000), wk =   0.0952381
        k(   13) = (   0.1428571   0.4166667   0.0000000), wk =   0.0952381
        k(   14) = (   0.1428571  -0.5000000   0.0000000), wk =   0.0476190
        k(   15) = (   0.2857143   0.0000000   0.0000000), wk =   0.0476190
        k(   16) = (   0.2857143   0.0833333   0.0000000), wk =   0.0952381
        k(   17) = (   0.2857143   0.1666667   0.0000000), wk =   0.0952381
        k(   18) = (   0.2857143   0.2500000   0.0000000), wk =   0.0952381
        k(   19) = (   0.2857143   0.3333333   0.0000000), wk =   0.0952381
        k(   20) = (   0.2857143   0.4166667   0.0000000), wk =   0.0952381
        k(   21) = (   0.2857143  -0.5000000   0.0000000), wk =   0.0476190
        k(   22) = (   0.4285714   0.0000000   0.0000000), wk =   0.0476190
        k(   23) = (   0.4285714   0.0833333   0.0000000), wk =   0.0952381
        k(   24) = (   0.4285714   0.1666667   0.0000000), wk =   0.0952381
        k(   25) = (   0.4285714   0.2500000   0.0000000), wk =   0.0952381
        k(   26) = (   0.4285714   0.3333333   0.0000000), wk =   0.0952381
        k(   27) = (   0.4285714   0.4166667   0.0000000), wk =   0.0952381
        k(   28) = (   0.4285714  -0.5000000   0.0000000), wk =   0.0476190

     Dense  grid:  7904519 G-vectors     FFT dimensions: ( 180, 100, 960)

     Smooth grid:  1999739 G-vectors     FFT dimensions: ( 108,  64, 600)

     Dynamical RAM for                 wfc:       1.47 MB

     Dynamical RAM for     wfc (w. buffer):      22.12 MB

     Dynamical RAM for           str. fact:       0.47 MB

     Dynamical RAM for           local pot:       0.00 MB

     Dynamical RAM for          nlocal pot:       5.24 MB

     Dynamical RAM for                qrad:       0.65 MB

     Dynamical RAM for          rho,v,vnew:       3.06 MB

     Dynamical RAM for               rhoin:       1.02 MB

     Dynamical RAM for            rho*nmix:       7.54 MB

     Dynamical RAM for           G-vectors:       1.83 MB

     Dynamical RAM for          h,s,v(r/c):       7.18 MB

     Dynamical RAM for          <psi|beta>:       0.53 MB

     Dynamical RAM for                 psi:       5.90 MB

     Dynamical RAM for                hpsi:       5.90 MB

     Dynamical RAM for                spsi:       5.90 MB

     Dynamical RAM for      wfcinit/wfcrot:       3.17 MB

     Dynamical RAM for           addusdens:      20.73 MB

     Dynamical RAM for          addusforce:      41.02 MB

     Estimated static dynamical RAM per process >      38.07 MB

     Estimated max dynamical RAM per process >     120.61 MB

     Estimated total dynamical RAM >      41.43 GB

     Initial potential from superposition of free atoms

     starting charge     131.7972, renormalised to     132.0000

     negative rho (up, down):  3.460E-03 0.000E+00
     Starting wfcs are random
     Checking if some PAW data can be deallocated... 

     total cpu time spent up to now is       27.5 secs

     Self-consistent Calculation

     iteration #  1     ecut=    80.00 Ry     beta= 0.20
     Davidson diagonalization with overlap

---- Real-time Memory Report at c_bands before calling an iterative solver
           541 MiB given to the printing process from OS
             0 MiB allocation reported by mallinfo(arena+hblkhd)
        214377 MiB available memory on the node where the printing process lives
------------------
     c_bands:  1 eigenvalues not converged
     c_bands:  1 eigenvalues not converged
     ethr =  1.00E-12,  avg # of iterations =117.2

     negative rho (up, down):  2.575E-03 0.000E+00

     total cpu time spent up to now is      283.4 secs

     total energy              =    -661.38874316 Ry
     estimated scf accuracy    <       0.12987350 Ry

     total charge of GC-SCF    =      -0.04664259 e
     the Fermi energy          =      -4.08659219 eV
                        (error :       2.18259219 eV)
     electrostatic embedding   =       0.00000000 Ry
     cavitation energy         =       0.02362038 Ry
     electrolyte free energy   =       0.00890302 Ry
     correction to one-el term =      -0.00000000 Ry

     iteration #  2     ecut=    80.00 Ry     beta= 0.20
     Davidson diagonalization with overlap

---- Real-time Memory Report at c_bands before calling an iterative solver
           541 MiB given to the printing process from OS
             0 MiB allocation reported by mallinfo(arena+hblkhd)
        213021 MiB available memory on the node where the printing process lives
------------------
     ethr =  1.00E-05,  avg # of iterations = 14.3

     negative rho (up, down):  2.079E-03 0.000E+00

     total cpu time spent up to now is      313.6 secs

     total energy              =    -661.69301870 Ry
     estimated scf accuracy    <       0.11135274 Ry

     total charge of GC-SCF    =      -0.05349806 e
     the Fermi energy          =      -2.49356538 eV
                        (error :       0.58956538 eV)
     electrostatic embedding   =      -0.00046755 Ry
     cavitation energy         =       0.02362038 Ry
     electrolyte free energy   =       0.00890302 Ry
     correction to one-el term =      -0.00000000 Ry

     iteration #  3     ecut=    80.00 Ry     beta= 0.20
     Davidson diagonalization with overlap

---- Real-time Memory Report at c_bands before calling an iterative solver
           541 MiB given to the printing process from OS
             0 MiB allocation reported by mallinfo(arena+hblkhd)
        212913 MiB available memory on the node where the printing process lives
------------------
     ethr =  1.00E-05,  avg # of iterations = 11.4

     negative rho (up, down):  1.556E-03 0.000E+00

     add environment contribution to local potential

     total cpu time spent up to now is      342.9 secs

     total energy              =    -661.58605500 Ry
     estimated scf accuracy    <       0.03960948 Ry

     total charge of GC-SCF    =      -0.05475602 e
     the Fermi energy          =      -2.50754542 eV
                        (error :       0.60354542 eV)
     electrostatic embedding   =      -0.00053626 Ry
     cavitation energy         =       0.02362038 Ry
     electrolyte free energy   =       0.00890302 Ry
     correction to one-el term =      -0.00000000 Ry

     iteration #  4     ecut=    80.00 Ry     beta= 0.20
     Davidson diagonalization with overlap

---- Real-time Memory Report at c_bands before calling an iterative solver
           541 MiB given to the printing process from OS
             0 MiB allocation reported by mallinfo(arena+hblkhd)
        212885 MiB available memory on the node where the printing process lives
------------------
     ethr =  1.00E-05,  avg # of iterations = 30.2

     negative rho (up, down):  1.321E-03 0.000E+00

     add environment contribution to local potential

     total cpu time spent up to now is      395.3 secs

     total energy              =    -661.69717137 Ry
     estimated scf accuracy    <       0.01775052 Ry

     total charge of GC-SCF    =      -0.10923820 e
     the Fermi energy          =      -2.52751611 eV
                        (error :       0.62351611 eV)
     electrostatic embedding   =      -0.02467535 Ry
     cavitation energy         =       0.02362038 Ry
     electrolyte free energy   =      -0.00074947 Ry
     correction to one-el term =       7.06838810 Ry

     iteration #  5     ecut=    80.00 Ry     beta= 0.20
     Davidson diagonalization with overlap

---- Real-time Memory Report at c_bands before calling an iterative solver
           541 MiB given to the printing process from OS
             0 MiB allocation reported by mallinfo(arena+hblkhd)
        212901 MiB available memory on the node where the printing process lives
------------------
     ethr =  1.00E-05,  avg # of iterations =  8.4

     negative rho (up, down):  1.198E-03 0.000E+00

     add environment contribution to local potential

     total cpu time spent up to now is      417.6 secs

     total energy              =    -661.59249745 Ry
     estimated scf accuracy    <       0.01460084 Ry

     total charge of GC-SCF    =      -0.38717170 e
     the Fermi energy          =      -2.60324371 eV
                        (error :       0.69924371 eV)
     electrostatic embedding   =      -0.03004041 Ry
     cavitation energy         =       0.02362038 Ry
     electrolyte free energy   =      -0.00078740 Ry
     correction to one-el term =       8.72123152 Ry

     iteration #  6     ecut=    80.00 Ry     beta= 0.20
     Davidson diagonalization with overlap

---- Real-time Memory Report at c_bands before calling an iterative solver
           541 MiB given to the printing process from OS
             0 MiB allocation reported by mallinfo(arena+hblkhd)
        212842 MiB available memory on the node where the printing process lives
------------------
     ethr =  1.00E-05,  avg # of iterations = 10.4

     negative rho (up, down):  1.051E-03 0.000E+00

     add environment contribution to local potential

     total cpu time spent up to now is      446.5 secs

     total energy              =    -661.66766257 Ry
     estimated scf accuracy    <       0.00263348 Ry

     total charge of GC-SCF    =      -0.57744965 e
     the Fermi energy          =      -2.60461038 eV
                        (error :       0.70061038 eV)
     electrostatic embedding   =      -0.07728344 Ry
     cavitation energy         =       0.02362038 Ry
     electrolyte free energy   =      -0.00053340 Ry
     correction to one-el term =      20.96209502 Ry

     iteration #  7     ecut=    80.00 Ry     beta= 0.20
     Davidson diagonalization with overlap

---- Real-time Memory Report at c_bands before calling an iterative solver
           541 MiB given to the printing process from OS
             0 MiB allocation reported by mallinfo(arena+hblkhd)
        212796 MiB available memory on the node where the printing process lives
------------------
     ethr =  1.99E-06,  avg # of iterations = 18.5

     negative rho (up, down):  9.472E-04 0.000E+00

     add environment contribution to local potential

     total cpu time spent up to now is      491.5 secs

     total energy              =    -661.70570494 Ry
     estimated scf accuracy    <       0.00369397 Ry

     total charge of GC-SCF    =      -0.76398895 e
     the Fermi energy          =      -2.31890574 eV
                        (error :       0.41490574 eV)
     electrostatic embedding   =      -0.12431525 Ry
     cavitation energy         =       0.02362038 Ry
     electrolyte free energy   =      -0.00076593 Ry
     correction to one-el term =      30.98102940 Ry

     iteration #  8     ecut=    80.00 Ry     beta= 0.20
     Davidson diagonalization with overlap

---- Real-time Memory Report at c_bands before calling an iterative solver
           541 MiB given to the printing process from OS
             0 MiB allocation reported by mallinfo(arena+hblkhd)
        212762 MiB available memory on the node where the printing process lives
------------------
     ethr =  1.99E-06,  avg # of iterations = 14.7

     negative rho (up, down):  8.567E-04 0.000E+00

     add environment contribution to local potential

     total cpu time spent up to now is      526.9 secs

     total energy              =    -661.70402490 Ry
     estimated scf accuracy    <       0.00873563 Ry

     total charge of GC-SCF    =      -0.84076062 e
     the Fermi energy          =      -2.19399272 eV
                        (error :       0.28999272 eV)
     electrostatic embedding   =      -0.18160657 Ry
     cavitation energy         =       0.02362038 Ry
     electrolyte free energy   =      -0.00159257 Ry
     correction to one-el term =      38.56575972 Ry

     iteration #  9     ecut=    80.00 Ry     beta= 0.20
     Davidson diagonalization with overlap

---- Real-time Memory Report at c_bands before calling an iterative solver
           541 MiB given to the printing process from OS
             0 MiB allocation reported by mallinfo(arena+hblkhd)
        212731 MiB available memory on the node where the printing process lives
------------------
     ethr =  1.99E-06,  avg # of iterations = 11.7

     negative rho (up, down):  8.216E-04 0.000E+00

     add environment contribution to local potential

     total cpu time spent up to now is      553.8 secs

     total energy              =    -661.66783351 Ry
     estimated scf accuracy    <       0.00382900 Ry

     total charge of GC-SCF    =      -1.14019595 e
     the Fermi energy          =      -2.28090330 eV
                        (error :       0.37690330 eV)
     electrostatic embedding   =      -0.21017404 Ry
     cavitation energy         =       0.02362038 Ry
     electrolyte free energy   =      -0.00139938 Ry
     correction to one-el term =      40.96479063 Ry

     iteration # 10     ecut=    80.00 Ry     beta= 0.20
     Davidson diagonalization with overlap

---- Real-time Memory Report at c_bands before calling an iterative solver
           541 MiB given to the printing process from OS
             0 MiB allocation reported by mallinfo(arena+hblkhd)
        212701 MiB available memory on the node where the printing process lives
------------------
     ethr =  1.99E-06,  avg # of iterations = 13.4

     negative rho (up, down):  6.963E-04 0.000E+00

     add environment contribution to local potential

     total cpu time spent up to now is      588.6 secs

     total energy              =    -661.71399277 Ry
     estimated scf accuracy    <       0.00104785 Ry

     total charge of GC-SCF    =      -1.23842393 e
     the Fermi energy          =      -2.42914577 eV
                        (error :       0.52514577 eV)
     electrostatic embedding   =      -0.34234282 Ry
     cavitation energy         =       0.02362038 Ry
     electrolyte free energy   =      -0.00202943 Ry
     correction to one-el term =      50.72600552 Ry

     iteration # 11     ecut=    80.00 Ry     beta= 0.20
     Davidson diagonalization with overlap

---- Real-time Memory Report at c_bands before calling an iterative solver
           541 MiB given to the printing process from OS
             0 MiB allocation reported by mallinfo(arena+hblkhd)
        212630 MiB available memory on the node where the printing process lives
------------------
     ethr =  7.86E-07,  avg # of iterations = 30.6

     negative rho (up, down):  6.159E-04 0.000E+00

     add environment contribution to local potential

     total cpu time spent up to now is      641.8 secs

     total energy              =    -661.69764344 Ry
     estimated scf accuracy    <       0.02085968 Ry

     total charge of GC-SCF    =      -1.43583475 e
     the Fermi energy          =      -2.00982931 eV
                        (error :       0.10582931 eV)
     electrostatic embedding   =      -0.37211728 Ry
     cavitation energy         =       0.02362038 Ry
     electrolyte free energy   =      -0.00388490 Ry
     correction to one-el term =      55.29255456 Ry

     iteration # 12     ecut=    80.00 Ry     beta= 0.20
     Davidson diagonalization with overlap

---- Real-time Memory Report at c_bands before calling an iterative solver
           541 MiB given to the printing process from OS
             0 MiB allocation reported by mallinfo(arena+hblkhd)
        212621 MiB available memory on the node where the printing process lives
------------------
     ethr =  7.86E-07,  avg # of iterations = 13.1

     negative rho (up, down):  5.739E-04 0.000E+00

     add environment contribution to local potential

     total cpu time spent up to now is      677.3 secs

     total energy              =    -661.67899795 Ry
     estimated scf accuracy    <       0.00849122 Ry

     total charge of GC-SCF    =      -1.76602517 e
     the Fermi energy          =      -2.12713765 eV
                        (error :       0.22313765 eV)
     electrostatic embedding   =      -0.47142978 Ry
     cavitation energy         =       0.02362038 Ry
     electrolyte free energy   =      -0.00389526 Ry
     correction to one-el term =      61.41195347 Ry

     iteration # 13     ecut=    80.00 Ry     beta= 0.20
     Davidson diagonalization with overlap

---- Real-time Memory Report at c_bands before calling an iterative solver
           541 MiB given to the printing process from OS
             0 MiB allocation reported by mallinfo(arena+hblkhd)
        212642 MiB available memory on the node where the printing process lives
------------------
     ethr =  7.86E-07,  avg # of iterations = 15.2

     negative rho (up, down):  5.260E-04 0.000E+00

     add environment contribution to local potential

     total cpu time spent up to now is      718.7 secs

     total energy              =    -661.75305606 Ry
     estimated scf accuracy    <       0.00110957 Ry

     total charge of GC-SCF    =      -1.91443996 e
     the Fermi energy          =      -2.28317053 eV
                        (error :       0.37917053 eV)
     electrostatic embedding   =      -0.67352278 Ry
     cavitation energy         =       0.02362038 Ry
     electrolyte free energy   =      -0.00490355 Ry
     correction to one-el term =      71.72103587 Ry

     iteration # 14     ecut=    80.00 Ry     beta= 0.20
     Davidson diagonalization with overlap

---- Real-time Memory Report at c_bands before calling an iterative solver
           541 MiB given to the printing process from OS
             0 MiB allocation reported by mallinfo(arena+hblkhd)
        212646 MiB available memory on the node where the printing process lives
------------------
     ethr =  7.86E-07,  avg # of iterations =  9.7

     negative rho (up, down):  4.589E-04 0.000E+00

     add environment contribution to local potential

     total cpu time spent up to now is      745.2 secs

     total energy              =    -661.73722486 Ry
     estimated scf accuracy    <       0.00115133 Ry

     total charge of GC-SCF    =      -2.43625133 e
     the Fermi energy          =      -2.24443644 eV
                        (error :       0.34043644 eV)
     electrostatic embedding   =      -0.76868850 Ry
     cavitation energy         =       0.02362038 Ry
     electrolyte free energy   =      -0.00595447 Ry
     correction to one-el term =      76.61245584 Ry

     iteration # 15     ecut=    80.00 Ry     beta= 0.20
     Davidson diagonalization with overlap

---- Real-time Memory Report at c_bands before calling an iterative solver
           541 MiB given to the printing process from OS
             0 MiB allocation reported by mallinfo(arena+hblkhd)
        212672 MiB available memory on the node where the printing process lives
------------------
     ethr =  7.86E-07,  avg # of iterations = 12.4

     negative rho (up, down):  4.364E-04 0.000E+00

     add environment contribution to local potential

     total cpu time spent up to now is      781.6 secs

     total energy              =    -661.77634643 Ry
     estimated scf accuracy    <       0.00116595 Ry

     total charge of GC-SCF    =      -2.52988905 e
     the Fermi energy          =      -2.18855875 eV
                        (error :       0.28455875 eV)
     electrostatic embedding   =      -1.15107241 Ry
     cavitation energy         =       0.02362038 Ry
     electrolyte free energy   =      -0.01053254 Ry
     correction to one-el term =      92.40711738 Ry

     iteration # 16     ecut=    80.00 Ry     beta= 0.20
     Davidson diagonalization with overlap

---- Real-time Memory Report at c_bands before calling an iterative solver
           541 MiB given to the printing process from OS
             0 MiB allocation reported by mallinfo(arena+hblkhd)
        212677 MiB available memory on the node where the printing process lives
------------------
     ethr =  7.86E-07,  avg # of iterations = 10.7

     negative rho (up, down):  4.205E-04 0.000E+00

     add environment contribution to local potential

     total cpu time spent up to now is      808.3 secs

     total energy              =    -661.77273123 Ry
     estimated scf accuracy    <       0.00022621 Ry

     total charge of GC-SCF    =      -2.85401575 e
     the Fermi energy          =      -2.23256300 eV
                        (error :       0.32856300 eV)
     electrostatic embedding   =      -1.23080504 Ry
     cavitation energy         =       0.02362038 Ry
     electrolyte free energy   =      -0.01142448 Ry
     correction to one-el term =      94.81140532 Ry

     iteration # 17     ecut=    80.00 Ry     beta= 0.20
     Davidson diagonalization with overlap

---- Real-time Memory Report at c_bands before calling an iterative solver
           541 MiB given to the printing process from OS
             0 MiB allocation reported by mallinfo(arena+hblkhd)
        212649 MiB available memory on the node where the printing process lives
------------------
     ethr =  1.68E-07,  avg # of iterations = 11.0

     negative rho (up, down):  3.994E-04 0.000E+00

     add environment contribution to local potential

     total cpu time spent up to now is      842.1 secs

     total energy              =    -661.80896105 Ry
     estimated scf accuracy    <       0.00011517 Ry

     total charge of GC-SCF    =      -3.51285406 e
     the Fermi energy          =      -2.19447199 eV
                        (error :       0.29047199 eV)
     electrostatic embedding   =      -1.52344458 Ry
     cavitation energy         =       0.02362038 Ry
     electrolyte free energy   =      -0.01594717 Ry
     correction to one-el term =     105.13796257 Ry

     iteration # 18     ecut=    80.00 Ry     beta= 0.20
     Davidson diagonalization with overlap

---- Real-time Memory Report at c_bands before calling an iterative solver
           541 MiB given to the printing process from OS
             0 MiB allocation reported by mallinfo(arena+hblkhd)
        212653 MiB available memory on the node where the printing process lives
------------------
     ethr =  8.50E-08,  avg # of iterations = 26.9

     negative rho (up, down):  3.874E-04 0.000E+00

     add environment contribution to local potential

     total cpu time spent up to now is      899.8 secs

     total energy              =    -661.80381960 Ry
     estimated scf accuracy    <       0.00018475 Ry

     total charge of GC-SCF    =      -3.58257460 e
     the Fermi energy          =      -2.02560504 eV
                        (error :       0.12160504 eV)
     electrostatic embedding   =      -2.19429273 Ry
     cavitation energy         =       0.02362038 Ry
     electrolyte free energy   =      -0.02914351 Ry
     correction to one-el term =     125.43597246 Ry

     iteration # 19     ecut=    80.00 Ry     beta= 0.20
     Davidson diagonalization with overlap

---- Real-time Memory Report at c_bands before calling an iterative solver
           541 MiB given to the printing process from OS
             0 MiB allocation reported by mallinfo(arena+hblkhd)
        212619 MiB available memory on the node where the printing process lives
------------------
     ethr =  8.50E-08,  avg # of iterations = 11.5

     negative rho (up, down):  3.737E-04 0.000E+00

     add environment contribution to local potential

     total cpu time spent up to now is      931.9 secs

     total energy              =    -661.80614375 Ry
     estimated scf accuracy    <       0.00004231 Ry

     total charge of GC-SCF    =      -3.72567642 e
     the Fermi energy          =      -2.04522613 eV
                        (error :       0.14122613 eV)
     electrostatic embedding   =      -2.27024861 Ry
     cavitation energy         =       0.02362038 Ry
     electrolyte free energy   =      -0.03067025 Ry
     correction to one-el term =     127.07923808 Ry

     iteration # 20     ecut=    80.00 Ry     beta= 0.20
     Davidson diagonalization with overlap

---- Real-time Memory Report at c_bands before calling an iterative solver
           541 MiB given to the printing process from OS
             0 MiB allocation reported by mallinfo(arena+hblkhd)
        212633 MiB available memory on the node where the printing process lives
------------------
     ethr =  3.12E-08,  avg # of iterations = 12.6

     negative rho (up, down):  3.615E-04 0.000E+00

     add environment contribution to local potential

     total cpu time spent up to now is      968.4 secs

     total energy              =    -661.80846978 Ry
     estimated scf accuracy    <       0.00006972 Ry

     total charge of GC-SCF    =      -3.96118533 e
     the Fermi energy          =      -2.00161694 eV
                        (error :       0.09761694 eV)
     electrostatic embedding   =      -2.42837455 Ry
     cavitation energy         =       0.02362038 Ry
     electrolyte free energy   =      -0.03443745 Ry
     correction to one-el term =     131.03165717 Ry

     iteration # 21     ecut=    80.00 Ry     beta= 0.20
     Davidson diagonalization with overlap

---- Real-time Memory Report at c_bands before calling an iterative solver
           541 MiB given to the printing process from OS
             0 MiB allocation reported by mallinfo(arena+hblkhd)
        212627 MiB available memory on the node where the printing process lives
------------------
     ethr =  3.12E-08,  avg # of iterations = 15.4

     negative rho (up, down):  3.538E-04 0.000E+00

     add environment contribution to local potential

     total cpu time spent up to now is     1005.8 secs

     total energy              =    -661.81123675 Ry
     estimated scf accuracy    <       0.00011269 Ry

     total charge of GC-SCF    =      -3.93779103 e
     the Fermi energy          =      -1.94285847 eV
                        (error :       0.03885847 eV)
     electrostatic embedding   =      -2.70330772 Ry
     cavitation energy         =       0.02362038 Ry
     electrolyte free energy   =      -0.04131901 Ry
     correction to one-el term =     137.63093301 Ry

     iteration # 22     ecut=    80.00 Ry     beta= 0.20
     Davidson diagonalization with overlap

---- Real-time Memory Report at c_bands before calling an iterative solver
           541 MiB given to the printing process from OS
             0 MiB allocation reported by mallinfo(arena+hblkhd)
        212607 MiB available memory on the node where the printing process lives
------------------
     ethr =  3.12E-08,  avg # of iterations = 13.3

     negative rho (up, down):  3.438E-04 0.000E+00

     add environment contribution to local potential

     total cpu time spent up to now is     1042.3 secs

     total energy              =    -661.81342808 Ry
     estimated scf accuracy    <       0.00002181 Ry

     total charge of GC-SCF    =      -4.17618786 e
     the Fermi energy          =      -1.97020615 eV
                        (error :       0.06620615 eV)
     electrostatic embedding   =      -2.67127760 Ry
     cavitation energy         =       0.02362038 Ry
     electrolyte free energy   =      -0.04044644 Ry
     correction to one-el term =     136.57585897 Ry

     iteration # 23     ecut=    80.00 Ry     beta= 0.20
     Davidson diagonalization with overlap

---- Real-time Memory Report at c_bands before calling an iterative solver
           541 MiB given to the printing process from OS
             0 MiB allocation reported by mallinfo(arena+hblkhd)
        212638 MiB available memory on the node where the printing process lives
------------------
     ethr =  1.60E-08,  avg # of iterations = 30.4

     negative rho (up, down):  3.378E-04 0.000E+00

     add environment contribution to local potential

     total cpu time spent up to now is     1100.1 secs

     total energy              =    -661.81203427 Ry
     estimated scf accuracy    <       0.00012154 Ry

     total charge of GC-SCF    =      -4.14966622 e
     the Fermi energy          =      -1.89672730 eV
                        (error :       0.00727270 eV)
     electrostatic embedding   =      -2.96431195 Ry
     cavitation energy         =       0.02362038 Ry
     electrolyte free energy   =      -0.04831977 Ry
     correction to one-el term =     143.41769512 Ry

     iteration # 24     ecut=    80.00 Ry     beta= 0.20
     Davidson diagonalization with overlap

---- Real-time Memory Report at c_bands before calling an iterative solver
           541 MiB given to the printing process from OS
             0 MiB allocation reported by mallinfo(arena+hblkhd)
        212672 MiB available memory on the node where the printing process lives
------------------
     ethr =  1.60E-08,  avg # of iterations = 12.3

     negative rho (up, down):  3.348E-04 0.000E+00

     add environment contribution to local potential

     total cpu time spent up to now is     1134.5 secs

     total energy              =    -661.81141359 Ry
     estimated scf accuracy    <       0.00006285 Ry

     total charge of GC-SCF    =      -4.17175316 e
     the Fermi energy          =      -1.91465253 eV
                        (error :       0.01065253 eV)
     electrostatic embedding   =      -2.92519917 Ry
     cavitation energy         =       0.02362038 Ry
     electrolyte free energy   =      -0.04730343 Ry
     correction to one-el term =     142.27528935 Ry

     iteration # 25     ecut=    80.00 Ry     beta= 0.20
     Davidson diagonalization with overlap

---- Real-time Memory Report at c_bands before calling an iterative solver
           541 MiB given to the printing process from OS
             0 MiB allocation reported by mallinfo(arena+hblkhd)
        212685 MiB available memory on the node where the printing process lives
------------------
     ethr =  1.60E-08,  avg # of iterations =  5.0

     negative rho (up, down):  3.292E-04 0.000E+00

     add environment contribution to local potential

     total cpu time spent up to now is     1156.4 secs

     total energy              =    -661.81126439 Ry
     estimated scf accuracy    <       0.00004102 Ry

     total charge of GC-SCF    =      -4.20933731 e
     the Fermi energy          =      -1.91427401 eV
                        (error :       0.01027401 eV)
     electrostatic embedding   =      -2.95338904 Ry
     cavitation energy         =       0.02362038 Ry
     electrolyte free energy   =      -0.04803136 Ry
     correction to one-el term =     142.87345012 Ry

     iteration # 26     ecut=    80.00 Ry     beta= 0.20
     Davidson diagonalization with overlap

---- Real-time Memory Report at c_bands before calling an iterative solver
           541 MiB given to the printing process from OS
             0 MiB allocation reported by mallinfo(arena+hblkhd)
        212678 MiB available memory on the node where the printing process lives
------------------
     ethr =  1.60E-08,  avg # of iterations = 11.4

     negative rho (up, down):  3.231E-04 0.000E+00

     add environment contribution to local potential

     total cpu time spent up to now is     1190.9 secs

     total energy              =    -661.81180349 Ry
     estimated scf accuracy    <       0.00001844 Ry

     total charge of GC-SCF    =      -4.29799145 e
     the Fermi energy          =      -1.91494232 eV
                        (error :       0.01094232 eV)
     electrostatic embedding   =      -2.99538169 Ry
     cavitation energy         =       0.02362038 Ry
     electrolyte free energy   =      -0.04924280 Ry
     correction to one-el term =     143.52426853 Ry

     iteration # 27     ecut=    80.00 Ry     beta= 0.20
     Davidson diagonalization with overlap

---- Real-time Memory Report at c_bands before calling an iterative solver
           541 MiB given to the printing process from OS
             0 MiB allocation reported by mallinfo(arena+hblkhd)
        212621 MiB available memory on the node where the printing process lives
------------------
     ethr =  1.35E-08,  avg # of iterations = 12.6

     negative rho (up, down):  3.211E-04 0.000E+00

     add environment contribution to local potential

     total cpu time spent up to now is     1228.9 secs

     total energy              =    -661.81193329 Ry
     estimated scf accuracy    <       0.00000065 Ry

     total charge of GC-SCF    =      -4.29858891 e
     the Fermi energy          =      -1.90807259 eV
                        (error :       0.00407259 eV)
     electrostatic embedding   =      -3.10148723 Ry
     cavitation energy         =       0.02362038 Ry
     electrolyte free energy   =      -0.05229035 Ry
     correction to one-el term =     145.46033610 Ry

     iteration # 28     ecut=    80.00 Ry     beta= 0.20
     Davidson diagonalization with overlap

---- Real-time Memory Report at c_bands before calling an iterative solver
           541 MiB given to the printing process from OS
             0 MiB allocation reported by mallinfo(arena+hblkhd)
        212614 MiB available memory on the node where the printing process lives
------------------
     ethr =  4.80E-10,  avg # of iterations = 21.4

     negative rho (up, down):  3.198E-04 0.000E+00

     add environment contribution to local potential

     total cpu time spent up to now is     1278.4 secs

     total energy              =    -661.81197586 Ry
     estimated scf accuracy    <       0.00000016 Ry

     total charge of GC-SCF    =      -4.32137483 e
     the Fermi energy          =      -1.90998290 eV
                        (error :       0.00598290 eV)
     electrostatic embedding   =      -3.10048605 Ry
     cavitation energy         =       0.02362038 Ry
     electrolyte free energy   =      -0.05229052 Ry
     correction to one-el term =     145.36903798 Ry

     iteration # 29     ecut=    80.00 Ry     beta= 0.20
     Davidson diagonalization with overlap

---- Real-time Memory Report at c_bands before calling an iterative solver
           541 MiB given to the printing process from OS
             0 MiB allocation reported by mallinfo(arena+hblkhd)
        212619 MiB available memory on the node where the printing process lives
------------------
     ethr =  1.21E-10,  avg # of iterations = 29.9

     negative rho (up, down):  3.188E-04 0.000E+00

     add environment contribution to local potential

     total cpu time spent up to now is     1337.4 secs

     total energy              =    -661.81193852 Ry
     estimated scf accuracy    <       0.00000010 Ry

     total charge of GC-SCF    =      -4.32181193 e
     the Fermi energy          =      -1.90354907 eV
                        (error :       0.00045093 eV)
     electrostatic embedding   =      -3.13004854 Ry
     cavitation energy         =       0.02362038 Ry
     electrolyte free energy   =      -0.05313686 Ry
     correction to one-el term =     146.01741613 Ry

     iteration # 30     ecut=    80.00 Ry     beta= 0.20
     Davidson diagonalization with overlap

---- Real-time Memory Report at c_bands before calling an iterative solver
           541 MiB given to the printing process from OS
             0 MiB allocation reported by mallinfo(arena+hblkhd)
        212611 MiB available memory on the node where the printing process lives
------------------
     ethr =  7.59E-11,  avg # of iterations = 13.0

     negative rho (up, down):  3.182E-04 0.000E+00

     add environment contribution to local potential

     total cpu time spent up to now is     1376.2 secs

     total energy              =    -661.81194019 Ry
     estimated scf accuracy    <       0.00000002 Ry

     total charge of GC-SCF    =      -4.32283840 e
     the Fermi energy          =      -1.90459371 eV
                        (error :       0.00059371 eV)
     electrostatic embedding   =      -3.12977113 Ry
     cavitation energy         =       0.02362038 Ry
     electrolyte free energy   =      -0.05314093 Ry
     correction to one-el term =     145.97419509 Ry

     iteration # 31     ecut=    80.00 Ry     beta= 0.20
     Davidson diagonalization with overlap

---- Real-time Memory Report at c_bands before calling an iterative solver
           541 MiB given to the printing process from OS
             0 MiB allocation reported by mallinfo(arena+hblkhd)
        212610 MiB available memory on the node where the printing process lives
------------------
     ethr =  1.69E-11,  avg # of iterations = 12.6

     negative rho (up, down):  3.178E-04 0.000E+00

     add environment contribution to local potential

     total cpu time spent up to now is     1413.5 secs

     total energy              =    -661.81194037 Ry
     estimated scf accuracy    <       0.00000001 Ry

     total charge of GC-SCF    =      -4.32215046 e
     the Fermi energy          =      -1.90413343 eV
                        (error :       0.00013343 eV)
     electrostatic embedding   =      -3.13086315 Ry
     cavitation energy         =       0.02362038 Ry
     electrolyte free energy   =      -0.05317933 Ry
     correction to one-el term =     145.99347196 Ry

     iteration # 32     ecut=    80.00 Ry     beta= 0.20
     Davidson diagonalization with overlap

---- Real-time Memory Report at c_bands before calling an iterative solver
           541 MiB given to the printing process from OS
             0 MiB allocation reported by mallinfo(arena+hblkhd)
        212585 MiB available memory on the node where the printing process lives
------------------
     ethr =  1.01E-11,  avg # of iterations = 11.9

     negative rho (up, down):  3.175E-04 0.000E+00

     add environment contribution to local potential

     total cpu time spent up to now is     1446.7 secs

     total energy              =    -661.81194015 Ry
     estimated scf accuracy    <          6.8E-09 Ry

     total charge of GC-SCF    =      -4.32320192 e
     the Fermi energy          =      -1.90436414 eV
                        (error :       0.00036414 eV)
     electrostatic embedding   =      -3.13000761 Ry
     cavitation energy         =       0.02362038 Ry
     electrolyte free energy   =      -0.05315399 Ry
     correction to one-el term =     145.97701884 Ry

     iteration # 33     ecut=    80.00 Ry     beta= 0.20
     Davidson diagonalization with overlap

---- Real-time Memory Report at c_bands before calling an iterative solver
           541 MiB given to the printing process from OS
             0 MiB allocation reported by mallinfo(arena+hblkhd)
        212556 MiB available memory on the node where the printing process lives
------------------
     ethr =  5.02E-12,  avg # of iterations =  9.9

     negative rho (up, down):  3.172E-04 0.000E+00

     add environment contribution to local potential

     total cpu time spent up to now is     1478.3 secs

     total energy              =    -661.81194019 Ry
     estimated scf accuracy    <          1.9E-09 Ry

     total charge of GC-SCF    =      -4.32342718 e
     the Fermi energy          =      -1.90416848 eV
                        (error :       0.00016848 eV)
     electrostatic embedding   =      -3.13136647 Ry
     cavitation energy         =       0.02362038 Ry
     electrolyte free energy   =      -0.05319284 Ry
     correction to one-el term =     146.00613753 Ry

     iteration # 34     ecut=    80.00 Ry     beta= 0.20
     Davidson diagonalization with overlap

---- Real-time Memory Report at c_bands before calling an iterative solver
           541 MiB given to the printing process from OS
             0 MiB allocation reported by mallinfo(arena+hblkhd)
        212533 MiB available memory on the node where the printing process lives
------------------
     ethr =  1.38E-12,  avg # of iterations = 11.3

     negative rho (up, down):  3.169E-04 0.000E+00

     add environment contribution to local potential

     total cpu time spent up to now is     1514.9 secs

     total energy              =    -661.81194020 Ry
     estimated scf accuracy    <          1.1E-09 Ry

     total charge of GC-SCF    =      -4.32376158 e
     the Fermi energy          =      -1.90417120 eV
                        (error :       0.00017120 eV)
     electrostatic embedding   =      -3.13166656 Ry
     cavitation energy         =       0.02362038 Ry
     electrolyte free energy   =      -0.05320085 Ry
     correction to one-el term =     146.01221265 Ry

     iteration # 35     ecut=    80.00 Ry     beta= 0.20
     Davidson diagonalization with overlap

---- Real-time Memory Report at c_bands before calling an iterative solver
           541 MiB given to the printing process from OS
             0 MiB allocation reported by mallinfo(arena+hblkhd)
        212555 MiB available memory on the node where the printing process lives
------------------
     ethr =  7.82E-13,  avg # of iterations =  9.4

     negative rho (up, down):  3.167E-04 0.000E+00

     add environment contribution to local potential

     total cpu time spent up to now is     1545.0 secs

     total energy              =    -661.81194020 Ry
     estimated scf accuracy    <          2.9E-10 Ry

     total charge of GC-SCF    =      -4.32392982 e
     the Fermi energy          =      -1.90409883 eV
                        (error :       0.00009883 eV)
     electrostatic embedding   =      -3.13211698 Ry
     cavitation energy         =       0.02362038 Ry
     electrolyte free energy   =      -0.05321333 Ry
     correction to one-el term =     146.02239401 Ry

     iteration # 36     ecut=    80.00 Ry     beta= 0.20
     Davidson diagonalization with overlap

---- Real-time Memory Report at c_bands before calling an iterative solver
           541 MiB given to the printing process from OS
             0 MiB allocation reported by mallinfo(arena+hblkhd)
        212553 MiB available memory on the node where the printing process lives
------------------
     ethr =  2.12E-13,  avg # of iterations = 13.2

     negative rho (up, down):  3.165E-04 0.000E+00

     add environment contribution to local potential

     total cpu time spent up to now is     1583.9 secs

     total energy              =    -661.81194021 Ry
     estimated scf accuracy    <          2.0E-10 Ry

     total charge of GC-SCF    =      -4.32427969 e
     the Fermi energy          =      -1.90407621 eV
                        (error :       0.00007621 eV)
     electrostatic embedding   =      -3.13232462 Ry
     cavitation energy         =       0.02362038 Ry
     electrolyte free energy   =      -0.05321938 Ry
     correction to one-el term =     146.02630163 Ry

     iteration # 37     ecut=    80.00 Ry     beta= 0.20
     Davidson diagonalization with overlap

---- Real-time Memory Report at c_bands before calling an iterative solver
           541 MiB given to the printing process from OS
             0 MiB allocation reported by mallinfo(arena+hblkhd)
        212538 MiB available memory on the node where the printing process lives
------------------
     ethr =  1.49E-13,  avg # of iterations = 12.8

     negative rho (up, down):  3.164E-04 0.000E+00

     add environment contribution to local potential

     total cpu time spent up to now is     1622.2 secs

     total energy              =    -661.81194021 Ry
     estimated scf accuracy    <          2.9E-11 Ry

     total charge of GC-SCF    =      -4.32450918 e
     the Fermi energy          =      -1.90400762 eV
                        (error :       0.00000762 eV)
     electrostatic embedding   =      -3.13277331 Ry
     cavitation energy         =       0.02362038 Ry
     electrolyte free energy   =      -0.05323228 Ry
     correction to one-el term =     146.03575781 Ry

     iteration # 38     ecut=    80.00 Ry     beta= 0.20
     Davidson diagonalization with overlap

---- Real-time Memory Report at c_bands before calling an iterative solver
           541 MiB given to the printing process from OS
             0 MiB allocation reported by mallinfo(arena+hblkhd)
        212504 MiB available memory on the node where the printing process lives
------------------
     ethr =  1.00E-13,  avg # of iterations = 13.4

     negative rho (up, down):  3.163E-04 0.000E+00

     add environment contribution to local potential

     total cpu time spent up to now is     1662.2 secs

     total energy              =    -661.81194020 Ry
     estimated scf accuracy    <          3.7E-11 Ry

     total charge of GC-SCF    =      -4.32448304 e
     the Fermi energy          =      -1.90397699 eV
                        (error :       0.00002301 eV)
     electrostatic embedding   =      -3.13305340 Ry
     cavitation energy         =       0.02362038 Ry
     electrolyte free energy   =      -0.05324057 Ry
     correction to one-el term =     146.04106606 Ry

     iteration # 39     ecut=    80.00 Ry     beta= 0.20
     Davidson diagonalization with overlap

---- Real-time Memory Report at c_bands before calling an iterative solver
           541 MiB given to the printing process from OS
             0 MiB allocation reported by mallinfo(arena+hblkhd)
        212532 MiB available memory on the node where the printing process lives
------------------
     ethr =  1.00E-13,  avg # of iterations = 10.6

     negative rho (up, down):  3.162E-04 0.000E+00

     add environment contribution to local potential

     total cpu time spent up to now is     1689.0 secs

     total energy              =    -661.81194020 Ry
     estimated scf accuracy    <          1.0E-11 Ry

     total charge of GC-SCF    =      -4.32450571 e
     the Fermi energy          =      -1.90397478 eV
                        (error :       0.00002522 eV)
     electrostatic embedding   =      -3.13301733 Ry
     cavitation energy         =       0.02362038 Ry
     electrolyte free energy   =      -0.05323963 Ry
     correction to one-el term =     146.04026487 Ry

     iteration # 40     ecut=    80.00 Ry     beta= 0.20
     Davidson diagonalization with overlap

---- Real-time Memory Report at c_bands before calling an iterative solver
           541 MiB given to the printing process from OS
             0 MiB allocation reported by mallinfo(arena+hblkhd)
        212524 MiB available memory on the node where the printing process lives
------------------
     ethr =  1.00E-13,  avg # of iterations = 11.4

     negative rho (up, down):  3.161E-04 0.000E+00

     add environment contribution to local potential

     total cpu time spent up to now is     1718.2 secs

     total energy              =    -661.81194020 Ry
     estimated scf accuracy    <          1.0E-11 Ry

     total charge of GC-SCF    =      -4.32443681 e
     the Fermi energy          =      -1.90397600 eV
                        (error :       0.00002400 eV)
     electrostatic embedding   =      -3.13304100 Ry
     cavitation energy         =       0.02362038 Ry
     electrolyte free energy   =      -0.05324040 Ry
     correction to one-el term =     146.04052829 Ry

     iteration # 41     ecut=    80.00 Ry     beta= 0.20
     Davidson diagonalization with overlap

---- Real-time Memory Report at c_bands before calling an iterative solver
           541 MiB given to the printing process from OS
             0 MiB allocation reported by mallinfo(arena+hblkhd)
        212534 MiB available memory on the node where the printing process lives
------------------
     ethr =  1.00E-13,  avg # of iterations = 10.5

     negative rho (up, down):  3.161E-04 0.000E+00

     add environment contribution to local potential

     total cpu time spent up to now is     1746.3 secs

     total energy              =    -661.81194020 Ry
     estimated scf accuracy    <          2.0E-12 Ry

     total charge of GC-SCF    =      -4.32435741 e
     the Fermi energy          =      -1.90398578 eV
                        (error :       0.00001422 eV)
     electrostatic embedding   =      -3.13295440 Ry
     cavitation energy         =       0.02362038 Ry
     electrolyte free energy   =      -0.05323789 Ry
     correction to one-el term =     146.03879841 Ry

     iteration # 42     ecut=    80.00 Ry     beta= 0.20
     Davidson diagonalization with overlap

---- Real-time Memory Report at c_bands before calling an iterative solver
           541 MiB given to the printing process from OS
             0 MiB allocation reported by mallinfo(arena+hblkhd)
        212528 MiB available memory on the node where the printing process lives
------------------
     ethr =  1.00E-13,  avg # of iterations = 10.4

     negative rho (up, down):  3.161E-04 0.000E+00

     add environment contribution to local potential

     total cpu time spent up to now is     1775.6 secs

     total energy              =    -661.81194020 Ry
     estimated scf accuracy    <          7.3E-13 Ry

     total charge of GC-SCF    =      -4.32434529 e
     the Fermi energy          =      -1.90399859 eV
                        (error :       0.00000141 eV)
     electrostatic embedding   =      -3.13285823 Ry
     cavitation energy         =       0.02362038 Ry
     electrolyte free energy   =      -0.05323502 Ry
     correction to one-el term =     146.03699903 Ry

     iteration # 43     ecut=    80.00 Ry     beta= 0.20
     Davidson diagonalization with overlap

---- Real-time Memory Report at c_bands before calling an iterative solver
           541 MiB given to the printing process from OS
             0 MiB allocation reported by mallinfo(arena+hblkhd)
        212506 MiB available memory on the node where the printing process lives
------------------
     ethr =  1.00E-13,  avg # of iterations =  8.8

     negative rho (up, down):  3.160E-04 0.000E+00

     add environment contribution to local potential

     total cpu time spent up to now is     1799.1 secs

     total energy              =    -661.81194020 Ry
     estimated scf accuracy    <          3.5E-13 Ry

     total charge of GC-SCF    =      -4.32435419 e
     the Fermi energy          =      -1.90400019 eV
                        (error :       0.00000019 eV)
     electrostatic embedding   =      -3.13284480 Ry
     cavitation energy         =       0.02362038 Ry
     electrolyte free energy   =      -0.05323459 Ry
     correction to one-el term =     146.03680111 Ry

     iteration # 44     ecut=    80.00 Ry     beta= 0.20
     Davidson diagonalization with overlap

---- Real-time Memory Report at c_bands before calling an iterative solver
           541 MiB given to the printing process from OS
             0 MiB allocation reported by mallinfo(arena+hblkhd)
        212478 MiB available memory on the node where the printing process lives
------------------
     ethr =  1.00E-13,  avg # of iterations =  7.2

     negative rho (up, down):  3.160E-04 0.000E+00

     add environment contribution to local potential

     total cpu time spent up to now is     1821.4 secs

     total energy              =    -661.81194020 Ry
     estimated scf accuracy    <          1.1E-13 Ry

     total charge of GC-SCF    =      -4.32434658 e
     the Fermi energy          =      -1.90399870 eV
                        (error :       0.00000130 eV)
     electrostatic embedding   =      -3.13285654 Ry
     cavitation energy         =       0.02362038 Ry
     electrolyte free energy   =      -0.05323492 Ry
     correction to one-el term =     146.03706436 Ry

     iteration # 45     ecut=    80.00 Ry     beta= 0.20
     Davidson diagonalization with overlap

---- Real-time Memory Report at c_bands before calling an iterative solver
           541 MiB given to the printing process from OS
             0 MiB allocation reported by mallinfo(arena+hblkhd)
        212472 MiB available memory on the node where the printing process lives
------------------
     ethr =  1.00E-13,  avg # of iterations =  7.6

     negative rho (up, down):  3.160E-04 0.000E+00

     add environment contribution to local potential

     total cpu time spent up to now is     1843.7 secs

     total energy              =    -661.81194020 Ry
     estimated scf accuracy    <          3.5E-14 Ry

     total charge of GC-SCF    =      -4.32435174 e
     the Fermi energy          =      -1.90399960 eV
                        (error :       0.00000040 eV)
     electrostatic embedding   =      -3.13284802 Ry
     cavitation energy         =       0.02362038 Ry
     electrolyte free energy   =      -0.05323466 Ry
     correction to one-el term =     146.03694330 Ry

     iteration # 46     ecut=    80.00 Ry     beta= 0.20
     Davidson diagonalization with overlap

---- Real-time Memory Report at c_bands before calling an iterative solver
           541 MiB given to the printing process from OS
             0 MiB allocation reported by mallinfo(arena+hblkhd)
        212480 MiB available memory on the node where the printing process lives
------------------
     ethr =  1.00E-13,  avg # of iterations =  5.7

     negative rho (up, down):  3.160E-04 0.000E+00

     add environment contribution to local potential

     total cpu time spent up to now is     1865.1 secs

     total energy              =    -661.81194020 Ry
     estimated scf accuracy    <          2.6E-14 Ry

     total charge of GC-SCF    =      -4.32435122 e
     the Fermi energy          =      -1.90399876 eV
                        (error :       0.00000124 eV)
     electrostatic embedding   =      -3.13285414 Ry
     cavitation energy         =       0.02362038 Ry
     electrolyte free energy   =      -0.05323484 Ry
     correction to one-el term =     146.03705258 Ry

     iteration # 47     ecut=    80.00 Ry     beta= 0.20
     Davidson diagonalization with overlap

---- Real-time Memory Report at c_bands before calling an iterative solver
           541 MiB given to the printing process from OS
             0 MiB allocation reported by mallinfo(arena+hblkhd)
        212504 MiB available memory on the node where the printing process lives
------------------
     ethr =  1.00E-13,  avg # of iterations =  4.5

     negative rho (up, down):  3.159E-04 0.000E+00

     add environment contribution to local potential

     total cpu time spent up to now is     1885.1 secs

     total energy              =    -661.81194020 Ry
     estimated scf accuracy    <          2.5E-14 Ry

     total charge of GC-SCF    =      -4.32434991 e
     the Fermi energy          =      -1.90399883 eV
                        (error :       0.00000117 eV)
     electrostatic embedding   =      -3.13285362 Ry
     cavitation energy         =       0.02362038 Ry
     electrolyte free energy   =      -0.05323483 Ry
     correction to one-el term =     146.03704703 Ry

     iteration # 48     ecut=    80.00 Ry     beta= 0.20
     Davidson diagonalization with overlap

---- Real-time Memory Report at c_bands before calling an iterative solver
           541 MiB given to the printing process from OS
             0 MiB allocation reported by mallinfo(arena+hblkhd)
        212513 MiB available memory on the node where the printing process lives
------------------
     ethr =  1.00E-13,  avg # of iterations =  4.9

     negative rho (up, down):  3.159E-04 0.000E+00

     add environment contribution to local potential

     total cpu time spent up to now is     1905.6 secs

     total energy              =    -661.81194020 Ry
     estimated scf accuracy    <          2.3E-14 Ry

     total charge of GC-SCF    =      -4.32434684 e
     the Fermi energy          =      -1.90399909 eV
                        (error :       0.00000091 eV)
     electrostatic embedding   =      -3.13285212 Ry
     cavitation energy         =       0.02362038 Ry
     electrolyte free energy   =      -0.05323478 Ry
     correction to one-el term =     146.03702114 Ry

     iteration # 49     ecut=    80.00 Ry     beta= 0.20
     Davidson diagonalization with overlap

---- Real-time Memory Report at c_bands before calling an iterative solver
           541 MiB given to the printing process from OS
             0 MiB allocation reported by mallinfo(arena+hblkhd)
        212523 MiB available memory on the node where the printing process lives
------------------
     ethr =  1.00E-13,  avg # of iterations =  5.5

     negative rho (up, down):  3.159E-04 0.000E+00

     add environment contribution to local potential

     total cpu time spent up to now is     1926.2 secs

     total energy              =    -661.81194020 Ry
     estimated scf accuracy    <          1.5E-14 Ry

     total charge of GC-SCF    =      -4.32434664 e
     the Fermi energy          =      -1.90399962 eV
                        (error :       0.00000038 eV)
     electrostatic embedding   =      -3.13284827 Ry
     cavitation energy         =       0.02362038 Ry
     electrolyte free energy   =      -0.05323467 Ry
     correction to one-el term =     146.03694321 Ry

     iteration # 50     ecut=    80.00 Ry     beta= 0.20
     Davidson diagonalization with overlap

---- Real-time Memory Report at c_bands before calling an iterative solver
           541 MiB given to the printing process from OS
             0 MiB allocation reported by mallinfo(arena+hblkhd)
        212518 MiB available memory on the node where the printing process lives
------------------
     ethr =  1.00E-13,  avg # of iterations =  3.9

     negative rho (up, down):  3.159E-04 0.000E+00

     add environment contribution to local potential

     total cpu time spent up to now is     1946.1 secs

     total energy              =    -661.81194020 Ry
     estimated scf accuracy    <          1.5E-14 Ry

     total charge of GC-SCF    =      -4.32434520 e
     the Fermi energy          =      -1.90399962 eV
                        (error :       0.00000038 eV)
     electrostatic embedding   =      -3.13284800 Ry
     cavitation energy         =       0.02362038 Ry
     electrolyte free energy   =      -0.05323466 Ry
     correction to one-el term =     146.03693673 Ry

     iteration # 51     ecut=    80.00 Ry     beta= 0.20
     Davidson diagonalization with overlap

---- Real-time Memory Report at c_bands before calling an iterative solver
           541 MiB given to the printing process from OS
             0 MiB allocation reported by mallinfo(arena+hblkhd)
        212513 MiB available memory on the node where the printing process lives
------------------
     ethr =  1.00E-13,  avg # of iterations =  1.6

     negative rho (up, down):  3.159E-04 0.000E+00

     total cpu time spent up to now is     1956.6 secs

     End of self-consistent calculation

          k = 0.0000 0.0000 0.0000 (250151 PWs)   bands (ev):

   -48.9464 -48.9464 -48.9463 -48.9462 -48.8216 -48.8215 -48.8215 -48.8214
   -48.5239 -48.5239 -48.5238 -48.5237 -48.4626 -48.4626 -48.4625 -48.4625
   -48.4424 -48.4403 -48.4393 -48.4393 -48.4333 -48.4291 -48.4291 -48.4264
   -48.4201 -48.4201 -48.4200 -48.4192 -48.4183 -48.4183 -48.4176 -48.4175
   -48.4018 -48.4018 -48.4016 -48.3998 -48.3886 -48.3885 -48.3860 -48.3859
   -48.3846 -48.3846 -48.3813 -48.3813  -5.3988  -5.1662  -4.7948  -4.3013
    -4.2079  -4.2079  -3.9632  -3.9632  -3.7399  -3.5692  -3.5692  -3.1405
    -3.0407  -3.0407  -2.4545  -2.4350  -2.4350  -2.0622  -1.9373  -1.8131
    -1.8131  -1.6531  -1.6294  -1.6114  -1.5636  -1.5635  -1.5475  -1.2637
    -1.2637  -1.2337  -1.2077  -1.1735  -1.1577  -1.1577  -0.9442  -0.7942
    -0.7942  -0.7127  -0.6539  -0.6414  -0.4433  -0.4433  -0.3546  -0.2331
    -0.2331  -0.1685  -0.0784   0.0137   0.0164   0.0995   0.1831   0.2755
     0.2756   0.4254   0.4618

     occupation numbers 
     1.0000   1.0000   1.0000   1.0000   1.0000   1.0000   1.0000   1.0000
     1.0000   1.0000   1.0000   1.0000   1.0000   1.0000   1.0000   1.0000
     1.0000   1.0000   1.0000   1.0000   1.0000   1.0000   1.0000   1.0000
     1.0000   1.0000   1.0000   1.0000   1.0000   1.0000   1.0000   1.0000
     1.0000   1.0000   1.0000   1.0000   1.0000   1.0000   1.0000   1.0000
     1.0000   1.0000   1.0000   1.0000   1.0000   1.0000   1.0000   1.0000
     1.0000   1.0000   1.0000   1.0000   1.0000   1.0000   1.0000   1.0000
     1.0000   1.0000   1.0000   1.0000   1.0000   1.0645   0.5788   0.0862
     0.0861   0.0007   0.0003   0.0001   0.0000   0.0000   0.0000   0.0000
     0.0000   0.0000   0.0000   0.0000   0.0000   0.0000   0.0000   0.0000
     0.0000   0.0000   0.0000   0.0000   0.0000   0.0000   0.0000   0.0000
     0.0000   0.0000   0.0000   0.0000   0.0000   0.0000   0.0000   0.0000
     0.0000   0.0000   0.0000

          k = 0.0000 0.1421 0.0000 (249995 PWs)   bands (ev):

   -48.9464 -48.9464 -48.9463 -48.9462 -48.8216 -48.8215 -48.8215 -48.8214
   -48.5239 -48.5239 -48.5238 -48.5237 -48.4626 -48.4626 -48.4625 -48.4625
   -48.4423 -48.4403 -48.4393 -48.4393 -48.4333 -48.4291 -48.4291 -48.4265
   -48.4201 -48.4201 -48.4200 -48.4192 -48.4183 -48.4183 -48.4176 -48.4175
   -48.4018 -48.4018 -48.4016 -48.3998 -48.3886 -48.3886 -48.3860 -48.3859
   -48.3846 -48.3846 -48.3813 -48.3812  -5.3747  -5.1420  -4.7701  -4.2760
    -4.1836  -4.1836  -3.9389  -3.9389  -3.7139  -3.5449  -3.5449  -3.1147
    -3.0168  -3.0168  -2.4923  -2.4319  -2.4125  -2.4124  -2.2413  -1.8465
    -1.7976  -1.7975  -1.6851  -1.6850  -1.5886  -1.5159  -1.4020  -1.4020
    -1.3214  -1.2644  -1.2022  -1.1497  -1.1497  -0.9909  -0.9665  -0.9482
    -0.9482  -0.6814  -0.6260  -0.5287  -0.5197  -0.5197  -0.3377  -0.2155
    -0.2155  -0.1144  -0.0287   0.0355   0.0473   0.0971   0.2535   0.2620
     0.2621   0.4494   0.5550

     occupation numbers 
     1.0000   1.0000   1.0000   1.0000   1.0000   1.0000   1.0000   1.0000
     1.0000   1.0000   1.0000   1.0000   1.0000   1.0000   1.0000   1.0000
     1.0000   1.0000   1.0000   1.0000   1.0000   1.0000   1.0000   1.0000
     1.0000   1.0000   1.0000   1.0000   1.0000   1.0000   1.0000   1.0000
     1.0000   1.0000   1.0000   1.0000   1.0000   1.0000   1.0000   1.0000
     1.0000   1.0000   1.0000   1.0000   1.0000   1.0000   1.0000   1.0000
[...]
     atom   10 type  1   force =     0.00000602   -0.02389542   -7.12023902
     atom   11 type  1   force =    -0.00000001    0.01872422   -5.88026071
     atom   12 type  1   force =    -0.00000001   -0.00959402   -2.73399956
     atom   13 type  1   force =    -0.00000001    0.01825820    0.64710439
     atom   14 type  1   force =    -0.00000001   -0.01615196    3.71078302
     atom   15 type  1   force =     0.00017290   -0.01888191    5.88069252
     atom   16 type  1   force =    -0.00039518    0.01500332    9.19648338
     atom   17 type  1   force =    -0.00024592    0.00948205    2.73395969
     atom   18 type  1   force =     0.00000000    0.02341607    7.12084861
     atom   19 type  1   force =    -0.00000001   -0.03439956   10.10569245
     atom   20 type  1   force =    -0.00000001    0.09144857   13.52914628
     atom   21 type  1   force =     0.00016567   -0.07152775   12.59763186
     atom   22 type  1   force =    -0.00004034    0.13643574   15.45429504
     atom   23 type  1   force =     0.00000003   -0.14407003   15.90482014
     atom   24 type  1   force =     0.00002791    0.14416554  -15.90484619
     atom   25 type  1   force =     0.00000808   -0.09124835  -13.53006176
     atom   26 type  1   force =     0.00000002   -0.13643092  -15.45402524
     atom   27 type  1   force =    -0.00000000    0.07157286  -12.59770785
     atom   28 type  1   force =     0.00000002   -0.01488495   -9.19626061
     atom   29 type  1   force =     0.00019951    0.01586778   -3.71106251
     atom   30 type  1   force =    -0.00001895   -0.01807045   -0.64765527
     atom   31 type  1   force =     0.00010695    0.03405687  -10.10596408
     atom   32 type  1   force =    -0.00000602   -0.02389544   -7.12023903
     atom   33 type  1   force =    -0.00000000    0.01900846   -5.88098904
     atom   34 type  1   force =     0.00000003   -0.00925255   -2.73389769
     atom   35 type  1   force =     0.00000003    0.01783722    0.64810625
     atom   36 type  1   force =     0.00000003   -0.01554749    3.71096695
     atom   37 type  1   force =    -0.00017291   -0.01888193    5.88069253
     atom   38 type  1   force =     0.00039517    0.01500334    9.19648337
     atom   39 type  1   force =     0.00024590    0.00948205    2.73395970
     atom   40 type  1   force =    -0.00000001    0.02428247    7.11945859
     atom   41 type  1   force =     0.00000003   -0.03356672   10.10577275
     atom   42 type  1   force =     0.00000003    0.09096925   13.53074373
     atom   43 type  1   force =    -0.00016570   -0.07152775   12.59763185
     atom   44 type  1   force =     0.00004032    0.13643575   15.45429506
     The local contribution  to forces
     atom    1 type  1   force =     0.00000136    0.13851625  -15.81640754
     atom    2 type  1   force =     0.00003069   -0.13838569   15.81649992
     atom    3 type  1   force =     0.00001047    0.08575169   13.36455345
     atom    4 type  1   force =     0.00000136    0.12217753   15.32762707
     atom    5 type  1   force =    -0.00000000   -0.05983468   12.43203262
     atom    6 type  1   force =     0.00000136    0.01457348    9.07405897
     atom    7 type  1   force =     0.00020144   -0.01783436    3.65846417
     atom    8 type  1   force =    -0.00001649    0.01859219    0.63899467
     atom    9 type  1   force =     0.00010884   -0.03354107    9.97469177
     atom   10 type  1   force =    -0.00000376    0.02559365    7.03020106
     atom   11 type  1   force =    -0.00000000   -0.01813675    5.80571991
     atom   12 type  1   force =     0.00000136    0.01136230    2.70154879
     atom   13 type  1   force =     0.00000136   -0.01878198   -0.63849690
     atom   14 type  1   force =     0.00000136    0.01812667   -3.65823343
     atom   15 type  1   force =    -0.00017255    0.01830151   -5.80619343
     atom   16 type  1   force =     0.00039867   -0.01449382   -9.07429505
     atom   17 type  1   force =     0.00024833   -0.01124422   -2.70155545
     atom   18 type  1   force =     0.00000000   -0.02510596   -7.03085330
     atom   19 type  1   force =     0.00000136    0.03388932   -9.97446942
     atom   20 type  1   force =     0.00000136   -0.08595194  -13.36368533
     atom   21 type  1   force =    -0.00016259    0.05991001  -12.43254761
     atom   22 type  1   force =     0.00003805   -0.12215734  -15.32793770
     atom   23 type  1   force =     0.00000273    0.13828663  -15.81648829
     atom   24 type  1   force =    -0.00002795   -0.13838569   15.81649992
     atom   25 type  1   force =    -0.00000774    0.08575169   13.36455345
     atom   26 type  1   force =     0.00000272    0.12214768   15.32761460
     atom   27 type  1   force =     0.00000136   -0.05995638   12.43257229
     atom   28 type  1   force =     0.00000272    0.01437397    9.07402779
     atom   29 type  1   force =    -0.00019872   -0.01783436    3.65846417
     atom   30 type  1   force =     0.00001920    0.01859219    0.63899467
     atom   31 type  1   force =    -0.00010612   -0.03354107    9.97469177
     atom   32 type  1   force =     0.00000648    0.02559365    7.03020106
     atom   33 type  1   force =     0.00000136   -0.01842619    5.80644398
     atom   34 type  1   force =     0.00000272    0.01101430    2.70144595
     atom   35 type  1   force =     0.00000272   -0.01835088   -0.63948875
     atom   36 type  1   force =     0.00000272    0.01750669   -3.65841629
     atom   37 type  1   force =     0.00017527    0.01830151   -5.80619343
     atom   38 type  1   force =    -0.00039595   -0.01449382   -9.07429505
     atom   39 type  1   force =    -0.00024560   -0.01124422   -2.70155545
     atom   40 type  1   force =     0.00000136   -0.02598656   -7.02947800
     atom   41 type  1   force =     0.00000272    0.03304321   -9.97454897
     atom   42 type  1   force =     0.00000272   -0.08546908  -13.36527265
     atom   43 type  1   force =     0.00016530    0.05991001  -12.43254761
     atom   44 type  1   force =    -0.00003533   -0.12215734  -15.32793770
     The core correction contribution to forces
     atom    1 type  1   force =     0.00000000    0.00000000    0.00000000
     atom    2 type  1   force =     0.00000000    0.00000000    0.00000000
     atom    3 type  1   force =     0.00000000    0.00000000    0.00000000
     atom    4 type  1   force =     0.00000000    0.00000000    0.00000000
     atom    5 type  1   force =     0.00000000    0.00000000    0.00000000
     atom    6 type  1   force =     0.00000000    0.00000000    0.00000000
     atom    7 type  1   force =     0.00000000    0.00000000    0.00000000
     atom    8 type  1   force =     0.00000000    0.00000000    0.00000000
     atom    9 type  1   force =     0.00000000    0.00000000    0.00000000
     atom   10 type  1   force =     0.00000000    0.00000000    0.00000000
     atom   11 type  1   force =     0.00000000    0.00000000    0.00000000
     atom   12 type  1   force =     0.00000000    0.00000000    0.00000000
     atom   13 type  1   force =     0.00000000    0.00000000    0.00000000
     atom   14 type  1   force =     0.00000000    0.00000000    0.00000000
     atom   15 type  1   force =     0.00000000    0.00000000    0.00000000
     atom   16 type  1   force =     0.00000000    0.00000000    0.00000000
     atom   17 type  1   force =     0.00000000    0.00000000    0.00000000
     atom   18 type  1   force =     0.00000000    0.00000000    0.00000000
     atom   19 type  1   force =     0.00000000    0.00000000    0.00000000
     atom   20 type  1   force =     0.00000000    0.00000000    0.00000000
     atom   21 type  1   force =     0.00000000    0.00000000    0.00000000
     atom   22 type  1   force =     0.00000000    0.00000000    0.00000000
     atom   23 type  1   force =     0.00000000    0.00000000    0.00000000
     atom   24 type  1   force =     0.00000000    0.00000000    0.00000000
     atom   25 type  1   force =     0.00000000    0.00000000    0.00000000
     atom   26 type  1   force =     0.00000000    0.00000000    0.00000000
     atom   27 type  1   force =     0.00000000    0.00000000    0.00000000
     atom   28 type  1   force =     0.00000000    0.00000000    0.00000000
     atom   29 type  1   force =     0.00000000    0.00000000    0.00000000
     atom   30 type  1   force =     0.00000000    0.00000000    0.00000000
     atom   31 type  1   force =     0.00000000    0.00000000    0.00000000
     atom   32 type  1   force =     0.00000000    0.00000000    0.00000000
     atom   33 type  1   force =     0.00000000    0.00000000    0.00000000
     atom   34 type  1   force =     0.00000000    0.00000000    0.00000000
     atom   35 type  1   force =     0.00000000    0.00000000    0.00000000
     atom   36 type  1   force =     0.00000000    0.00000000    0.00000000
     atom   37 type  1   force =     0.00000000    0.00000000    0.00000000
     atom   38 type  1   force =     0.00000000    0.00000000    0.00000000
     atom   39 type  1   force =     0.00000000    0.00000000    0.00000000
     atom   40 type  1   force =     0.00000000    0.00000000    0.00000000
     atom   41 type  1   force =     0.00000000    0.00000000    0.00000000
     atom   42 type  1   force =     0.00000000    0.00000000    0.00000000
     atom   43 type  1   force =     0.00000000    0.00000000    0.00000000
     atom   44 type  1   force =     0.00000000    0.00000000    0.00000000
     The Hubbard contrib.    to forces
     atom    1 type  1   force =     0.00000000    0.00000000    0.00000000
     atom    2 type  1   force =     0.00000000    0.00000000    0.00000000
     atom    3 type  1   force =     0.00000000    0.00000000    0.00000000
     atom    4 type  1   force =     0.00000000    0.00000000    0.00000000
     atom    5 type  1   force =     0.00000000    0.00000000    0.00000000
     atom    6 type  1   force =     0.00000000    0.00000000    0.00000000
     atom    7 type  1   force =     0.00000000    0.00000000    0.00000000
     atom    8 type  1   force =     0.00000000    0.00000000    0.00000000
     atom    9 type  1   force =     0.00000000    0.00000000    0.00000000
     atom   10 type  1   force =     0.00000000    0.00000000    0.00000000
     atom   11 type  1   force =     0.00000000    0.00000000    0.00000000
     atom   12 type  1   force =     0.00000000    0.00000000    0.00000000
     atom   13 type  1   force =     0.00000000    0.00000000    0.00000000
     atom   14 type  1   force =     0.00000000    0.00000000    0.00000000
     atom   15 type  1   force =     0.00000000    0.00000000    0.00000000
     atom   16 type  1   force =     0.00000000    0.00000000    0.00000000
     atom   17 type  1   force =     0.00000000    0.00000000    0.00000000
     atom   18 type  1   force =     0.00000000    0.00000000    0.00000000
     atom   19 type  1   force =     0.00000000    0.00000000    0.00000000
     atom   20 type  1   force =     0.00000000    0.00000000    0.00000000
     atom   21 type  1   force =     0.00000000    0.00000000    0.00000000
     atom   22 type  1   force =     0.00000000    0.00000000    0.00000000
     atom   23 type  1   force =     0.00000000    0.00000000    0.00000000
     atom   24 type  1   force =     0.00000000    0.00000000    0.00000000
     atom   25 type  1   force =     0.00000000    0.00000000    0.00000000
     atom   26 type  1   force =     0.00000000    0.00000000    0.00000000
     atom   27 type  1   force =     0.00000000    0.00000000    0.00000000
     atom   28 type  1   force =     0.00000000    0.00000000    0.00000000
     atom   29 type  1   force =     0.00000000    0.00000000    0.00000000
     atom   30 type  1   force =     0.00000000    0.00000000    0.00000000
     atom   31 type  1   force =     0.00000000    0.00000000    0.00000000
     atom   32 type  1   force =     0.00000000    0.00000000    0.00000000
     atom   33 type  1   force =     0.00000000    0.00000000    0.00000000
     atom   34 type  1   force =     0.00000000    0.00000000    0.00000000
     atom   35 type  1   force =     0.00000000    0.00000000    0.00000000
     atom   36 type  1   force =     0.00000000    0.00000000    0.00000000
     atom   37 type  1   force =     0.00000000    0.00000000    0.00000000
     atom   38 type  1   force =     0.00000000    0.00000000    0.00000000
     atom   39 type  1   force =     0.00000000    0.00000000    0.00000000
     atom   40 type  1   force =     0.00000000    0.00000000    0.00000000
     atom   41 type  1   force =     0.00000000    0.00000000    0.00000000
     atom   42 type  1   force =     0.00000000    0.00000000    0.00000000
     atom   43 type  1   force =     0.00000000    0.00000000    0.00000000
     atom   44 type  1   force =     0.00000000    0.00000000    0.00000000
     The SCF correction term to forces
     atom    1 type  1   force =    -0.00000000    0.00000001    0.00000009
     atom    2 type  1   force =     0.00000000   -0.00000001   -0.00000011
     atom    3 type  1   force =     0.00000000    0.00000000   -0.00000016
     atom    4 type  1   force =     0.00000000    0.00000001   -0.00000013
     atom    5 type  1   force =    -0.00000000    0.00000000   -0.00000016
     atom    6 type  1   force =    -0.00000000   -0.00000000   -0.00000016
     atom    7 type  1   force =     0.00000001   -0.00000000   -0.00000006
     atom    8 type  1   force =     0.00000000   -0.00000000    0.00000002
     atom    9 type  1   force =     0.00000000   -0.00000000   -0.00000016
     atom   10 type  1   force =     0.00000000    0.00000000   -0.00000013
     atom   11 type  1   force =     0.00000000    0.00000000   -0.00000011
     atom   12 type  1   force =     0.00000000   -0.00000000   -0.00000004
     atom   13 type  1   force =     0.00000000   -0.00000000    0.00000006
     atom   14 type  1   force =     0.00000000    0.00000000    0.00000014
     atom   15 type  1   force =     0.00000000   -0.00000000    0.00000017
     atom   16 type  1   force =     0.00000000    0.00000000    0.00000020
     atom   17 type  1   force =     0.00000000   -0.00000000    0.00000012
     atom   18 type  1   force =    -0.00000000   -0.00000000    0.00000018
     atom   19 type  1   force =     0.00000000    0.00000000    0.00000018
     atom   20 type  1   force =    -0.00000000    0.00000000    0.00000016
     atom   21 type  1   force =     0.00000000    0.00000000    0.00000018
     atom   22 type  1   force =     0.00000000   -0.00000001    0.00000012
     atom   23 type  1   force =    -0.00000000    0.00000001    0.00000012
     atom   24 type  1   force =    -0.00000000   -0.00000001   -0.00000011
     atom   25 type  1   force =    -0.00000000    0.00000000   -0.00000016
     atom   26 type  1   force =     0.00000000    0.00000001   -0.00000013
     atom   27 type  1   force =    -0.00000000    0.00000000   -0.00000016
     atom   28 type  1   force =    -0.00000000   -0.00000000   -0.00000016
     atom   29 type  1   force =    -0.00000001   -0.00000000   -0.00000006
     atom   30 type  1   force =    -0.00000000   -0.00000000    0.00000002
     atom   31 type  1   force =    -0.00000000   -0.00000000   -0.00000016
     atom   32 type  1   force =    -0.00000000    0.00000000   -0.00000013
     atom   33 type  1   force =    -0.00000000    0.00000000   -0.00000011
     atom   34 type  1   force =     0.00000000    0.00000000   -0.00000004
     atom   35 type  1   force =    -0.00000000    0.00000000    0.00000006
     atom   36 type  1   force =    -0.00000000   -0.00000000    0.00000014
     atom   37 type  1   force =    -0.00000000   -0.00000000    0.00000017
     atom   38 type  1   force =    -0.00000000    0.00000000    0.00000020
     atom   39 type  1   force =    -0.00000000   -0.00000000    0.00000012
     atom   40 type  1   force =    -0.00000000   -0.00000000    0.00000018
     atom   41 type  1   force =     0.00000000    0.00000001    0.00000019
     atom   42 type  1   force =    -0.00000000   -0.00000000    0.00000016
     atom   43 type  1   force =    -0.00000000    0.00000000    0.00000018
     atom   44 type  1   force =    -0.00000000   -0.00000001    0.00000012

     Total force =     0.000714     Total SCF correction =     0.000001

     Writing all to output data dir ./Li/Lithium.save/ :
     XML data file
     init_run     :     19.10s CPU     27.35s WALL (       1 calls)
     electrons    :   1517.46s CPU   1929.11s WALL (       1 calls)
     forces       :     20.40s CPU     22.19s WALL (       1 calls)

     Called by init_run:
     wfcinit      :      2.84s CPU      3.87s WALL (       1 calls)
     wfcinit:wfcr :      2.61s CPU      3.63s WALL (      14 calls)
     potinit      :      0.93s CPU      1.00s WALL (       1 calls)
     hinit0       :      3.90s CPU      4.35s WALL (       1 calls)

     Called by electrons:
     c_bands      :   1180.40s CPU   1517.30s WALL (      51 calls)
     sum_band     :     66.02s CPU     92.13s WALL (      51 calls)
     v_of_rho     :      3.39s CPU      4.07s WALL (      52 calls)
     v_h          :      0.33s CPU      0.38s WALL (      52 calls)
     v_xc         :      3.06s CPU      3.69s WALL (      52 calls)
     newd         :      2.01s CPU      2.52s WALL (      52 calls)
     PAW_pot      :      0.49s CPU      0.60s WALL (      52 calls)
     mix_rho      :      9.92s CPU     12.39s WALL (      51 calls)

     Called by c_bands:
     init_us_2    :     13.14s CPU     13.36s WALL (    1456 calls)
     cegterg      :   1108.90s CPU   1345.74s WALL (     879 calls)

     Called by sum_band:
     sum_band:wei :      0.09s CPU      0.11s WALL (      51 calls)
     sum_band:loo :     63.41s CPU     89.07s WALL (      51 calls)
     sum_band:buf :      1.16s CPU      1.26s WALL (     714 calls)
     sum_band:ini :      6.57s CPU      6.60s WALL (     714 calls)
     sum_band:cal :     11.42s CPU     12.75s WALL (     714 calls)
     sum_band:bec :      0.15s CPU      0.17s WALL (     714 calls)
     addusdens    :      1.81s CPU      1.90s WALL (      51 calls)
                                        0.00s GPU  (      51 calls)
     addusd:skk   :      0.48s CPU      0.49s WALL (      51 calls)
                                        0.00s GPU  (      51 calls)

     Called by *egterg:
     cdiaghg      :    384.66s CPU    396.61s WALL (   11039 calls)
     cegterg:over :     63.32s CPU     68.95s WALL (   10230 calls)
     cegterg:upda :     48.61s CPU     49.74s WALL (   10230 calls)
     cegterg:last :     18.92s CPU     19.02s WALL (    1127 calls)
     h_psi        :    514.96s CPU    729.99s WALL (   11123 calls)
     s_psi        :     55.95s CPU     56.40s WALL (   11123 calls)
     g_psi        :      0.70s CPU      0.74s WALL (   10230 calls)

     Called by h_psi:
     h_psi:calbec :     69.42s CPU     79.10s WALL (   11123 calls)
     vloc_psi     :    386.02s CPU    589.87s WALL (   11123 calls)
                                        0.00s GPU  (   11123 calls)
     add_vuspsi   :     57.53s CPU     58.79s WALL (   11123 calls)

     General routines
     calbec       :     81.54s CPU     92.62s WALL (   11893 calls)
     fft          :      3.83s CPU      4.72s WALL (     676 calls)
     ffts         :      7.51s CPU      9.25s WALL (    6253 calls)
     fftw         :    414.34s CPU    634.94s WALL (  690278 calls)
     interpolate  :      1.12s CPU      1.20s WALL (      52 calls)

     Parallel routines

     PAW routines
     PAW_pot      :      0.49s CPU      0.60s WALL (      52 calls)
     PAW_symme    :      0.02s CPU      0.02s WALL (     103 calls)

     Environ routines

     PWSCF        :  25m57.09s CPU  32m58.94s WALL


   This run was terminated on:   3:54:50   5Jan2025            

=------------------------------------------------------------------------------=
   JOB DONE.
=------------------------------------------------------------------------------=
