
     Program PWSCF v.7.4 starts on  4Jan2025 at 23:49:42 
        Git branch: develop
        Last git commit: e877ff360aceba4b8d76ffc2fb1c70545fc5dd57
        Last git commit date: Sat Jan 4 12:56:15 2025 +0000
        Last git commit subject: Merge branch 'orthoU' into 'develop'

     This program is part of the open-source Quantum ESPRESSO suite
     for quantum simulation of materials; please cite
         "P. Giannozzi et al., J. Phys.:Condens. Matter 21 395502 (2009);
         "P. Giannozzi et al., J. Phys.:Condens. Matter 29 465901 (2017);
         "P. Giannozzi et al., J. Chem. Phys. 152 154105 (2020);
          URL http://www.quantum-espresso.org", 
     in publications or presentations arising from this work. More details at
     http://www.quantum-espresso.org/quote

     Parallel version (MPI), running on   360 processors

     MPI processes distributed on     9 nodes
     177193 MiB available memory on the printing compute node when the environment starts
 
     Reading input from espresso.pwi
Warning: card &CELL ignored
Warning: card    PRESS_CONV_THR   = 0.1 ignored
Warning: card    CELL_DOFREE      = 'ALL' ignored
Warning: card / ignored
Warning: card &FCP ignored
Warning: card / ignored
Warning: card &RISM ignored
Warning: card / ignored

     Current dimensions of program PWSCF are:
     Max number of different atomic species (ntypx) = 10
     Max number of k-points (npk) =  40000
     Max angular momentum in pseudopotentials (lmaxx) =  4

     IMPORTANT: XC functional enforced from input :
     Exchange-correlation= PBE
                           (   1   4   3   4   0   0   0)
     Any further DFT definition will be discarded
     Please, verify this is what you really want

 
     Reading input from environ.in:
     * using ionic solvent mode
     * setting boundary derivatives method to SSCS default
     * setting electrolyte-boundary derivatives method to SSCS default

Environ Warning (1001): card EOF ignored

     
 
     K-points division:     npool     =       2
     R & G space division:  proc/nbgrp/npool/nimage =     180
     Subspace diagonalization in iterative solution of the eigenvalue problem:
     a serial algorithm will be used

 
     Parallelization info
     --------------------
     sticks:   dense  smooth     PW     G-vecs:    dense   smooth      PW
     Min          72      29      7                38906     9837    1323
     Max          73      30      8                38983     9869    1382
     Sum       13133    5269   1401              7013397  1773951  244485
 
     Using Slab Decomposition
 


     bravais-lattice index     =            8
     lattice parameter (alat)  =      11.2436  a.u.
     unit-cell volume          =   18353.5537 (a.u.)^3
     number of atoms/cell      =           24
     number of atomic types    =            1
     number of electrons       =        72.00
     number of Kohn-Sham states=           54
     kinetic-energy cutoff     =      80.0000  Ry
     charge density cutoff     =     800.0000  Ry
     scf convergence threshold =      1.0E-06
     mixing beta               =       0.2000
     number of iterations used =            8  local-TF  mixing
     energy convergence thresh.=      1.0E-05
     force convergence thresh. =      3.9E-04
     Exchange-correlation= PBE
                           (   1   4   3   4   0   0   0)
     nstep                     =          999


     ================================================================================
 
                                  Environ Setup Summary

     ================================================================================
 
     Please cite

          O. Andreussi, I. Dabo and N. Marzari, J. Chem. Phys. 136, 064102 (2012)
          F. Nattino, M. Truscott, N. Marzari, and O. Andreussi, J. Chem. Phys. 150, 041722 (2019)

     in publications or presentations arising from this work.

     ================================================================================
 
     Parameters
     ==========

     compensation onset threshold      =               0.1000E+00
     static permittivity               =                    89.90
     surface tension in input (dyn/cm) =                    37.30
     surface tension in internal units =               0.4792E-04

     Solvent Boundary
     ================

     solvent mode                      =                    ionic
     derivatives method                =                   lowmem
     electrolyte derivatives method    =                   lowmem
     numerical core for derivatives    =                      fft
     switching function adopted        =                     SCCS
     density limit for vacuum region   =               0.5000E-02
     density limit for bulk solvent    =               0.1000E-03
     soft-sphere radius mode           =                    bondi
     soft-sphere softness              =                     0.50
     alpha                             =                     1.32

     Electrostatic Setup
     ===================

     electrostatic problem to solve    =                    modpb
     numerical solver adopted          =                   newton
     type of auxiliary density adopted =                     none
     numerical core for poisson        =                      fft
     adopting a nested solver scheme
     inner solver                      =                       cg
     inner core                        =                      fft
     type of pbc corrections           =                parabolic
     numerical core for corrections    =                      1da

     ================================================================================
 

     >>>>> Grand-Canonical SCF is activated <<<<<
     Initial Total Charge  =     0.000000 e
     Target Fermi Energy   =    -3.904000 eV
     Thr. of Fermi Energy  =     0.001000 eV
     Wave-shift of Kerker  =     0.400000 bohr^-1
     Wave-shift of Hartree =     1.500000 bohr^-1
     Mixing Rate of Fermi  =     0.050000

     celldm(1)=  11.243615  celldm(2)=   1.632993  celldm(3)=   7.907113
     celldm(4)=   0.000000  celldm(5)=   0.000000  celldm(6)=   0.000000

     crystal axes: (cart. coord. in units of alat)
               a(1) = (   1.000000   0.000000   0.000000 )  
               a(2) = (   0.000000   1.632993   0.000000 )  
               a(3) = (   0.000000   0.000000   7.907113 )  

     reciprocal axes: (cart. coord. in units 2 pi/alat)
               b(1) = (  1.000000  0.000000  0.000000 )  
               b(2) = (  0.000000  0.612372  0.000000 )  
               b(3) = (  0.000000  0.000000  0.126468 )  


     PseudoPot. # 1 for Li read from file:
     /home/mmm1182/Repos/Pseudopotentials/pslibrary/Li.pbe-sl-kjpaw_psl.1.0.0.UPF
     MD5 check sum: f40bb4162937df3f7c561f1969c76545
     Pseudo is Projector augmented-wave, Zval =  3.0
     Generated using 'atomic' code by A. Dal Corso  v.7.3.1
     Shape of augmentation charge: PSQ
     Using radial grid of 1017 points,  4 beta functions with: 
                l(1) =   0
                l(2) =   0
                l(3) =   1
                l(4) =   1
     Q(r) pseudized with 0 coefficients 


     atomic species   valence    mass     pseudopotential
     Li                3.00     6.94000     Li( 1.00)

      2 Sym. Ops. (no inversion) found


                                    s                        frac. trans.

      isym =  1     identity                                     

 cryst.   s( 1) = (     1          0          0      )
                  (     0          1          0      )
                  (     0          0          1      )

 cart.    s( 1) = (  1.0000000  0.0000000  0.0000000 )
                  (  0.0000000  1.0000000  0.0000000 )
                  (  0.0000000  0.0000000  1.0000000 )


      isym =  2     inv. 180 deg rotation - cart. axis [0,1,0]   

 cryst.   s( 2) = (     1          0          0      )
                  (     0         -1          0      )
                  (     0          0          1      )

 cart.    s( 2) = (  1.0000000  0.0000000  0.0000000 )
                  (  0.0000000 -1.0000000  0.0000000 )
                  (  0.0000000  0.0000000  1.0000000 )


     point group C_s (m)    
     there are  2 classes
     the character table:

       E     s    
A'     1.00  1.00
A''    1.00 -1.00

     the symmetry operations in each class and the name of the first element:

     E        1
          identity                                               
     s        2
          inv. 180 deg rotation - cart. axis [0,1,0]             

   Cartesian axes

     site n.     atom                  positions (alat units)
         1        Li     tau(   1) = (   0.5237414   0.8164966   4.5569018  )
         2        Li     tau(   2) = (   0.1429479   0.4082007   3.3502763  )
         3        Li     tau(   3) = (   0.3363564   0.8164966   3.6206637  )
         4        Li     tau(   4) = (   0.5238298   0.4082942   3.8172566  )
         5        Li     tau(   5) = (   0.1428529   0.8164966   4.0897289  )
         6        Li     tau(   6) = (   0.3302651   0.4082554   4.2865333  )
         7        Li     tau(   7) = (   0.5237542   1.6329931   4.5568809  )
         8        Li     tau(   8) = (   0.1429479   1.2247925   3.3502763  )
         9        Li     tau(   9) = (   0.3364002   1.6329931   3.6204693  )
        10        Li     tau(  10) = (   0.5238298   1.2246991   3.8172566  )
        11        Li     tau(  11) = (   0.1428625   1.6329931   4.0898723  )
        12        Li     tau(  12) = (   0.3302651   1.2247378   4.2865333  )
        13        Li     tau(  13) = (   1.0236463   0.8164966   4.5568908  )
        14        Li     tau(  14) = (   0.6429927   0.4081914   3.3502743  )
        15        Li     tau(  15) = (   0.8363757   0.8164966   3.6206497  )
        16        Li     tau(  16) = (   1.0238407   0.4083023   3.8172659  )
        17        Li     tau(  17) = (   0.6428349   0.8164966   4.0897445  )
        18        Li     tau(  18) = (   0.8303328   0.4082636   4.2865604  )
        19        Li     tau(  19) = (   1.0236415   1.6329931   4.5568741  )
        20        Li     tau(  20) = (   0.6429927   1.2248019   3.3502743  )
        21        Li     tau(  21) = (   0.8363058   1.6329931   3.6204710  )
        22        Li     tau(  22) = (   1.0238407   1.2246909   3.8172659  )
        23        Li     tau(  23) = (   0.6428107   1.6329931   4.0898374  )
        24        Li     tau(  24) = (   0.8303328   1.2247297   4.2865604  )

   Crystallographic axes

     site n.     atom                  positions (cryst. coord.)
         1        Li     tau(   1) = (  0.5237414  0.5000001  0.5763041  )
         2        Li     tau(   2) = (  0.1429479  0.2499709  0.4237041  )
         3        Li     tau(   3) = (  0.3363564  0.5000001  0.4578996  )
         4        Li     tau(   4) = (  0.5238298  0.2500281  0.4827624  )
         5        Li     tau(   5) = (  0.1428529  0.5000001  0.5172215  )
         6        Li     tau(   6) = (  0.3302651  0.2500044  0.5421110  )
         7        Li     tau(   7) = (  0.5237542  1.0000001  0.5763015  )
         8        Li     tau(   8) = (  0.1429479  0.7500292  0.4237041  )
         9        Li     tau(   9) = (  0.3364002  1.0000001  0.4578750  )
        10        Li     tau(  10) = (  0.5238298  0.7499720  0.4827624  )
        11        Li     tau(  11) = (  0.1428625  1.0000001  0.5172396  )
        12        Li     tau(  12) = (  0.3302651  0.7499958  0.5421111  )
        13        Li     tau(  13) = (  1.0236463  0.5000001  0.5763027  )
        14        Li     tau(  14) = (  0.6429927  0.2499652  0.4237039  )
        15        Li     tau(  15) = (  0.8363757  0.5000001  0.4578978  )
        16        Li     tau(  16) = (  1.0238407  0.2500331  0.4827635  )
        17        Li     tau(  17) = (  0.6428349  0.5000001  0.5172235  )
        18        Li     tau(  18) = (  0.8303328  0.2500094  0.5421145  )
        19        Li     tau(  19) = (  1.0236415  1.0000001  0.5763006  )
        20        Li     tau(  20) = (  0.6429927  0.7500350  0.4237039  )
        21        Li     tau(  21) = (  0.8363058  1.0000001  0.4578752  )
        22        Li     tau(  22) = (  1.0238407  0.7499671  0.4827635  )
        23        Li     tau(  23) = (  0.6428107  1.0000001  0.5172352  )
        24        Li     tau(  24) = (  0.8303328  0.7499908  0.5421145  )

     number of k points=    24  Marzari-Vanderbilt smearing, width (Ry)=  0.0100
                       cart. coord. in units 2pi/alat
        k(    1) = (   0.0000000   0.0000000   0.0000000), wk =   0.0259740
        k(    2) = (   0.0000000   0.0874818   0.0000000), wk =   0.0519481
        k(    3) = (   0.0000000   0.1749636   0.0000000), wk =   0.0519481
        k(    4) = (   0.0000000   0.2624454   0.0000000), wk =   0.0519481
        k(    5) = (   0.0909091   0.0000000   0.0000000), wk =   0.0519481
        k(    6) = (   0.0909091   0.0874818   0.0000000), wk =   0.1038961
        k(    7) = (   0.0909091   0.1749636   0.0000000), wk =   0.1038961
        k(    8) = (   0.0909091   0.2624454   0.0000000), wk =   0.1038961
        k(    9) = (   0.1818182   0.0000000   0.0000000), wk =   0.0519481
        k(   10) = (   0.1818182   0.0874818   0.0000000), wk =   0.1038961
        k(   11) = (   0.1818182   0.1749636   0.0000000), wk =   0.1038961
        k(   12) = (   0.1818182   0.2624454   0.0000000), wk =   0.1038961
        k(   13) = (   0.2727273   0.0000000   0.0000000), wk =   0.0519481
        k(   14) = (   0.2727273   0.0874818   0.0000000), wk =   0.1038961
        k(   15) = (   0.2727273   0.1749636   0.0000000), wk =   0.1038961
        k(   16) = (   0.2727273   0.2624454   0.0000000), wk =   0.1038961
        k(   17) = (   0.3636364   0.0000000   0.0000000), wk =   0.0519481
        k(   18) = (   0.3636364   0.0874818   0.0000000), wk =   0.1038961
        k(   19) = (   0.3636364   0.1749636   0.0000000), wk =   0.1038961
        k(   20) = (   0.3636364   0.2624454   0.0000000), wk =   0.1038961
        k(   21) = (   0.4545455   0.0000000   0.0000000), wk =   0.0519481
        k(   22) = (   0.4545455   0.0874818   0.0000000), wk =   0.1038961
        k(   23) = (   0.4545455   0.1749636   0.0000000), wk =   0.1038961
        k(   24) = (   0.4545455   0.2624454   0.0000000), wk =   0.1038961

                       cryst. coord.
        k(    1) = (   0.0000000   0.0000000   0.0000000), wk =   0.0259740
        k(    2) = (   0.0000000   0.1428571   0.0000000), wk =   0.0519481
        k(    3) = (   0.0000000   0.2857143   0.0000000), wk =   0.0519481
        k(    4) = (   0.0000000   0.4285714   0.0000000), wk =   0.0519481
        k(    5) = (   0.0909091   0.0000000   0.0000000), wk =   0.0519481
        k(    6) = (   0.0909091   0.1428571   0.0000000), wk =   0.1038961
        k(    7) = (   0.0909091   0.2857143   0.0000000), wk =   0.1038961
        k(    8) = (   0.0909091   0.4285714   0.0000000), wk =   0.1038961
        k(    9) = (   0.1818182   0.0000000   0.0000000), wk =   0.0519481
        k(   10) = (   0.1818182   0.1428571   0.0000000), wk =   0.1038961
        k(   11) = (   0.1818182   0.2857143   0.0000000), wk =   0.1038961
        k(   12) = (   0.1818182   0.4285714   0.0000000), wk =   0.1038961
        k(   13) = (   0.2727273   0.0000000   0.0000000), wk =   0.0519481
        k(   14) = (   0.2727273   0.1428571   0.0000000), wk =   0.1038961
        k(   15) = (   0.2727273   0.2857143   0.0000000), wk =   0.1038961
        k(   16) = (   0.2727273   0.4285714   0.0000000), wk =   0.1038961
        k(   17) = (   0.3636364   0.0000000   0.0000000), wk =   0.0519481
        k(   18) = (   0.3636364   0.1428571   0.0000000), wk =   0.1038961
        k(   19) = (   0.3636364   0.2857143   0.0000000), wk =   0.1038961
        k(   20) = (   0.3636364   0.4285714   0.0000000), wk =   0.1038961
        k(   21) = (   0.4545455   0.0000000   0.0000000), wk =   0.0519481
        k(   22) = (   0.4545455   0.1428571   0.0000000), wk =   0.1038961
        k(   23) = (   0.4545455   0.2857143   0.0000000), wk =   0.1038961
        k(   24) = (   0.4545455   0.4285714   0.0000000), wk =   0.1038961

     Dense  grid:  7013397 G-vectors     FFT dimensions: ( 108, 180, 810)

     Smooth grid:  1773951 G-vectors     FFT dimensions: (  72, 108, 512)

     Dynamical RAM for                 wfc:       1.02 MB

     Dynamical RAM for     wfc (w. buffer):      13.20 MB

     Dynamical RAM for           str. fact:       0.59 MB

     Dynamical RAM for           local pot:       0.00 MB

     Dynamical RAM for          nlocal pot:       3.61 MB

     Dynamical RAM for                qrad:       0.65 MB

     Dynamical RAM for          rho,v,vnew:       4.01 MB

     Dynamical RAM for               rhoin:       1.34 MB

     Dynamical RAM for            rho*nmix:       9.50 MB

     Dynamical RAM for           G-vectors:       2.30 MB

     Dynamical RAM for          h,s,v(r/c):       2.14 MB

     Dynamical RAM for          <psi|beta>:       0.16 MB

     Dynamical RAM for                 psi:       4.06 MB

     Dynamical RAM for                hpsi:       4.06 MB

     Dynamical RAM for                spsi:       4.06 MB

     Dynamical RAM for      wfcinit/wfcrot:       2.10 MB

     Dynamical RAM for           addusdens:      20.19 MB

     Dynamical RAM for          addusforce:      33.86 MB

     Estimated static dynamical RAM per process >      30.59 MB

     Estimated max dynamical RAM per process >     107.02 MB

     Estimated total dynamical RAM >      24.33 GB

     Initial potential from superposition of free atoms

     starting charge      71.8894, renormalised to      72.0000

     negative rho (up, down):  3.054E-03 0.000E+00
     Starting wfcs are random
     Checking if some PAW data can be deallocated... 

     total cpu time spent up to now is        8.4 secs

     per-process dynamical memory:   128.5 Mb

     Self-consistent Calculation

     iteration #  1     ecut=    80.00 Ry     beta= 0.20
     Davidson diagonalization with overlap

---- Real-time Memory Report at c_bands before calling an iterative solver
           442 MiB given to the printing process from OS
           125 MiB allocation reported by mallinfo(arena+hblkhd)
        172874 MiB available memory on the node where the printing process lives
------------------
     c_bands:  1 eigenvalues not converged
     ethr =  1.00E-12,  avg # of iterations = 99.7

     negative rho (up, down):  2.245E-03 0.000E+00

     total cpu time spent up to now is       72.5 secs

     total energy              =    -360.86854686 Ry
     estimated scf accuracy    <       0.11946988 Ry

     total charge of GC-SCF    =       0.06032552 e
     the Fermi energy          =      -4.69194617 eV
                        (error :       0.78794617 eV)
     electrostatic embedding   =       0.00000000 Ry
     cavitation energy         =       0.02545705 Ry
     electrolyte free energy   =       0.00789959 Ry
     correction to one-el term =       0.00000000 Ry

     iteration #  2     ecut=    80.00 Ry     beta= 0.20
     Davidson diagonalization with overlap

---- Real-time Memory Report at c_bands before calling an iterative solver
           442 MiB given to the printing process from OS
           166 MiB allocation reported by mallinfo(arena+hblkhd)
        171672 MiB available memory on the node where the printing process lives
------------------
     ethr =  1.00E-05,  avg # of iterations =  8.5

     negative rho (up, down):  1.588E-03 0.000E+00

     add environment contribution to local potential

     total cpu time spent up to now is       85.9 secs

     total energy              =    -360.69729389 Ry
     estimated scf accuracy    <       0.04632255 Ry

     total charge of GC-SCF    =       0.15454316 e
     the Fermi energy          =      -4.28176360 eV
                        (error :       0.37776360 eV)
     electrostatic embedding   =       0.00037173 Ry
     cavitation energy         =       0.02545705 Ry
     electrolyte free energy   =       0.00789959 Ry
     correction to one-el term =       0.00000000 Ry

     iteration #  3     ecut=    80.00 Ry     beta= 0.20
     Davidson diagonalization with overlap

---- Real-time Memory Report at c_bands before calling an iterative solver
           442 MiB given to the printing process from OS
           166 MiB allocation reported by mallinfo(arena+hblkhd)
        171662 MiB available memory on the node where the printing process lives
------------------
     ethr =  1.00E-05,  avg # of iterations = 21.4

     negative rho (up, down):  1.295E-03 0.000E+00

     add environment contribution to local potential

     total cpu time spent up to now is      105.2 secs

     total energy              =    -360.80156147 Ry
     estimated scf accuracy    <       0.01186468 Ry

     total charge of GC-SCF    =       0.21431383 e
     the Fermi energy          =      -3.01799345 eV
                        (error :       0.88600655 eV)
     electrostatic embedding   =      -0.02970781 Ry
     cavitation energy         =       0.02545705 Ry
     electrolyte free energy   =      -0.00306182 Ry
     correction to one-el term =      -4.92877996 Ry

     iteration #  4     ecut=    80.00 Ry     beta= 0.20
     Davidson diagonalization with overlap

---- Real-time Memory Report at c_bands before calling an iterative solver
           442 MiB given to the printing process from OS
           166 MiB allocation reported by mallinfo(arena+hblkhd)
        171662 MiB available memory on the node where the printing process lives
------------------
     ethr =  1.00E-05,  avg # of iterations =  9.6

     negative rho (up, down):  1.025E-03 0.000E+00

     add environment contribution to local potential

     total cpu time spent up to now is      118.1 secs

     total energy              =    -360.78076125 Ry
     estimated scf accuracy    <       0.00920968 Ry

     total charge of GC-SCF    =       0.46014975 e
     the Fermi energy          =      -3.31342370 eV
                        (error :       0.59057630 eV)
     electrostatic embedding   =      -0.03173057 Ry
     cavitation energy         =       0.02545705 Ry
     electrolyte free energy   =      -0.00379262 Ry
     correction to one-el term =      -6.08306632 Ry

     iteration #  5     ecut=    80.00 Ry     beta= 0.20
     Davidson diagonalization with overlap

---- Real-time Memory Report at c_bands before calling an iterative solver
           442 MiB given to the printing process from OS
           166 MiB allocation reported by mallinfo(arena+hblkhd)
        171663 MiB available memory on the node where the printing process lives
------------------
     ethr =  1.00E-05,  avg # of iterations = 11.6

     negative rho (up, down):  8.484E-04 0.000E+00

     add environment contribution to local potential

     total cpu time spent up to now is      131.2 secs

     total energy              =    -360.81129937 Ry
     estimated scf accuracy    <       0.00213275 Ry

     total charge of GC-SCF    =       0.71557842 e
     the Fermi energy          =      -3.04346345 eV
                        (error :       0.86053655 eV)
     electrostatic embedding   =      -0.05852877 Ry
     cavitation energy         =       0.02545705 Ry
     electrolyte free energy   =      -0.00300705 Ry
     correction to one-el term =     -11.58481726 Ry

     iteration #  6     ecut=    80.00 Ry     beta= 0.20
     Davidson diagonalization with overlap

---- Real-time Memory Report at c_bands before calling an iterative solver
           442 MiB given to the printing process from OS
           166 MiB allocation reported by mallinfo(arena+hblkhd)
        171662 MiB available memory on the node where the printing process lives
------------------
     ethr =  2.99E-06,  avg # of iterations = 20.7

     negative rho (up, down):  7.687E-04 0.000E+00

     add environment contribution to local potential

     total cpu time spent up to now is      148.3 secs

     total energy              =    -360.83175291 Ry
     estimated scf accuracy    <       0.00384260 Ry

     total charge of GC-SCF    =       0.99173009 e
     the Fermi energy          =      -2.72635616 eV
                        (error :       1.17764384 eV)
     electrostatic embedding   =      -0.11482900 Ry
     cavitation energy         =       0.02545705 Ry
     electrolyte free energy   =      -0.00248904 Ry
     correction to one-el term =     -17.44014351 Ry

     iteration #  7     ecut=    80.00 Ry     beta= 0.20
     Davidson diagonalization with overlap

---- Real-time Memory Report at c_bands before calling an iterative solver
           442 MiB given to the printing process from OS
           166 MiB allocation reported by mallinfo(arena+hblkhd)
        171648 MiB available memory on the node where the printing process lives
------------------
     ethr =  2.99E-06,  avg # of iterations = 11.5

     negative rho (up, down):  6.565E-04 0.000E+00

     add environment contribution to local potential

     total cpu time spent up to now is      161.6 secs

     total energy              =    -360.90211549 Ry
     estimated scf accuracy    <       0.00165530 Ry

     total charge of GC-SCF    =       0.98053040 e
     the Fermi energy          =      -2.88253433 eV
                        (error :       1.02146567 eV)
     electrostatic embedding   =      -0.19496022 Ry
     cavitation energy         =       0.02545705 Ry
     electrolyte free energy   =      -0.00336048 Ry
     correction to one-el term =     -24.27092709 Ry

     iteration #  8     ecut=    80.00 Ry     beta= 0.20
     Davidson diagonalization with overlap

---- Real-time Memory Report at c_bands before calling an iterative solver
           442 MiB given to the printing process from OS
           166 MiB allocation reported by mallinfo(arena+hblkhd)
        171649 MiB available memory on the node where the printing process lives
------------------
     ethr =  2.33E-06,  avg # of iterations =  3.2

     negative rho (up, down):  5.887E-04 0.000E+00

     add environment contribution to local potential

     total cpu time spent up to now is      170.7 secs

     total energy              =    -360.89240009 Ry
     estimated scf accuracy    <       0.00191470 Ry

     total charge of GC-SCF    =       1.00851771 e
     the Fermi energy          =      -2.86143524 eV
                        (error :       1.04256476 eV)
     electrostatic embedding   =      -0.19182278 Ry
     cavitation energy         =       0.02545705 Ry
     electrolyte free energy   =      -0.00328435 Ry
     correction to one-el term =     -23.94002389 Ry

     iteration #  9     ecut=    80.00 Ry     beta= 0.20
     Davidson diagonalization with overlap

---- Real-time Memory Report at c_bands before calling an iterative solver
           442 MiB given to the printing process from OS
           166 MiB allocation reported by mallinfo(arena+hblkhd)
        171649 MiB available memory on the node where the printing process lives
------------------
     ethr =  2.33E-06,  avg # of iterations =  4.0

     negative rho (up, down):  1.653E-02 0.000E+00

     add environment contribution to local potential

     total cpu time spent up to now is      180.9 secs

     total energy              =    -360.83357205 Ry
     estimated scf accuracy    <       0.00187634 Ry

     total charge of GC-SCF    =       1.36109048 e
     the Fermi energy          =      -2.87127871 eV
                        (error :       1.03272129 eV)
     electrostatic embedding   =      -0.20101227 Ry
     cavitation energy         =       0.02545705 Ry
     electrolyte free energy   =      -0.00338687 Ry
     correction to one-el term =     -24.69679258 Ry

     iteration # 10     ecut=    80.00 Ry     beta= 0.20
     Davidson diagonalization with overlap

---- Real-time Memory Report at c_bands before calling an iterative solver
           442 MiB given to the printing process from OS
           166 MiB allocation reported by mallinfo(arena+hblkhd)
        171636 MiB available memory on the node where the printing process lives
------------------
     ethr =  2.33E-06,  avg # of iterations = 10.2

     negative rho (up, down):  2.265E-02 0.000E+00

     add environment contribution to local potential

     total cpu time spent up to now is      194.3 secs

     total energy              =    -360.89602568 Ry
     estimated scf accuracy    <       0.00248328 Ry

     total charge of GC-SCF    =       1.44234224 e
     the Fermi energy          =      -2.98045345 eV
                        (error :       0.92354655 eV)
     electrostatic embedding   =      -0.34355032 Ry
     cavitation energy         =       0.02545705 Ry
     electrolyte free energy   =      -0.00512530 Ry
     correction to one-el term =     -34.78100321 Ry

     iteration # 11     ecut=    80.00 Ry     beta= 0.20
     Davidson diagonalization with overlap

---- Real-time Memory Report at c_bands before calling an iterative solver
           442 MiB given to the printing process from OS
           166 MiB allocation reported by mallinfo(arena+hblkhd)
        171635 MiB available memory on the node where the printing process lives
------------------
     ethr =  2.33E-06,  avg # of iterations =  6.9

     negative rho (up, down):  2.732E-02 0.000E+00

     add environment contribution to local potential

     total cpu time spent up to now is      206.0 secs

     total energy              =    -360.85983921 Ry
     estimated scf accuracy    <       0.00256859 Ry

     total charge of GC-SCF    =       1.74856505 e
     the Fermi energy          =      -3.01585544 eV
                        (error :       0.88814456 eV)
     electrostatic embedding   =      -0.38396540 Ry
     cavitation energy         =       0.02545705 Ry
     electrolyte free energy   =      -0.00564439 Ry
     correction to one-el term =     -37.09958479 Ry

     iteration # 12     ecut=    80.00 Ry     beta= 0.20
     Davidson diagonalization with overlap

---- Real-time Memory Report at c_bands before calling an iterative solver
           442 MiB given to the printing process from OS
           166 MiB allocation reported by mallinfo(arena+hblkhd)
        171638 MiB available memory on the node where the printing process lives
------------------
     ethr =  2.33E-06,  avg # of iterations =  9.0

     negative rho (up, down):  5.472E-02 0.000E+00

     add environment contribution to local potential

     total cpu time spent up to now is      219.5 secs

     total energy              =    -360.88079132 Ry
     estimated scf accuracy    <       0.00174854 Ry

     total charge of GC-SCF    =       1.93978296 e
     the Fermi energy          =      -3.19928350 eV
                        (error :       0.70471650 eV)
     electrostatic embedding   =      -0.56771173 Ry
     cavitation energy         =       0.02545705 Ry
     electrolyte free energy   =      -0.00804500 Ry
     correction to one-el term =     -45.85800509 Ry

     iteration # 13     ecut=    80.00 Ry     beta= 0.20
     Davidson diagonalization with overlap

---- Real-time Memory Report at c_bands before calling an iterative solver
           442 MiB given to the printing process from OS
           166 MiB allocation reported by mallinfo(arena+hblkhd)
        171633 MiB available memory on the node where the printing process lives
------------------
     ethr =  2.33E-06,  avg # of iterations = 12.1

     negative rho (up, down):  6.666E-02 0.000E+00

     add environment contribution to local potential

     total cpu time spent up to now is      234.4 secs

     total energy              =    -360.89077923 Ry
     estimated scf accuracy    <       0.00064325 Ry

     total charge of GC-SCF    =       2.11707942 e
     the Fermi energy          =      -3.39647438 eV
                        (error :       0.50752562 eV)
     electrostatic embedding   =      -0.69199118 Ry
     cavitation energy         =       0.02545705 Ry
     electrolyte free energy   =      -0.01003970 Ry
     correction to one-el term =     -51.04356103 Ry

     iteration # 14     ecut=    80.00 Ry     beta= 0.20
     Davidson diagonalization with overlap

---- Real-time Memory Report at c_bands before calling an iterative solver
           442 MiB given to the printing process from OS
           166 MiB allocation reported by mallinfo(arena+hblkhd)
        171638 MiB available memory on the node where the printing process lives
------------------
     ethr =  9.20E-07,  avg # of iterations = 10.4

     negative rho (up, down):  1.547E-01 0.000E+00

     add environment contribution to local potential

     total cpu time spent up to now is      249.5 secs

     total energy              =    -360.89602263 Ry
     estimated scf accuracy    <       0.00085807 Ry

     total charge of GC-SCF    =       2.49282464 e
     the Fermi energy          =      -3.50062244 eV
                        (error :       0.40337756 eV)
     electrostatic embedding   =      -0.82857430 Ry
     cavitation energy         =       0.02545705 Ry
     electrolyte free energy   =      -0.01171618 Ry
     correction to one-el term =     -55.78190984 Ry

     iteration # 15     ecut=    80.00 Ry     beta= 0.20
     Davidson diagonalization with overlap

---- Real-time Memory Report at c_bands before calling an iterative solver
           442 MiB given to the printing process from OS
           166 MiB allocation reported by mallinfo(arena+hblkhd)
        171639 MiB available memory on the node where the printing process lives
------------------
     ethr =  9.20E-07,  avg # of iterations = 12.8

     negative rho (up, down):  1.125E-01 0.000E+00

     add environment contribution to local potential

     total cpu time spent up to now is      265.1 secs

     total energy              =    -360.93486947 Ry
     estimated scf accuracy    <       0.00129087 Ry

     total charge of GC-SCF    =       2.30541963 e
     the Fermi energy          =      -3.68650096 eV
                        (error :       0.21749904 eV)
     electrostatic embedding   =      -1.14568196 Ry
     cavitation energy         =       0.02545705 Ry
     electrolyte free energy   =      -0.01586586 Ry
     correction to one-el term =     -65.65240809 Ry

     iteration # 16     ecut=    80.00 Ry     beta= 0.20
     Davidson diagonalization with overlap

---- Real-time Memory Report at c_bands before calling an iterative solver
           442 MiB given to the printing process from OS
           166 MiB allocation reported by mallinfo(arena+hblkhd)
        171637 MiB available memory on the node where the printing process lives
------------------
     ethr =  9.20E-07,  avg # of iterations = 10.5

     negative rho (up, down):  1.308E-01 0.000E+00

     add environment contribution to local potential

     total cpu time spent up to now is      279.5 secs

     total energy              =    -360.90955445 Ry
     estimated scf accuracy    <       0.00110372 Ry

     total charge of GC-SCF    =       2.35955619 e
     the Fermi energy          =      -3.54868563 eV
                        (error :       0.35531437 eV)
     electrostatic embedding   =      -0.98187855 Ry
     cavitation energy         =       0.02545705 Ry
     electrolyte free energy   =      -0.01356377 Ry
     correction to one-el term =     -60.68806525 Ry

     iteration # 17     ecut=    80.00 Ry     beta= 0.20
     Davidson diagonalization with overlap

---- Real-time Memory Report at c_bands before calling an iterative solver
           442 MiB given to the printing process from OS
           166 MiB allocation reported by mallinfo(arena+hblkhd)
        171637 MiB available memory on the node where the printing process lives
------------------
     ethr =  9.20E-07,  avg # of iterations =  4.8

     negative rho (up, down):  5.205E-02 0.000E+00

     add environment contribution to local potential

     total cpu time spent up to now is      291.6 secs

     total energy              =    -360.88817018 Ry
     estimated scf accuracy    <       0.00127819 Ry

     total charge of GC-SCF    =       2.55131385 e
     the Fermi energy          =      -3.56460309 eV
                        (error :       0.33939691 eV)
     electrostatic embedding   =      -1.02805398 Ry
     cavitation energy         =       0.02545705 Ry
     electrolyte free energy   =      -0.01413319 Ry
     correction to one-el term =     -62.05593263 Ry

     iteration # 18     ecut=    80.00 Ry     beta= 0.20
     Davidson diagonalization with overlap

---- Real-time Memory Report at c_bands before calling an iterative solver
           442 MiB given to the printing process from OS
           166 MiB allocation reported by mallinfo(arena+hblkhd)
        171637 MiB available memory on the node where the printing process lives
------------------
     ethr =  9.20E-07,  avg # of iterations = 15.8

     negative rho (up, down):  1.754E-02 0.000E+00

     add environment contribution to local potential

     total cpu time spent up to now is      309.0 secs

     total energy              =    -360.90120138 Ry
     estimated scf accuracy    <       0.00029320 Ry

     total charge of GC-SCF    =       2.58340028 e
     the Fermi energy          =      -3.79418081 eV
                        (error :       0.10981919 eV)
     electrostatic embedding   =      -1.23585502 Ry
     cavitation energy         =       0.02545705 Ry
     electrolyte free energy   =      -0.01717010 Ry
     correction to one-el term =     -68.67527429 Ry

     iteration # 19     ecut=    80.00 Ry     beta= 0.20
     Davidson diagonalization with overlap

---- Real-time Memory Report at c_bands before calling an iterative solver
           442 MiB given to the printing process from OS
           166 MiB allocation reported by mallinfo(arena+hblkhd)
        171629 MiB available memory on the node where the printing process lives
------------------
     ethr =  4.22E-07,  avg # of iterations = 26.8

     negative rho (up, down):  7.316E-03 0.000E+00

     add environment contribution to local potential

     total cpu time spent up to now is      331.5 secs

     total energy              =    -360.90689287 Ry
     estimated scf accuracy    <       0.00013284 Ry

     total charge of GC-SCF    =       2.46746917 e
     the Fermi energy          =      -3.89569266 eV
                        (error :       0.00830734 eV)
     electrostatic embedding   =      -1.29272802 Ry
     cavitation energy         =       0.02545705 Ry
     electrolyte free energy   =      -0.01791452 Ry
     correction to one-el term =     -70.50165496 Ry

     iteration # 20     ecut=    80.00 Ry     beta= 0.20
     Davidson diagonalization with overlap

---- Real-time Memory Report at c_bands before calling an iterative solver
           442 MiB given to the printing process from OS
           166 MiB allocation reported by mallinfo(arena+hblkhd)
        171630 MiB available memory on the node where the printing process lives
------------------
     ethr =  1.91E-07,  avg # of iterations = 11.6

     negative rho (up, down):  2.814E-03 0.000E+00

     add environment contribution to local potential

     total cpu time spent up to now is      347.0 secs

     total energy              =    -360.90559749 Ry
     estimated scf accuracy    <       0.00008280 Ry

     total charge of GC-SCF    =       2.57581611 e
     the Fermi energy          =      -3.86347868 eV
                        (error :       0.04052132 eV)
     electrostatic embedding   =      -1.18493903 Ry
     cavitation energy         =       0.02545705 Ry
     electrolyte free energy   =      -0.01654222 Ry
     correction to one-el term =     -67.60070429 Ry

     iteration # 21     ecut=    80.00 Ry     beta= 0.20
     Davidson diagonalization with overlap

---- Real-time Memory Report at c_bands before calling an iterative solver
           442 MiB given to the printing process from OS
           166 MiB allocation reported by mallinfo(arena+hblkhd)
        171634 MiB available memory on the node where the printing process lives
------------------
     ethr =  1.19E-07,  avg # of iterations = 21.8

     negative rho (up, down):  1.496E-03 0.000E+00

     add environment contribution to local potential

     total cpu time spent up to now is      367.3 secs

     total energy              =    -360.90466557 Ry
     estimated scf accuracy    <       0.00005383 Ry

     total charge of GC-SCF    =       2.64106577 e
     the Fermi energy          =      -3.91216762 eV
                        (error :       0.00816762 eV)
     electrostatic embedding   =      -1.29265784 Ry
     cavitation energy         =       0.02545705 Ry
     electrolyte free energy   =      -0.01788172 Ry
     correction to one-el term =     -70.53044165 Ry

     iteration # 22     ecut=    80.00 Ry     beta= 0.20
     Davidson diagonalization with overlap

---- Real-time Memory Report at c_bands before calling an iterative solver
           442 MiB given to the printing process from OS
           166 MiB allocation reported by mallinfo(arena+hblkhd)
        171632 MiB available memory on the node where the printing process lives
------------------
     ethr =  7.76E-08,  avg # of iterations = 16.6

     negative rho (up, down):  3.233E-04 0.000E+00

     add environment contribution to local potential

     total cpu time spent up to now is      385.3 secs

     total energy              =    -360.90491092 Ry
     estimated scf accuracy    <       0.00002835 Ry

     total charge of GC-SCF    =       2.52518717 e
     the Fermi energy          =      -3.96872855 eV
                        (error :       0.06472855 eV)
     electrostatic embedding   =      -1.36141644 Ry
     cavitation energy         =       0.02545705 Ry
     electrolyte free energy   =      -0.01877104 Ry
     correction to one-el term =     -72.34785410 Ry

     iteration # 23     ecut=    80.00 Ry     beta= 0.20
     Davidson diagonalization with overlap

---- Real-time Memory Report at c_bands before calling an iterative solver
           442 MiB given to the printing process from OS
           166 MiB allocation reported by mallinfo(arena+hblkhd)
        171630 MiB available memory on the node where the printing process lives
------------------
     ethr =  4.08E-08,  avg # of iterations = 16.5

     negative rho (up, down):  3.958E-04 0.000E+00

     add environment contribution to local potential

     total cpu time spent up to now is      402.5 secs

     total energy              =    -360.90407887 Ry
     estimated scf accuracy    <       0.00000967 Ry

     total charge of GC-SCF    =       2.52358220 e
     the Fermi energy          =      -3.92994334 eV
                        (error :       0.02594334 eV)
     electrostatic embedding   =      -1.24390978 Ry
     cavitation energy         =       0.02545705 Ry
     electrolyte free energy   =      -0.01729683 Ry
     correction to one-el term =     -69.24562459 Ry

     iteration # 24     ecut=    80.00 Ry     beta= 0.20
     Davidson diagonalization with overlap

---- Real-time Memory Report at c_bands before calling an iterative solver
           442 MiB given to the printing process from OS
           166 MiB allocation reported by mallinfo(arena+hblkhd)
        171632 MiB available memory on the node where the printing process lives
------------------
     ethr =  1.39E-08,  avg # of iterations = 10.4

     negative rho (up, down):  4.323E-04 0.000E+00

     add environment contribution to local potential

     total cpu time spent up to now is      416.8 secs

     total energy              =    -360.90409067 Ry
     estimated scf accuracy    <       0.00000811 Ry

     total charge of GC-SCF    =       2.51248615 e
     the Fermi energy          =      -3.92824822 eV
                        (error :       0.02424822 eV)
     electrostatic embedding   =      -1.24143284 Ry
     cavitation energy         =       0.02545705 Ry
     electrolyte free energy   =      -0.01727179 Ry
     correction to one-el term =     -69.18198427 Ry

     iteration # 25     ecut=    80.00 Ry     beta= 0.20
     Davidson diagonalization with overlap

---- Real-time Memory Report at c_bands before calling an iterative solver
           442 MiB given to the printing process from OS
           166 MiB allocation reported by mallinfo(arena+hblkhd)
        171613 MiB available memory on the node where the printing process lives
------------------
     ethr =  1.17E-08,  avg # of iterations = 11.0

     negative rho (up, down):  1.279E-03 0.000E+00

     add environment contribution to local potential

     total cpu time spent up to now is      432.0 secs

     total energy              =    -360.90460130 Ry
     estimated scf accuracy    <       0.00000569 Ry

     total charge of GC-SCF    =       2.55182565 e
     the Fermi energy          =      -3.92293258 eV
                        (error :       0.01893258 eV)
     electrostatic embedding   =      -1.23104604 Ry
     cavitation energy         =       0.02545705 Ry
     electrolyte free energy   =      -0.01713750 Ry
     correction to one-el term =     -68.90149733 Ry

     iteration # 26     ecut=    80.00 Ry     beta= 0.20
     Davidson diagonalization with overlap

---- Real-time Memory Report at c_bands before calling an iterative solver
           442 MiB given to the printing process from OS
           166 MiB allocation reported by mallinfo(arena+hblkhd)
        171626 MiB available memory on the node where the printing process lives
------------------
     ethr =  8.20E-09,  avg # of iterations = 15.0

     negative rho (up, down):  2.068E-03 0.000E+00

     add environment contribution to local potential

     total cpu time spent up to now is      448.7 secs

     total energy              =    -360.90402166 Ry
     estimated scf accuracy    <       0.00000320 Ry

     total charge of GC-SCF    =       2.55404983 e
     the Fermi energy          =      -3.94263587 eV
                        (error :       0.03863587 eV)
     electrostatic embedding   =      -1.26979673 Ry
     cavitation energy         =       0.02545705 Ry
     electrolyte free energy   =      -0.01762509 Ry
     correction to one-el term =     -69.95931355 Ry

     iteration # 27     ecut=    80.00 Ry     beta= 0.20
     Davidson diagonalization with overlap

---- Real-time Memory Report at c_bands before calling an iterative solver
           442 MiB given to the printing process from OS
           166 MiB allocation reported by mallinfo(arena+hblkhd)
        171621 MiB available memory on the node where the printing process lives
------------------
     ethr =  4.61E-09,  avg # of iterations = 10.0

     negative rho (up, down):  1.185E-03 0.000E+00

     add environment contribution to local potential

     total cpu time spent up to now is      464.1 secs

     total energy              =    -360.90399839 Ry
     estimated scf accuracy    <       0.00000204 Ry

     total charge of GC-SCF    =       2.55393907 e
     the Fermi energy          =      -3.94685282 eV
                        (error :       0.04285282 eV)
     electrostatic embedding   =      -1.27148328 Ry
     cavitation energy         =       0.02545705 Ry
     electrolyte free energy   =      -0.01765416 Ry
     correction to one-el term =     -70.01658695 Ry

     iteration # 28     ecut=    80.00 Ry     beta= 0.20
     Davidson diagonalization with overlap

---- Real-time Memory Report at c_bands before calling an iterative solver
           442 MiB given to the printing process from OS
           166 MiB allocation reported by mallinfo(arena+hblkhd)
        171622 MiB available memory on the node where the printing process lives
------------------
     ethr =  2.94E-09,  avg # of iterations =  9.6

     negative rho (up, down):  4.492E-04 0.000E+00

     add environment contribution to local potential

     total cpu time spent up to now is      478.3 secs

     total energy              =    -360.90391068 Ry
     estimated scf accuracy    <       0.00000131 Ry

     total charge of GC-SCF    =       2.54029342 e
     the Fermi energy          =      -3.94719832 eV
                        (error :       0.04319832 eV)
     electrostatic embedding   =      -1.27269320 Ry
     cavitation energy         =       0.02545705 Ry
     electrolyte free energy   =      -0.01766330 Ry
     correction to one-el term =     -70.05935026 Ry

     iteration # 29     ecut=    80.00 Ry     beta= 0.20
     Davidson diagonalization with overlap

---- Real-time Memory Report at c_bands before calling an iterative solver
           442 MiB given to the printing process from OS
           166 MiB allocation reported by mallinfo(arena+hblkhd)
        171624 MiB available memory on the node where the printing process lives
------------------
     ethr =  1.88E-09,  avg # of iterations = 12.5

     negative rho (up, down):  3.978E-04 0.000E+00

     add environment contribution to local potential

     total cpu time spent up to now is      493.8 secs

     total energy              =    -360.90397691 Ry
     estimated scf accuracy    <       0.00000099 Ry

     total charge of GC-SCF    =       2.52408196 e
     the Fermi energy          =      -3.93947536 eV
                        (error :       0.03547536 eV)
     electrostatic embedding   =      -1.25999757 Ry
     cavitation energy         =       0.02545705 Ry
     electrolyte free energy   =      -0.01749816 Ry
     correction to one-el term =     -69.71629647 Ry

     iteration # 30     ecut=    80.00 Ry     beta= 0.20
     Davidson diagonalization with overlap

---- Real-time Memory Report at c_bands before calling an iterative solver
           442 MiB given to the printing process from OS
           166 MiB allocation reported by mallinfo(arena+hblkhd)
        171625 MiB available memory on the node where the printing process lives
------------------
     ethr =  1.43E-09,  avg # of iterations = 15.4

     negative rho (up, down):  3.515E-04 0.000E+00

     add environment contribution to local potential

     total cpu time spent up to now is      510.1 secs

     total energy              =    -360.90407785 Ry
     estimated scf accuracy    <       0.00000077 Ry

     total charge of GC-SCF    =       2.50714895 e
     the Fermi energy          =      -3.92911481 eV
                        (error :       0.02511481 eV)
     electrostatic embedding   =      -1.24375486 Ry
     cavitation energy         =       0.02545705 Ry
     electrolyte free energy   =      -0.01729323 Ry
     correction to one-el term =     -69.27128013 Ry

     iteration # 31     ecut=    80.00 Ry     beta= 0.20
     Davidson diagonalization with overlap

---- Real-time Memory Report at c_bands before calling an iterative solver
           442 MiB given to the printing process from OS
           166 MiB allocation reported by mallinfo(arena+hblkhd)
        171623 MiB available memory on the node where the printing process lives
------------------
     ethr =  1.11E-09,  avg # of iterations = 17.8

     negative rho (up, down):  3.275E-04 0.000E+00

     add environment contribution to local potential

     total cpu time spent up to now is      527.9 secs

     total energy              =    -360.90417152 Ry
     estimated scf accuracy    <       0.00000042 Ry

     total charge of GC-SCF    =       2.50134855 e
     the Fermi energy          =      -3.91687725 eV
                        (error :       0.01287725 eV)
     electrostatic embedding   =      -1.22636756 Ry
     cavitation energy         =       0.02545705 Ry
     electrolyte free energy   =      -0.01707473 Ry
     correction to one-el term =     -68.78596071 Ry

     iteration # 32     ecut=    80.00 Ry     beta= 0.20
     Davidson diagonalization with overlap

---- Real-time Memory Report at c_bands before calling an iterative solver
           442 MiB given to the printing process from OS
           166 MiB allocation reported by mallinfo(arena+hblkhd)
        171623 MiB available memory on the node where the printing process lives
------------------
     ethr =  6.02E-10,  avg # of iterations = 10.5

     negative rho (up, down):  3.795E-04 0.000E+00

     add environment contribution to local potential

     total cpu time spent up to now is      543.4 secs

     total energy              =    -360.90420338 Ry
     estimated scf accuracy    <       0.00000028 Ry

     total charge of GC-SCF    =       2.49817400 e
     the Fermi energy          =      -3.91201956 eV
                        (error :       0.00801956 eV)
     electrostatic embedding   =      -1.22022762 Ry
     cavitation energy         =       0.02545705 Ry
     electrolyte free energy   =      -0.01699794 Ry
     correction to one-el term =     -68.61207348 Ry

     iteration # 33     ecut=    80.00 Ry     beta= 0.20
     Davidson diagonalization with overlap

---- Real-time Memory Report at c_bands before calling an iterative solver
           442 MiB given to the printing process from OS
           166 MiB allocation reported by mallinfo(arena+hblkhd)
        171612 MiB available memory on the node where the printing process lives
------------------
     ethr =  4.06E-10,  avg # of iterations = 12.2

     negative rho (up, down):  5.080E-04 0.000E+00

     add environment contribution to local potential

     total cpu time spent up to now is      559.3 secs

     total energy              =    -360.90421899 Ry
     estimated scf accuracy    <       0.00000021 Ry

     total charge of GC-SCF    =       2.49483646 e
     the Fermi energy          =      -3.90942568 eV
                        (error :       0.00542568 eV)
     electrostatic embedding   =      -1.21655162 Ry
     cavitation energy         =       0.02545705 Ry
     electrolyte free energy   =      -0.01695478 Ry
     correction to one-el term =     -68.50885438 Ry

     iteration # 34     ecut=    80.00 Ry     beta= 0.20
     Davidson diagonalization with overlap

---- Real-time Memory Report at c_bands before calling an iterative solver
           442 MiB given to the printing process from OS
           166 MiB allocation reported by mallinfo(arena+hblkhd)
        171619 MiB available memory on the node where the printing process lives
------------------
     ethr =  2.97E-10,  avg # of iterations =  9.8

     negative rho (up, down):  4.965E-04 0.000E+00

     add environment contribution to local potential

     total cpu time spent up to now is      574.0 secs

     total energy              =    -360.90423693 Ry
     estimated scf accuracy    <       0.00000012 Ry

     total charge of GC-SCF    =       2.49192209 e
     the Fermi energy          =      -3.90634929 eV
                        (error :       0.00234929 eV)
     electrostatic embedding   =      -1.21293609 Ry
     cavitation energy         =       0.02545705 Ry
     electrolyte free energy   =      -0.01691046 Ry
     correction to one-el term =     -68.40687722 Ry

     iteration # 35     ecut=    80.00 Ry     beta= 0.20
     Davidson diagonalization with overlap

---- Real-time Memory Report at c_bands before calling an iterative solver
           442 MiB given to the printing process from OS
           166 MiB allocation reported by mallinfo(arena+hblkhd)
        171619 MiB available memory on the node where the printing process lives
------------------
     ethr =  1.72E-10,  avg # of iterations = 11.2

     negative rho (up, down):  3.922E-04 0.000E+00

     total cpu time spent up to now is      581.6 secs

     End of self-consistent calculation

          k = 0.0000 0.0000 0.0000 (221585 PWs)   bands (ev):

   -51.5654 -51.5651 -51.5647 -51.5647 -51.5577 -51.5574 -51.5570 -51.5570
   -50.6693 -50.6691 -50.6689 -50.6686 -50.6611 -50.6610 -50.6608 -50.6605
   -50.3506 -50.3470 -50.3467 -50.3428 -50.3421 -50.3389 -50.3386 -50.3353
    -7.1923  -6.3056  -6.0245  -6.0245  -5.1424  -5.1423  -4.8815  -4.1521
    -3.9797  -3.6110  -3.6108  -3.4723  -3.4528  -3.4527  -3.3227  -3.1399
    -2.9894  -2.9893  -2.9809  -2.2118  -2.0830  -1.9955  -1.9954  -1.8830
    -1.6453  -1.6450  -0.8902  -0.4331  -0.4329  -0.3592

     occupation numbers 
     1.0000   1.0000   1.0000   1.0000   1.0000   1.0000   1.0000   1.0000
     1.0000   1.0000   1.0000   1.0000   1.0000   1.0000   1.0000   1.0000
     1.0000   1.0000   1.0000   1.0000   1.0000   1.0000   1.0000   1.0000
     1.0000   1.0000   1.0000   1.0000   1.0000   1.0000   1.0000   1.0577
     0.8044   0.0001   0.0001   0.0000   0.0000   0.0000   0.0000   0.0000
     0.0000   0.0000   0.0000   0.0000   0.0000   0.0000   0.0000   0.0000
     0.0000   0.0000   0.0000   0.0000   0.0000   0.0000

          k = 0.0000 0.0875 0.0000 (221558 PWs)   bands (ev):

   -51.5654 -51.5651 -51.5647 -51.5647 -51.5577 -51.5574 -51.5570 -51.5570
   -50.6693 -50.6691 -50.6689 -50.6686 -50.6611 -50.6610 -50.6608 -50.6605
   -50.3505 -50.3477 -50.3460 -50.3429 -50.3420 -50.3395 -50.3380 -50.3354
    -7.1682  -6.3297  -6.2821  -5.7100  -5.3901  -4.8599  -4.8406  -4.1305
    -3.9599  -3.8515  -3.5470  -3.4892  -3.4559  -3.4524  -3.3244  -3.1321
    -3.0270  -2.9789  -2.9618  -2.4495  -2.1245  -2.0766  -1.8113  -1.7656
    -1.7342  -1.4811  -0.8525  -0.4641  -0.3676  -0.3544

     occupation numbers 
     1.0000   1.0000   1.0000   1.0000   1.0000   1.0000   1.0000   1.0000
     1.0000   1.0000   1.0000   1.0000   1.0000   1.0000   1.0000   1.0000
     1.0000   1.0000   1.0000   1.0000   1.0000   1.0000   1.0000   1.0000
     1.0000   1.0000   1.0000   1.0000   1.0000   1.0000   1.0000   1.0718
     0.7015   0.1811   0.0000   0.0000   0.0000   0.0000   0.0000   0.0000
     0.0000   0.0000   0.0000   0.0000   0.0000   0.0000   0.0000   0.0000
     0.0000   0.0000   0.0000   0.0000   0.0000   0.0000

          k = 0.0000 0.1750 0.0000 (221554 PWs)   bands (ev):

   -51.5654 -51.5651 -51.5647 -51.5647 -51.5577 -51.5574 -51.5570 -51.5570
   -50.6692 -50.6691 -50.6689 -50.6686 -50.6611 -50.6610 -50.6608 -50.6605
   -50.3502 -50.3485 -50.3451 -50.3432 -50.3418 -50.3402 -50.3373 -50.3356
    -7.0962  -6.5921  -6.2118  -5.7416  -5.2111  -4.7968  -4.6040  -4.0671
    -3.9441  -3.9013  -3.8733  -3.6872  -3.5549  -3.3939  -3.1108  -3.0567
    -3.0561  -3.0416  -2.9203  -2.8723  -2.1211  -2.0625  -1.8973  -1.6268
    -1.3939  -1.3888  -1.1117  -0.4503  -0.3724  -0.2648

     occupation numbers 
     1.0000   1.0000   1.0000   1.0000   1.0000   1.0000   1.0000   1.0000
     1.0000   1.0000   1.0000   1.0000   1.0000   1.0000   1.0000   1.0000
     1.0000   1.0000   1.0000   1.0000   1.0000   1.0000   1.0000   1.0000
     1.0000   1.0000   1.0000   1.0000   1.0000   1.0000   1.0000   1.0696
     0.6151   0.3861   0.2599   0.0026   0.0000   0.0000   0.0000   0.0000
     0.0000   0.0000   0.0000   0.0000   0.0000   0.0000   0.0000   0.0000
     0.0000   0.0000   0.0000   0.0000   0.0000   0.0000

          k = 0.0000 0.2624 0.0000 (221568 PWs)   bands (ev):

   -51.5654 -51.5651 -51.5647 -51.5647 -51.5577 -51.5574 -51.5570 -51.5570
   -50.6692 -50.6692 -50.6689 -50.6686 -50.6610 -50.6610 -50.6608 -50.6605
   -50.3498 -50.3492 -50.3444 -50.3437 -50.3414 -50.3408 -50.3366 -50.3360
    -6.9760  -6.8079  -6.0953  -5.9348  -4.7897  -4.6993  -4.5955  -4.3306
    -3.9658  -3.8345  -3.8075  -3.7268  -3.6862  -3.3232  -3.3001  -3.1800
    -3.0825  -3.0568  -2.8994  -2.8804  -2.0761  -2.0558  -1.8024  -1.5078
    -1.5036  -1.4158  -0.9975  -0.6076  -0.3425  -0.1915

     occupation numbers 
     1.0000   1.0000   1.0000   1.0000   1.0000   1.0000   1.0000   1.0000
     1.0000   1.0000   1.0000   1.0000   1.0000   1.0000   1.0000   1.0000
     1.0000   1.0000   1.0000   1.0000   1.0000   1.0000   1.0000   1.0000
     1.0000   1.0000   1.0000   1.0000   1.0000   1.0000   1.0000   1.0008
     0.7331   0.1324   0.0759   0.0092   0.0025   0.0000   0.0000   0.0000
     0.0000   0.0000   0.0000   0.0000   0.0000   0.0000   0.0000   0.0000
     0.0000   0.0000   0.0000   0.0000   0.0000   0.0000

          k = 0.0909 0.0000 0.0000 (221718 PWs)   bands (ev):

   -51.5652 -51.5649 -51.5646 -51.5646 -51.5578 -51.5575 -51.5572 -51.5572
   -50.6691 -50.6690 -50.6688 -50.6685 -50.6612 -50.6612 -50.6610 -50.6607
   -50.3504 -50.3468 -50.3465 -50.3427 -50.3423 -50.3390 -50.3387 -50.3355
    -7.1661  -6.2791  -5.9975  -5.9975  -5.1149  -5.1148  -4.8533  -4.6009
    -3.8222  -3.6353  -3.6352  -3.5796  -3.5794  -3.4610  -3.2883  -3.0303
    -3.0302  -2.9527  -2.9088  -2.1776  -2.1233  -1.9256  -1.9255  -1.8496
    -1.6214  -1.6210  -0.8647  -0.3457  -0.3455  -0.2346

     occupation numbers 
     1.0000   1.0000   1.0000   1.0000   1.0000   1.0000   1.0000   1.0000
     1.0000   1.0000   1.0000   1.0000   1.0000   1.0000   1.0000   1.0000
     1.0000   1.0000   1.0000   1.0000   1.0000   1.0000   1.0000   1.0000
     1.0000   1.0000   1.0000   1.0000   1.0000   1.0000   1.0000   1.0000
     0.1036   0.0004   0.0004   0.0000   0.0000   0.0000   0.0000   0.0000
     0.0000   0.0000   0.0000   0.0000   0.0000   0.0000   0.0000   0.0000
     0.0000   0.0000   0.0000   0.0000   0.0000   0.0000

          k = 0.0909 0.0875 0.0000 (221669 PWs)   bands (ev):

   -51.5652 -51.5649 -51.5646 -51.5646 -51.5578 -51.5575 -51.5572 -51.5572
   -50.6691 -50.6690 -50.6688 -50.6685 -50.6612 -50.6612 -50.6610 -50.6607
   -50.3503 -50.3475 -50.3458 -50.3428 -50.3422 -50.3396 -50.3381 -50.3355
    -7.1421  -6.3029  -6.2556  -5.6827  -5.3630  -4.8317  -4.8126  -4.5786
    -3.8577  -3.8213  -3.8009  -3.4562  -3.4442  -3.4385  -3.2916  -3.1599
    -2.9383  -2.9330  -2.9009  -2.4160  -2.1253  -2.1224  -1.7891  -1.7332
    -1.6569  -1.4551  -0.8219  -0.4652  -0.3193  -0.3099

     occupation numbers 
     1.0000   1.0000   1.0000   1.0000   1.0000   1.0000   1.0000   1.0000
     1.0000   1.0000   1.0000   1.0000   1.0000   1.0000   1.0000   1.0000
     1.0000   1.0000   1.0000   1.0000   1.0000   1.0000   1.0000   1.0000
     1.0000   1.0000   1.0000   1.0000   1.0000   1.0000   1.0000   1.0000
     0.2017   0.1018   0.0655   0.0000   0.0000   0.0000   0.0000   0.0000
     0.0000   0.0000   0.0000   0.0000   0.0000   0.0000   0.0000   0.0000
     0.0000   0.0000   0.0000   0.0000   0.0000   0.0000

          k = 0.0909 0.1750 0.0000 (221668 PWs)   bands (ev):

   -51.5652 -51.5649 -51.5646 -51.5646 -51.5578 -51.5575 -51.5572 -51.5572
   -50.6691 -50.6690 -50.6688 -50.6685 -50.6612 -50.6612 -50.6610 -50.6607
   -50.3501 -50.3483 -50.3450 -50.3431 -50.3419 -50.3403 -50.3374 -50.3358
    -7.0699  -6.5656  -6.1853  -5.7146  -5.1835  -4.7685  -4.5752  -4.5122
    -4.0694  -3.9149  -3.8425  -3.7381  -3.3963  -3.3818  -3.2473  -3.0224
    -2.8906  -2.8875  -2.8809  -2.8404  -2.2185  -2.1370  -1.8762  -1.5960
    -1.3660  -1.3550  -1.0816  -0.5525  -0.5204  -0.1476

     occupation numbers 
     1.0000   1.0000   1.0000   1.0000   1.0000   1.0000   1.0000   1.0000
     1.0000   1.0000   1.0000   1.0000   1.0000   1.0000   1.0000   1.0000
     1.0000   1.0000   1.0000   1.0000   1.0000   1.0000   1.0000   1.0000
     1.0000   1.0000   1.0000   1.0000   1.0000   1.0000   1.0000   1.0000
     1.0718   0.4554   0.1539   0.0129   0.0000   0.0000   0.0000   0.0000
     0.0000   0.0000   0.0000   0.0000   0.0000   0.0000   0.0000   0.0000
     0.0000   0.0000   0.0000   0.0000   0.0000   0.0000

          k = 0.0909 0.2624 0.0000 (221625 PWs)   bands (ev):

   -51.5652 -51.5649 -51.5646 -51.5646 -51.5578 -51.5575 -51.5572 -51.5572
   -50.6690 -50.6690 -50.6688 -50.6685 -50.6612 -50.6612 -50.6610 -50.6607
   -50.3496 -50.3490 -50.3442 -50.3436 -50.3416 -50.3410 -50.3368 -50.3362
    -6.9497  -6.7815  -6.0687  -5.9080  -4.7614  -4.6707  -4.5666  -4.4032
    -4.3013  -4.2540  -3.6975  -3.6377  -3.5081  -3.3281  -3.2929  -3.2655
    -2.8657  -2.8604  -2.8593  -2.8489  -2.2161  -2.1702  -1.7801  -1.4817
    -1.4739  -1.3867  -1.0698  -0.8158  -0.4341  -0.2080

     occupation numbers 
     1.0000   1.0000   1.0000   1.0000   1.0000   1.0000   1.0000   1.0000
     1.0000   1.0000   1.0000   1.0000   1.0000   1.0000   1.0000   1.0000
     1.0000   1.0000   1.0000   1.0000   1.0000   1.0000   1.0000   1.0000
     1.0000   1.0000   1.0000   1.0000   1.0000   1.0000   1.0000   1.0000
     1.0021   1.0082   0.0036   0.0004   0.0000   0.0000   0.0000   0.0000
     0.0000   0.0000   0.0000   0.0000   0.0000   0.0000   0.0000   0.0000
     0.0000   0.0000   0.0000   0.0000   0.0000   0.0000

          k = 0.1818 0.0000 0.0000 (221744 PWs)   bands (ev):

   -51.5648 -51.5645 -51.5641 -51.5641 -51.5583 -51.5580 -51.5576 -51.5576
   -50.6686 -50.6685 -50.6683 -50.6680 -50.6617 -50.6617 -50.6615 -50.6611
   -50.3499 -50.3463 -50.3460 -50.3428 -50.3422 -50.3395 -50.3392 -50.3359
    -7.0876  -6.1998  -5.9168  -5.9168  -5.0850  -5.0328  -5.0327  -4.7693
    -4.2427  -3.9935  -3.9935  -3.4858  -3.4857  -3.2354  -3.2353  -3.1852
    -3.0305  -2.8686  -2.7536  -2.0748  -2.0032  -1.8251  -1.8250  -1.7496
    -1.5501  -1.5498  -0.7913  -0.5608  -0.4192  -0.4190

     occupation numbers 
     1.0000   1.0000   1.0000   1.0000   1.0000   1.0000   1.0000   1.0000
     1.0000   1.0000   1.0000   1.0000   1.0000   1.0000   1.0000   1.0000
     1.0000   1.0000   1.0000   1.0000   1.0000   1.0000   1.0000   1.0000
     1.0000   1.0000   1.0000   1.0000   1.0000   1.0000   1.0000   1.0000
     1.0108   0.8692   0.8690   0.0000   0.0000   0.0000   0.0000   0.0000
     0.0000   0.0000   0.0000   0.0000   0.0000   0.0000   0.0000   0.0000
     0.0000   0.0000   0.0000   0.0000   0.0000   0.0000

          k = 0.1818 0.0875 0.0000 (221735 PWs)   bands (ev):

   -51.5648 -51.5645 -51.5641 -51.5641 -51.5583 -51.5580 -51.5576 -51.5576
   -50.6686 -50.6685 -50.6683 -50.6680 -50.6617 -50.6617 -50.6615 -50.6611
   -50.3498 -50.3470 -50.3453 -50.3427 -50.3423 -50.3401 -50.3386 -50.3360
    -7.0635  -6.2229  -6.1763  -5.6009  -5.2820  -5.0618  -4.7475  -4.7289
    -4.2708  -4.2206  -3.7311  -3.7097  -3.4446  -3.3576  -3.1933  -3.0039
    -3.0030  -2.8473  -2.7564  -2.3158  -2.1030  -2.0444  -1.7234  -1.6365
    -1.5686  -1.3777  -0.7316  -0.7199  -0.4329  -0.3443

     occupation numbers 
     1.0000   1.0000   1.0000   1.0000   1.0000   1.0000   1.0000   1.0000
     1.0000   1.0000   1.0000   1.0000   1.0000   1.0000   1.0000   1.0000
     1.0000   1.0000   1.0000   1.0000   1.0000   1.0000   1.0000   1.0000
     1.0000   1.0000   1.0000   1.0000   1.0000   1.0000   1.0000   1.0000
     1.0052   1.0180   0.0105   0.0054   0.0000   0.0000   0.0000   0.0000
     0.0000   0.0000   0.0000   0.0000   0.0000   0.0000   0.0000   0.0000
     0.0000   0.0000   0.0000   0.0000   0.0000   0.0000

          k = 0.1818 0.1750 0.0000 (221735 PWs)   bands (ev):

   -51.5648 -51.5645 -51.5641 -51.5641 -51.5583 -51.5580 -51.5576 -51.5576
   -50.6686 -50.6685 -50.6683 -50.6680 -50.6617 -50.6617 -50.6615 -50.6611
   -50.3496 -50.3478 -50.3445 -50.3426 -50.3424 -50.3408 -50.3379 -50.3362
    -6.9913  -6.4861  -6.1057  -5.6337  -5.1010  -4.9924  -4.6837  -4.5142
    -4.4893  -4.1546  -3.8275  -3.7503  -3.7251  -3.3234  -2.9249  -2.9197
    -2.8020  -2.7923  -2.7751  -2.7454  -2.3621  -2.1763  -1.8143  -1.5042
    -1.3680  -1.2829  -0.9920  -0.9264  -0.4473  -0.2504

     occupation numbers 
     1.0000   1.0000   1.0000   1.0000   1.0000   1.0000   1.0000   1.0000
     1.0000   1.0000   1.0000   1.0000   1.0000   1.0000   1.0000   1.0000
     1.0000   1.0000   1.0000   1.0000   1.0000   1.0000   1.0000   1.0000
     1.0000   1.0000   1.0000   1.0000   1.0000   1.0000   1.0000   1.0000
     1.0000   1.0559   0.1155   0.0182   0.0087   0.0000   0.0000   0.0000
     0.0000   0.0000   0.0000   0.0000   0.0000   0.0000   0.0000   0.0000
     0.0000   0.0000   0.0000   0.0000   0.0000   0.0000

          k = 0.1818 0.2624 0.0000 (221799 PWs)   bands (ev):

   -51.5648 -51.5645 -51.5641 -51.5641 -51.5583 -51.5580 -51.5576 -51.5576
   -50.6686 -50.6685 -50.6683 -50.6680 -50.6617 -50.6617 -50.6615 -50.6611
   -50.3492 -50.3485 -50.3438 -50.3431 -50.3421 -50.3414 -50.3372 -50.3366
    -6.8709  -6.7024  -5.9889  -5.8278  -4.8772  -4.7173  -4.6767  -4.5852
    -4.4802  -4.2136  -4.0464  -3.8993  -3.6101  -3.2024  -3.0411  -2.8529
    -2.7929  -2.7646  -2.7550  -2.6613  -2.5314  -2.3778  -1.7144  -1.4053
    -1.3843  -1.3000  -1.2093  -1.0738  -0.4876  -0.3868

     occupation numbers 
     1.0000   1.0000   1.0000   1.0000   1.0000   1.0000   1.0000   1.0000
     1.0000   1.0000   1.0000   1.0000   1.0000   1.0000   1.0000   1.0000
     1.0000   1.0000   1.0000   1.0000   1.0000   1.0000   1.0000   1.0000
     1.0000   1.0000   1.0000   1.0000   1.0000   1.0000   1.0000   1.0000
     1.0000   1.0209   1.0394   0.3759   0.0001   0.0000   0.0000   0.0000
     0.0000   0.0000   0.0000   0.0000   0.0000   0.0000   0.0000   0.0000
     0.0000   0.0000   0.0000   0.0000   0.0000   0.0000

          k = 0.2727 0.0000 0.0000 (221756 PWs)   bands (ev):

   -51.5641 -51.5638 -51.5634 -51.5634 -51.5590 -51.5587 -51.5584 -51.5583
   -50.6679 -50.6677 -50.6675 -50.6672 -50.6625 -50.6624 -50.6622 -50.6619
   -50.3491 -50.3456 -50.3453 -50.3436 -50.3415 -50.3403 -50.3400 -50.3366
    -6.9568  -6.0679  -5.7828  -5.7828  -5.5237  -4.8970  -4.8969  -4.6554
    -4.6300  -4.3782  -4.3782  -3.5449  -3.5448  -3.3309  -3.3307  -3.2474
    -3.0133  -2.7310  -2.2229  -1.9246  -1.9246  -1.9037  -1.7613  -1.5840
    -1.4339  -1.4335  -1.1346  -0.6812  -0.5596  -0.5596

     occupation numbers 
     1.0000   1.0000   1.0000   1.0000   1.0000   1.0000   1.0000   1.0000
     1.0000   1.0000   1.0000   1.0000   1.0000   1.0000   1.0000   1.0000
     1.0000   1.0000   1.0000   1.0000   1.0000   1.0000   1.0000   1.0000
     1.0000   1.0000   1.0000   1.0000   1.0000   1.0000   1.0000   1.0000
     1.0000   1.0001   1.0001   0.0000   0.0000   0.0000   0.0000   0.0000
     0.0000   0.0000   0.0000   0.0000   0.0000   0.0000   0.0000   0.0000
     0.0000   0.0000   0.0000   0.0000   0.0000   0.0000

          k = 0.2727 0.0875 0.0000 (221778 PWs)   bands (ev):

   -51.5641 -51.5638 -51.5634 -51.5634 -51.5590 -51.5587 -51.5584 -51.5583
   -50.6678 -50.6677 -50.6675 -50.6672 -50.6625 -50.6624 -50.6622 -50.6619
   -50.3490 -50.3463 -50.3446 -50.3435 -50.3416 -50.3409 -50.3393 -50.3367
    -6.9326  -6.0900  -6.0443  -5.4999  -5.4653  -5.1479  -4.6762  -4.6324
    -4.6080  -4.5907  -4.0675  -3.7861  -3.5822  -3.2531  -3.2227  -3.1941
    -3.0305  -2.7068  -2.2331  -2.2251  -2.1497  -1.9069  -1.6170  -1.6028
    -1.4773  -1.2509  -1.1743  -0.7767  -0.5882  -0.3467

     occupation numbers 
     1.0000   1.0000   1.0000   1.0000   1.0000   1.0000   1.0000   1.0000
     1.0000   1.0000   1.0000   1.0000   1.0000   1.0000   1.0000   1.0000
     1.0000   1.0000   1.0000   1.0000   1.0000   1.0000   1.0000   1.0000
     1.0000   1.0000   1.0000   1.0000   1.0000   1.0000   1.0000   1.0000
     1.0000   1.0000   1.0700   0.0462   0.0000   0.0000   0.0000   0.0000
     0.0000   0.0000   0.0000   0.0000   0.0000   0.0000   0.0000   0.0000
     0.0000   0.0000   0.0000   0.0000   0.0000   0.0000

          k = 0.2727 0.1750 0.0000 (221876 PWs)   bands (ev):

   -51.5641 -51.5638 -51.5634 -51.5634 -51.5590 -51.5587 -51.5584 -51.5583
   -50.6678 -50.6677 -50.6675 -50.6672 -50.6625 -50.6624 -50.6622 -50.6619
   -50.3488 -50.3471 -50.3438 -50.3432 -50.3419 -50.3416 -50.3386 -50.3369
    -6.8603  -6.3539  -5.9736  -5.4996  -5.4287  -4.9644  -4.9330  -4.5636
    -4.5435  -4.3474  -4.1042  -3.6836  -3.6075  -3.5979  -3.1506  -2.9809
    -2.7488  -2.6567  -2.5886  -2.4514  -2.3604  -2.1655  -1.7155  -1.3612
    -1.3542  -1.2380  -1.1463  -0.8500  -0.8455  -0.5153

     occupation numbers 
     1.0000   1.0000   1.0000   1.0000   1.0000   1.0000   1.0000   1.0000
     1.0000   1.0000   1.0000   1.0000   1.0000   1.0000   1.0000   1.0000
     1.0000   1.0000   1.0000   1.0000   1.0000   1.0000   1.0000   1.0000
     1.0000   1.0000   1.0000   1.0000   1.0000   1.0000   1.0000   1.0000
     1.0000   1.0004   1.0826   0.0023   0.0001   0.0001   0.0000   0.0000
     0.0000   0.0000   0.0000   0.0000   0.0000   0.0000   0.0000   0.0000
     0.0000   0.0000   0.0000   0.0000   0.0000   0.0000

          k = 0.2727 0.2624 0.0000 (221844 PWs)   bands (ev):

   -51.5641 -51.5638 -51.5634 -51.5634 -51.5590 -51.5587 -51.5583 -51.5583
   -50.6678 -50.6678 -50.6675 -50.6672 -50.6625 -50.6624 -50.6622 -50.6619
   -50.3484 -50.3477 -50.3431 -50.3428 -50.3424 -50.3422 -50.3380 -50.3373
    -6.7396  -6.5707  -5.8564  -5.6947  -5.3102  -5.1448  -4.5368  -4.4500
    -4.4437  -4.3371  -4.2936  -4.0689  -3.4664  -3.2110  -3.0539  -3.0460
    -2.8962  -2.7450  -2.6004  -2.5969  -2.4563  -2.2945  -1.6093  -1.3233
    -1.3059  -1.2825  -1.2367  -1.1577  -0.7037  -0.6203

     occupation numbers 
     1.0000   1.0000   1.0000   1.0000   1.0000   1.0000   1.0000   1.0000
     1.0000   1.0000   1.0000   1.0000   1.0000   1.0000   1.0000   1.0000
     1.0000   1.0000   1.0000   1.0000   1.0000   1.0000   1.0000   1.0000
     1.0000   1.0000   1.0000   1.0000   1.0000   1.0000   1.0000   1.0000
     1.0000   1.0006   1.0027   1.0713   0.0000   0.0000   0.0000   0.0000
     0.0000   0.0000   0.0000   0.0000   0.0000   0.0000   0.0000   0.0000
     0.0000   0.0000   0.0000   0.0000   0.0000   0.0000

          k = 0.3636 0.0000 0.0000 (221758 PWs)   bands (ev):

   -51.5631 -51.5628 -51.5625 -51.5625 -51.5599 -51.5596 -51.5593 -51.5593
   -50.6669 -50.6668 -50.6666 -50.6663 -50.6635 -50.6634 -50.6632 -50.6629
   -50.3481 -50.3446 -50.3446 -50.3443 -50.3412 -50.3409 -50.3406 -50.3375
    -6.7737  -5.9130  -5.8841  -5.5964  -5.5964  -5.0318  -4.7440  -4.7439
    -4.7092  -4.7091  -4.4374  -3.8767  -3.8767  -3.5812  -3.1171  -3.1170
    -2.7730  -2.5451  -2.2079  -2.2079  -1.9389  -1.6644  -1.6443  -1.4270
    -1.3551  -1.2773  -1.2770  -0.6960  -0.6958  -0.5651

     occupation numbers 
     1.0000   1.0000   1.0000   1.0000   1.0000   1.0000   1.0000   1.0000
     1.0000   1.0000   1.0000   1.0000   1.0000   1.0000   1.0000   1.0000
     1.0000   1.0000   1.0000   1.0000   1.0000   1.0000   1.0000   1.0000
     1.0000   1.0000   1.0000   1.0000   1.0000   1.0000   1.0000   1.0000
     1.0000   1.0000   1.0000   0.2736   0.2734   0.0000   0.0000   0.0000
     0.0000   0.0000   0.0000   0.0000   0.0000   0.0000   0.0000   0.0000
     0.0000   0.0000   0.0000   0.0000   0.0000   0.0000

          k = 0.3636 0.0875 0.0000 (221868 PWs)   bands (ev):

   -51.5631 -51.5628 -51.5625 -51.5625 -51.5599 -51.5596 -51.5593 -51.5593
   -50.6669 -50.6668 -50.6666 -50.6663 -50.6635 -50.6634 -50.6632 -50.6629
   -50.3480 -50.3453 -50.3445 -50.3436 -50.3419 -50.3407 -50.3403 -50.3376
    -6.7495  -5.9048  -5.8890  -5.8604  -5.2770  -5.0501  -5.0083  -4.9621
    -4.4244  -4.4150  -4.4000  -4.1290  -3.5672  -3.5573  -3.3770  -2.9678
    -2.8051  -2.5159  -2.5052  -2.0408  -1.9199  -1.8739  -1.8477  -1.4755
    -1.3489  -1.2611  -1.0788  -0.9705  -0.7038  -0.4261

     occupation numbers 
     1.0000   1.0000   1.0000   1.0000   1.0000   1.0000   1.0000   1.0000
     1.0000   1.0000   1.0000   1.0000   1.0000   1.0000   1.0000   1.0000
     1.0000   1.0000   1.0000   1.0000   1.0000   1.0000   1.0000   1.0000
     1.0000   1.0000   1.0000   1.0000   1.0000   1.0000   1.0000   1.0000
     1.0000   1.0000   1.0001   1.0726   0.0000   0.0000   0.0000   0.0000
     0.0000   0.0000   0.0000   0.0000   0.0000   0.0000   0.0000   0.0000
     0.0000   0.0000   0.0000   0.0000   0.0000   0.0000

          k = 0.3636 0.1750 0.0000 (221891 PWs)   bands (ev):

   -51.5631 -51.5628 -51.5625 -51.5625 -51.5599 -51.5596 -51.5593 -51.5593
   -50.6668 -50.6668 -50.6666 -50.6663 -50.6634 -50.6634 -50.6632 -50.6629
   -50.3478 -50.3461 -50.3442 -50.3428 -50.3426 -50.3410 -50.3396 -50.3379
    -6.6770  -6.1695  -5.8168  -5.7894  -5.3133  -5.3127  -4.9381  -4.7754
    -4.4654  -4.3494  -4.1516  -3.9372  -3.4874  -3.4861  -3.3882  -3.2968
    -2.6726  -2.5167  -2.5102  -2.4594  -2.3739  -1.9200  -1.5875  -1.5231
    -1.4467  -1.2177  -1.1535  -0.9602  -0.7433  -0.6488

     occupation numbers 
     1.0000   1.0000   1.0000   1.0000   1.0000   1.0000   1.0000   1.0000
     1.0000   1.0000   1.0000   1.0000   1.0000   1.0000   1.0000   1.0000
     1.0000   1.0000   1.0000   1.0000   1.0000   1.0000   1.0000   1.0000
     1.0000   1.0000   1.0000   1.0000   1.0000   1.0000   1.0000   1.0000
     1.0000   1.0004   1.0580   0.5766   0.0000   0.0000   0.0000   0.0000
     0.0000   0.0000   0.0000   0.0000   0.0000   0.0000   0.0000   0.0000
     0.0000   0.0000   0.0000   0.0000   0.0000   0.0000

          k = 0.3636 0.2624 0.0000 (221911 PWs)   bands (ev):

   -51.5631 -51.5628 -51.5625 -51.5625 -51.5599 -51.5596 -51.5593 -51.5593
   -50.6668 -50.6668 -50.6666 -50.6663 -50.6634 -50.6634 -50.6632 -50.6629
   -50.3474 -50.3467 -50.3439 -50.3432 -50.3421 -50.3415 -50.3389 -50.3383
    -6.5561  -6.3869  -5.6967  -5.6718  -5.5285  -5.5096  -4.8216  -4.6609
    -4.3438  -4.2479  -4.1393  -3.8695  -3.5077  -3.3803  -3.2702  -3.2576
    -3.0197  -2.8516  -2.5257  -2.3887  -2.3641  -2.1773  -1.5594  -1.4729
    -1.4229  -1.1222  -1.0356  -1.0348  -0.9644  -0.7542

     occupation numbers 
     1.0000   1.0000   1.0000   1.0000   1.0000   1.0000   1.0000   1.0000
     1.0000   1.0000   1.0000   1.0000   1.0000   1.0000   1.0000   1.0000
     1.0000   1.0000   1.0000   1.0000   1.0000   1.0000   1.0000   1.0000
     1.0000   1.0000   1.0000   1.0000   1.0000   1.0000   1.0000   1.0000
     1.0005   1.0096   1.0663   0.2448   0.0000   0.0000   0.0000   0.0000
     0.0000   0.0000   0.0000   0.0000   0.0000   0.0000   0.0000   0.0000
     0.0000   0.0000   0.0000   0.0000   0.0000   0.0000

          k = 0.4545 0.0000 0.0000 (221854 PWs)   bands (ev):

   -51.5621 -51.5618 -51.5614 -51.5614 -51.5610 -51.5607 -51.5603 -51.5603
   -50.6657 -50.6656 -50.6655 -50.6651 -50.6646 -50.6645 -50.6643 -50.6640
   -50.3469 -50.3457 -50.3435 -50.3432 -50.3424 -50.3420 -50.3396 -50.3385
    -6.5386  -6.2515  -5.6490  -5.3642  -5.3592  -5.3592  -5.0736  -5.0736
    -4.4725  -4.4724  -4.1941  -4.1919  -4.1918  -3.9053  -2.8495  -2.8494
    -2.5383  -2.5382  -2.4644  -2.3221  -2.0896  -2.0879  -1.3574  -1.0889
    -1.0886  -1.0737  -0.9833  -0.9465  -0.8849  -0.8846

     occupation numbers 
     1.0000   1.0000   1.0000   1.0000   1.0000   1.0000   1.0000   1.0000
     1.0000   1.0000   1.0000   1.0000   1.0000   1.0000   1.0000   1.0000
     1.0000   1.0000   1.0000   1.0000   1.0000   1.0000   1.0000   1.0000
     1.0000   1.0000   1.0000   1.0000   1.0000   1.0000   1.0000   1.0000
     1.0000   1.0000   1.0306   1.0318   1.0318   0.4057   0.0000   0.0000
     0.0000   0.0000   0.0000   0.0000   0.0000   0.0000   0.0000   0.0000
     0.0000   0.0000   0.0000   0.0000   0.0000   0.0000

          k = 0.4545 0.0875 0.0000 (221817 PWs)   bands (ev):

   -51.5621 -51.5618 -51.5614 -51.5614 -51.5610 -51.5607 -51.5603 -51.5603
   -50.6657 -50.6657 -50.6655 -50.6651 -50.6646 -50.6645 -50.6643 -50.6640
   -50.3469 -50.3456 -50.3442 -50.3430 -50.3425 -50.3414 -50.3397 -50.3386
    -6.5144  -6.2274  -5.6684  -5.6253  -5.3826  -5.3406  -5.0381  -4.7519
    -4.7271  -4.4471  -4.1712  -4.1605  -3.8820  -3.8787  -3.1206  -2.8226
    -2.6835  -2.5217  -2.3553  -2.2836  -2.1911  -2.0327  -1.6336  -1.3377
    -1.3090  -1.1342  -1.0086  -0.8694  -0.8489  -0.6392

     occupation numbers 
     1.0000   1.0000   1.0000   1.0000   1.0000   1.0000   1.0000   1.0000
     1.0000   1.0000   1.0000   1.0000   1.0000   1.0000   1.0000   1.0000
     1.0000   1.0000   1.0000   1.0000   1.0000   1.0000   1.0000   1.0000
     1.0000   1.0000   1.0000   1.0000   1.0000   1.0000   1.0000   1.0000
     1.0000   1.0000   1.0446   1.0519   0.2959   0.2820   0.0000   0.0000
     0.0000   0.0000   0.0000   0.0000   0.0000   0.0000   0.0000   0.0000
[...]
     atom   12 type  1   force =    -0.00016132    0.00000304    0.03906955
     atom   13 type  1   force =     0.00006924    0.00000009    0.00415800
     atom   14 type  1   force =    -0.00007670   -0.00001106   -0.00418740
     atom   15 type  1   force =     0.00016319   -0.00000003   -0.03913490
     atom   16 type  1   force =    -0.00006105   -0.00000276   -0.01378008
     atom   17 type  1   force =     0.00006237    0.00000001    0.01371552
     atom   18 type  1   force =    -0.00015866   -0.00000253    0.03907639
     atom   19 type  1   force =     0.00006781    0.00000007    0.00414238
     atom   20 type  1   force =    -0.00007671    0.00001123   -0.00418739
     atom   21 type  1   force =     0.00015539   -0.00000002   -0.03914956
     atom   22 type  1   force =    -0.00006105    0.00000277   -0.01378008
     atom   23 type  1   force =     0.00006160    0.00000000    0.01370871
     atom   24 type  1   force =    -0.00015866    0.00000249    0.03907640
 

     Forces acting on atoms (cartesian axes, Ry/au):

     atom    1 type  1   force =     0.00036145    0.00000000   -0.00017858
     atom    2 type  1   force =    -0.00032130    0.00000060    0.00020466
     atom    3 type  1   force =     0.00011304    0.00000000    0.00028432
     atom    4 type  1   force =     0.00012313   -0.00000032   -0.00001637
     atom    5 type  1   force =    -0.00010500    0.00000000   -0.00001626
     atom    6 type  1   force =    -0.00016217   -0.00000707   -0.00029553
     atom    7 type  1   force =     0.00037853    0.00000000   -0.00019151
     atom    8 type  1   force =    -0.00032130   -0.00000060    0.00020466
     atom    9 type  1   force =     0.00016069    0.00000000    0.00026734
     atom   10 type  1   force =     0.00012313    0.00000032   -0.00001637
     atom   11 type  1   force =    -0.00009804    0.00000000    0.00004721
     atom   12 type  1   force =    -0.00016217    0.00000707   -0.00029553
     atom   13 type  1   force =     0.00022536    0.00000000   -0.00018181
     atom   14 type  1   force =    -0.00026913   -0.00000388    0.00020969
     atom   15 type  1   force =     0.00012157    0.00000000    0.00027843
     atom   16 type  1   force =     0.00014178    0.00002837   -0.00000486
     atom   17 type  1   force =    -0.00015160    0.00000000   -0.00001611
     atom   18 type  1   force =    -0.00007769   -0.00000358   -0.00026881
     atom   19 type  1   force =     0.00021426    0.00000000   -0.00020481
     atom   20 type  1   force =    -0.00026913    0.00000388    0.00020969
     atom   21 type  1   force =     0.00007018    0.00000000    0.00024939
     atom   22 type  1   force =     0.00014178   -0.00002837   -0.00000486
     atom   23 type  1   force =    -0.00015971    0.00000000    0.00000482
     atom   24 type  1   force =    -0.00007769    0.00000358   -0.00026881
     The non-local contrib.  to forces
     atom    1 type  1   force =     0.00035285    0.00000000    0.10421785
     atom    2 type  1   force =    -0.00032557    0.00000255   -0.10419725
     atom    3 type  1   force =     0.00072215    0.00000000   -0.03385812
     atom    4 type  1   force =    -0.00000914   -0.00000014    0.00330320
     atom    5 type  1   force =     0.00000142    0.00000000   -0.00334581
     atom    6 type  1   force =    -0.00075898   -0.00001580    0.03386684
     atom    7 type  1   force =     0.00034974    0.00000000    0.10420309
     atom    8 type  1   force =    -0.00032557   -0.00000255   -0.10419725
     atom    9 type  1   force =     0.00079079    0.00000000   -0.03391888
     atom   10 type  1   force =    -0.00000914    0.00000014    0.00330320
     atom   11 type  1   force =     0.00001907    0.00000000   -0.00326762
     atom   12 type  1   force =    -0.00075898    0.00001580    0.03386684
     atom   13 type  1   force =     0.00026375    0.00000000    0.10420199
     atom   14 type  1   force =    -0.00028632   -0.00002308   -0.10418884
     atom   15 type  1   force =     0.00075056    0.00000000   -0.03388242
     atom   16 type  1   force =     0.00001240    0.00003045    0.00332858
     atom   17 type  1   force =    -0.00001832    0.00000000   -0.00334648
     atom   18 type  1   force =    -0.00070552   -0.00001473    0.03391439
     atom   19 type  1   force =     0.00025993    0.00000000    0.10418375
     atom   20 type  1   force =    -0.00028632    0.00002308   -0.10418884
     atom   21 type  1   force =     0.00068568    0.00000000   -0.03394515
     atom   22 type  1   force =     0.00001240   -0.00003045    0.00332858
     atom   23 type  1   force =    -0.00003430    0.00000000   -0.00331493
     atom   24 type  1   force =    -0.00070552    0.00001473    0.03391439
     The ionic contribution  to forces
     atom    1 type  1   force =     0.00062952   -0.00000002    8.56551114
     atom    2 type  1   force =    -0.00004400   -0.00002845   -8.56526691
     atom    3 type  1   force =    -0.00079975    0.00000001   -5.14169424
     atom    4 type  1   force =    -0.00323095    0.00004543   -2.10311892
     atom    5 type  1   force =     0.00324063   -0.00000002    2.10287785
     atom    6 type  1   force =    -0.00002366   -0.00024750    5.14231623
     atom    7 type  1   force =     0.00079651    0.00000003    8.56509200
     atom    8 type  1   force =    -0.00004401    0.00002844   -8.56526685
     atom    9 type  1   force =     0.00026002    0.00000002   -5.14241142
     atom   10 type  1   force =    -0.00323095   -0.00004545   -2.10311884
     atom   11 type  1   force =     0.00346824    0.00000004    2.10249417
     atom   12 type  1   force =    -0.00002366    0.00024748    5.14231642
     atom   13 type  1   force =    -0.00128558   -0.00000002    8.56523024
     atom   14 type  1   force =     0.00066256   -0.00024853   -8.56532256
     atom   15 type  1   force =    -0.00042611    0.00000001   -5.14184418
     atom   16 type  1   force =    -0.00281556    0.00065885   -2.10310727
     atom   17 type  1   force =     0.00288954   -0.00000002    2.10326571
     atom   18 type  1   force =     0.00119552   -0.00017701    5.14252194
     atom   19 type  1   force =    -0.00139774    0.00000003    8.56519416
     atom   20 type  1   force =     0.00066257    0.00024852   -8.56532249
     atom   21 type  1   force =    -0.00151656    0.00000001   -5.14253693
     atom   22 type  1   force =    -0.00281555   -0.00065887   -2.10310719
     atom   23 type  1   force =     0.00265345    0.00000004    2.10277578
     atom   24 type  1   force =     0.00119553    0.00017699    5.14252214
     The local contribution  to forces
     atom    1 type  1   force =    -0.00071645   -0.00004252   -8.67405693
     atom    2 type  1   force =     0.00013529   -0.00001310    8.67386445
     atom    3 type  1   force =     0.00003375   -0.00004368    5.21496591
     atom    4 type  1   force =     0.00341842   -0.00008570    2.11357833
     atom    5 type  1   force =    -0.00340620   -0.00004495   -2.11325986
     atom    6 type  1   force =     0.00077970    0.00021593   -5.21554394
     atom    7 type  1   force =    -0.00086496   -0.00004393   -8.67364279
     atom    8 type  1   force =     0.00013761   -0.00007781    8.67386087
     atom    9 type  1   force =    -0.00105465   -0.00004449    5.21574255
     atom   10 type  1   force =     0.00342888   -0.00000304    2.11357591
     atom   11 type  1   force =    -0.00364518   -0.00004170   -2.11288114
     atom   12 type  1   force =     0.00078377   -0.00030270   -5.21554880
     atom   13 type  1   force =     0.00117860   -0.00004252   -8.67377034
     atom   14 type  1   force =    -0.00057070    0.00023342    8.67390901
     atom   15 type  1   force =    -0.00036604   -0.00004368    5.21513806
     atom   16 type  1   force =     0.00300081   -0.00070255    2.11355443
     atom   17 type  1   force =    -0.00308524   -0.00004495   -2.11365026
     atom   18 type  1   force =    -0.00041113    0.00014731   -5.21577741
     atom   19 type  1   force =     0.00128482   -0.00004393   -8.67372338
     atom   20 type  1   force =    -0.00056779   -0.00032433    8.67390484
     atom   21 type  1   force =     0.00074571   -0.00004449    5.21587907
     atom   22 type  1   force =     0.00301127    0.00061381    2.11355201
     atom   23 type  1   force =    -0.00284052   -0.00004170   -2.11316409
     atom   24 type  1   force =    -0.00040706   -0.00023408   -5.21578228
     The core correction contribution to forces
     atom    1 type  1   force =     0.00000000    0.00000000    0.00000000
     atom    2 type  1   force =     0.00000000    0.00000000    0.00000000
     atom    3 type  1   force =     0.00000000    0.00000000    0.00000000
     atom    4 type  1   force =     0.00000000    0.00000000    0.00000000
     atom    5 type  1   force =     0.00000000    0.00000000    0.00000000
     atom    6 type  1   force =     0.00000000    0.00000000    0.00000000
     atom    7 type  1   force =     0.00000000    0.00000000    0.00000000
     atom    8 type  1   force =     0.00000000    0.00000000    0.00000000
     atom    9 type  1   force =     0.00000000    0.00000000    0.00000000
     atom   10 type  1   force =     0.00000000    0.00000000    0.00000000
     atom   11 type  1   force =     0.00000000    0.00000000    0.00000000
     atom   12 type  1   force =     0.00000000    0.00000000    0.00000000
     atom   13 type  1   force =     0.00000000    0.00000000    0.00000000
     atom   14 type  1   force =     0.00000000    0.00000000    0.00000000
     atom   15 type  1   force =     0.00000000    0.00000000    0.00000000
     atom   16 type  1   force =     0.00000000    0.00000000    0.00000000
     atom   17 type  1   force =     0.00000000    0.00000000    0.00000000
     atom   18 type  1   force =     0.00000000    0.00000000    0.00000000
     atom   19 type  1   force =     0.00000000    0.00000000    0.00000000
     atom   20 type  1   force =     0.00000000    0.00000000    0.00000000
     atom   21 type  1   force =     0.00000000    0.00000000    0.00000000
     atom   22 type  1   force =     0.00000000    0.00000000    0.00000000
     atom   23 type  1   force =     0.00000000    0.00000000    0.00000000
     atom   24 type  1   force =     0.00000000    0.00000000    0.00000000
     The Hubbard contrib.    to forces
     atom    1 type  1   force =     0.00000000    0.00000000    0.00000000
     atom    2 type  1   force =     0.00000000    0.00000000    0.00000000
     atom    3 type  1   force =     0.00000000    0.00000000    0.00000000
     atom    4 type  1   force =     0.00000000    0.00000000    0.00000000
     atom    5 type  1   force =     0.00000000    0.00000000    0.00000000
     atom    6 type  1   force =     0.00000000    0.00000000    0.00000000
     atom    7 type  1   force =     0.00000000    0.00000000    0.00000000
     atom    8 type  1   force =     0.00000000    0.00000000    0.00000000
     atom    9 type  1   force =     0.00000000    0.00000000    0.00000000
     atom   10 type  1   force =     0.00000000    0.00000000    0.00000000
     atom   11 type  1   force =     0.00000000    0.00000000    0.00000000
     atom   12 type  1   force =     0.00000000    0.00000000    0.00000000
     atom   13 type  1   force =     0.00000000    0.00000000    0.00000000
     atom   14 type  1   force =     0.00000000    0.00000000    0.00000000
     atom   15 type  1   force =     0.00000000    0.00000000    0.00000000
     atom   16 type  1   force =     0.00000000    0.00000000    0.00000000
     atom   17 type  1   force =     0.00000000    0.00000000    0.00000000
     atom   18 type  1   force =     0.00000000    0.00000000    0.00000000
     atom   19 type  1   force =     0.00000000    0.00000000    0.00000000
     atom   20 type  1   force =     0.00000000    0.00000000    0.00000000
     atom   21 type  1   force =     0.00000000    0.00000000    0.00000000
     atom   22 type  1   force =     0.00000000    0.00000000    0.00000000
     atom   23 type  1   force =     0.00000000    0.00000000    0.00000000
     atom   24 type  1   force =     0.00000000    0.00000000    0.00000000
     The SCF correction term to forces
     atom    1 type  1   force =    -0.00000060   -0.00000000   -0.00000159
     atom    2 type  1   force =     0.00000057    0.00000002    0.00000161
     atom    3 type  1   force =    -0.00000002   -0.00000000    0.00000178
     atom    4 type  1   force =    -0.00000005    0.00000002    0.00000068
     atom    5 type  1   force =     0.00000004    0.00000000   -0.00000062
     atom    6 type  1   force =     0.00000004   -0.00000003   -0.00000189
     atom    7 type  1   force =    -0.00000050   -0.00000000   -0.00000164
     atom    8 type  1   force =     0.00000057   -0.00000002    0.00000161
     atom    9 type  1   force =    -0.00000009    0.00000000    0.00000204
     atom   10 type  1   force =    -0.00000005   -0.00000002    0.00000068
     atom   11 type  1   force =     0.00000004    0.00000000   -0.00000074
     atom   12 type  1   force =     0.00000004    0.00000003   -0.00000189
     atom   13 type  1   force =    -0.00000065   -0.00000000   -0.00000171
     atom   14 type  1   force =     0.00000057   -0.00000001    0.00000151
     atom   15 type  1   force =    -0.00000005    0.00000000    0.00000185
     atom   16 type  1   force =    -0.00000006    0.00000001    0.00000063
     atom   17 type  1   force =     0.00000005    0.00000000   -0.00000061
     atom   18 type  1   force =     0.00000005   -0.00000004   -0.00000181
     atom   19 type  1   force =    -0.00000056   -0.00000000   -0.00000173
     atom   20 type  1   force =     0.00000057    0.00000001    0.00000151
     atom   21 type  1   force =    -0.00000005    0.00000000    0.00000195
     atom   22 type  1   force =    -0.00000006   -0.00000001    0.00000063
     atom   23 type  1   force =     0.00000005   -0.00000000   -0.00000068
     atom   24 type  1   force =     0.00000005    0.00000004   -0.00000181

     Total force =     0.001384     Total SCF correction =     0.000007
     Energy error            =      4.5E-06 Ry
     Gradient error          =      3.8E-04 Ry/Bohr

     bfgs converged in  26 scf cycles and  25 bfgs steps
     (criteria: energy <  1.0E-05 Ry, force <  3.9E-04 Ry/Bohr)

     End of BFGS Geometry Optimization

     Final energy             =    -360.9058106097 Ry

     File ./Li/Lithium.bfgs deleted, as requested
Begin final coordinates

ATOMIC_POSITIONS (angstrom)
Li               3.1490889656        4.8580445300       27.2108397231
Li               0.8173617395        2.4292180454       19.8350801249
Li               1.9738194737        4.8580445600       21.5564600812
Li               3.1841345781        2.4290301871       22.6795932905
Li               0.7820670947        4.8580445800       24.3670235374
Li               1.9932133014        2.4290969097       25.4900878684
Li               3.1487339294        9.7160883600       27.2108051736
Li               0.8173616995        7.2868711146       19.8350801849
Li               1.9733725791        9.7160883800       21.5564592533
Li               3.1841343981        7.2870589529       22.6795933305
Li               0.7821982463        9.7160883300       24.3663302051
Li               1.9932132314        7.2869922003       25.4900879483
Li               6.1252376986        4.8580445300       27.2107315576
Li               3.7918116931        2.4292983821       19.8349513685
Li               4.9486707457        4.8580445600       21.5565153055
Li               6.1588624721        2.4286876135       22.6795076402
Li               3.7574340638        4.8580445800       24.3671183720
Li               4.9673770247        2.4290119526       25.4898961071
Li               6.1251428575        9.7160883600       27.2110470728
Li               3.7918116431        7.2867907779       19.8349514385
Li               4.9491347840        9.7160883800       21.5565956589
Li               6.1588622921        7.2874015265       22.6795076802
Li               3.7576903456        9.7160883300       24.3666587823
Li               4.9673769547        7.2870771574       25.4898961871
End final coordinates



     Writing all to output data dir ./Li/Lithium.save/ :
     XML data file
     init_run     :      7.54s CPU      8.16s WALL (       1 calls)
     electrons    :   7388.12s CPU   7437.71s WALL (      26 calls)
     update_pot   :      3.28s CPU      3.35s WALL (      25 calls)
     forces       :    420.71s CPU    422.10s WALL (      26 calls)

     Called by init_run:
     wfcinit      :      1.23s CPU      1.45s WALL (       1 calls)
     wfcinit:wfcr :      1.16s CPU      1.37s WALL (      12 calls)
     potinit      :      0.13s CPU      0.17s WALL (       1 calls)
     hinit0       :      2.45s CPU      2.72s WALL (       1 calls)

     Called by electrons:
     c_bands      :   3460.67s CPU   3487.06s WALL (     511 calls)
     sum_band     :    330.07s CPU    332.62s WALL (     511 calls)
     v_of_rho     :     46.51s CPU     46.99s WALL (     512 calls)
     v_h          :      4.36s CPU      4.38s WALL (     512 calls)
     v_xc         :     42.14s CPU     42.60s WALL (     512 calls)
     newd         :     13.98s CPU     14.20s WALL (     512 calls)
     PAW_pot      :     11.77s CPU     12.09s WALL (     537 calls)
     mix_rho      :    114.57s CPU    115.32s WALL (     511 calls)

     Called by c_bands:
     init_us_2    :     38.83s CPU     39.20s WALL (   12888 calls)
     cegterg      :   3289.30s CPU   3311.43s WALL (    6911 calls)

     Called by sum_band:
     sum_band:wei :      1.45s CPU      1.47s WALL (     511 calls)
     sum_band:loo :    301.19s CPU    303.23s WALL (     511 calls)
     sum_band:buf :      3.08s CPU      3.15s WALL (    6132 calls)
     sum_band:ini :     18.81s CPU     18.91s WALL (    6132 calls)
     sum_band:cal :     32.10s CPU     32.37s WALL (    6432 calls)
     sum_band:bec :      1.08s CPU      1.10s WALL (    6432 calls)
     addusdens    :     10.01s CPU     10.18s WALL (     511 calls)
                                        0.00s GPU  (     511 calls)
     addusd:skk   :      1.61s CPU      1.61s WALL (     511 calls)
                                        0.00s GPU  (     511 calls)

     Called by *egterg:
     cdiaghg      :    531.35s CPU    535.62s WALL (   83805 calls)
     cegterg:over :    254.42s CPU    256.15s WALL (   77552 calls)
     cegterg:upda :    132.96s CPU    133.78s WALL (   77552 calls)
     cegterg:last :     28.74s CPU     28.87s WALL (    8560 calls)
     h_psi        :   2141.48s CPU   2155.93s WALL (   84475 calls)
     s_psi        :    109.44s CPU    110.29s WALL (   84475 calls)
     g_psi        :      4.37s CPU      4.40s WALL (   77552 calls)

     Called by h_psi:
     h_psi:calbec :    174.63s CPU    176.27s WALL (   84475 calls)
     vloc_psi     :   1840.00s CPU   1852.15s WALL (   84475 calls)
                                        0.00s GPU  (   84475 calls)
     add_vuspsi   :    117.88s CPU    118.60s WALL (   84475 calls)

     General routines
     calbec       :    211.63s CPU    213.70s WALL (   92155 calls)
     fft          :     43.02s CPU     43.49s WALL (    6706 calls)
     ffts         :     59.44s CPU     59.78s WALL (   57603 calls)
     fftw         :   1987.43s CPU   2000.51s WALL ( 2980778 calls)
     interpolate  :      3.46s CPU      3.48s WALL (     512 calls)
 
     Parallel routines

     PAW routines
     PAW_pot      :     11.77s CPU     12.09s WALL (     537 calls)
     PAW_symme    :      0.48s CPU      0.48s WALL (    1048 calls)
 
     Environ routines
 
     PWSCF        :      2h14m CPU      2h15m WALL

 
   This run was terminated on:   2: 5:16   5Jan2025            

=------------------------------------------------------------------------------=
   JOB DONE.
=------------------------------------------------------------------------------=
