
     Program PWSCF v.7.4 starts on  2Jan2025 at 21: 6:31 

     This program is part of the open-source Quantum ESPRESSO suite
     for quantum simulation of materials; please cite
         "P. Giannozzi et al., J. Phys.:Condens. Matter 21 395502 (2009);
         "P. Giannozzi et al., J. Phys.:Condens. Matter 29 465901 (2017);
         "P. Giannozzi et al., J. Chem. Phys. 152 154105 (2020);
          URL http://www.quantum-espresso.org", 
     in publications or presentations arising from this work. More details at
     http://www.quantum-espresso.org/quote

     Parallel version (MPI & OpenMP), running on     384 processor cores
     Number of MPI processes:               384
     Threads/MPI process:                     1

     MPI processes distributed on     3 nodes
     234702 MiB available memory on the printing compute node when the environment starts

     Reading input from espresso.pwi
Warning: card &CELL ignored
Warning: card    PRESS_CONV_THR   = 0.1 ignored
Warning: card    CELL_DOFREE      = 'ALL' ignored
Warning: card / ignored
Warning: card &FCP ignored
Warning: card / ignored
Warning: card &RISM ignored
Warning: card / ignored

     Current dimensions of program PWSCF are:
     Max number of different atomic species (ntypx) = 10
     Max number of k-points (npk) =  40000
     Max angular momentum in pseudopotentials (lmaxx) =  4

     IMPORTANT: XC functional enforced from input :
     Exchange-correlation= PBE
                           (   1   4   3   4   0   0   0)
     Any further DFT definition will be discarded
     Please, verify this is what you really want


     Reading input from environ.in:
     * using ionic solvent mode
     * setting boundary derivatives method to SSCS default
     * setting electrolyte-boundary derivatives method to SSCS default

Environ Warning (1001): card EOF ignored

     

     K-points division:     npool     =       2
     R & G space division:  proc/nbgrp/npool/nimage =     192
     Subspace diagonalization in iterative solution of the eigenvalue problem:
     a serial algorithm will be used


     Parallelization info
     --------------------
     sticks:   dense  smooth     PW     G-vecs:    dense   smooth      PW
     Min          68      27      7                36508     9229    1253
     Max          69      28      8                36563     9258    1292
     Sum       13133    5269   1401              7013397  1773951  244485

     Using Slab Decomposition



     bravais-lattice index     =            8
     lattice parameter (alat)  =      11.2436  a.u.
     unit-cell volume          =   18353.5537 (a.u.)^3
     number of atoms/cell      =           24
     number of atomic types    =            1
     number of electrons       =        72.00
     number of Kohn-Sham states=           54
     kinetic-energy cutoff     =      80.0000  Ry
     charge density cutoff     =     800.0000  Ry
     scf convergence threshold =      1.0E-06
     mixing beta               =       0.2000
     number of iterations used =            8  local-TF  mixing
     energy convergence thresh.=      1.0E-05
     force convergence thresh. =      3.9E-04
     Exchange-correlation= PBE
                           (   1   4   3   4   0   0   0)
     nstep                     =          999


     ================================================================================

                                  Environ Setup Summary

     ================================================================================

     Please cite

          O. Andreussi, I. Dabo and N. Marzari, J. Chem. Phys. 136, 064102 (2012)
          F. Nattino, M. Truscott, N. Marzari, and O. Andreussi, J. Chem. Phys. 150, 041722 (2019)

     in publications or presentations arising from this work.

     ================================================================================

     Parameters
     ==========

     compensation onset threshold      =               0.1000E+00
     static permittivity               =                    89.90
     surface tension in input (dyn/cm) =                    37.30
     surface tension in internal units =               0.4792E-04

     Solvent Boundary
     ================

     solvent mode                      =                    ionic
     derivatives method                =                   lowmem
     electrolyte derivatives method    =                   lowmem
     numerical core for derivatives    =                      fft
     switching function adopted        =                     SCCS
     density limit for vacuum region   =               0.5000E-02
     density limit for bulk solvent    =               0.1000E-03
     soft-sphere radius mode           =                    bondi
     soft-sphere softness              =                     0.50
     alpha                             =                     1.32

     Electrostatic Setup
     ===================

     electrostatic problem to solve    =                    modpb
     numerical solver adopted          =                   newton
     type of auxiliary density adopted =                     none
     numerical core for poisson        =                      fft
     adopting a nested solver scheme
     inner solver                      =                       cg
     inner core                        =                      fft
     type of pbc corrections           =                parabolic
     numerical core for corrections    =                      1da

     ================================================================================


     >>>>> Grand-Canonical SCF is activated <<<<<
     Initial Total Charge  =     0.000000 e
     Target Fermi Energy   =    -2.404000 eV
     Thr. of Fermi Energy  =     0.001000 eV
     Wave-shift of Kerker  =     0.400000 bohr^-1
     Wave-shift of Hartree =     1.500000 bohr^-1
     Mixing Rate of Fermi  =     0.050000

     celldm(1)=  11.243615  celldm(2)=   1.632993  celldm(3)=   7.907113
     celldm(4)=   0.000000  celldm(5)=   0.000000  celldm(6)=   0.000000

     crystal axes: (cart. coord. in units of alat)
               a(1) = (   1.000000   0.000000   0.000000 )  
               a(2) = (   0.000000   1.632993   0.000000 )  
               a(3) = (   0.000000   0.000000   7.907113 )  

     reciprocal axes: (cart. coord. in units 2 pi/alat)
               b(1) = (  1.000000  0.000000  0.000000 )  
               b(2) = (  0.000000  0.612372  0.000000 )  
               b(3) = (  0.000000  0.000000  0.126468 )  


     PseudoPot. # 1 for Li read from file:
     /work/e89/e89/ba3g18/Repos/Pseudopotentials/Pslibrary/Li.pbe-sl-kjpaw_psl.1.0.0.UPF
     MD5 check sum: 3f4d2cafebb47c6c3aa8ed472e6f074d
     Pseudo is Projector augmented-wave, Zval =  3.0
     Generated using 'atomic' code by A. Dal Corso  v.7.4
     Shape of augmentation charge: PSQ
     Using radial grid of 1017 points,  4 beta functions with: 
                l(1) =   0
                l(2) =   0
                l(3) =   1
                l(4) =   1
     Q(r) pseudized with 0 coefficients 


     atomic species   valence    mass     pseudopotential
     Li                3.00     6.94000     Li( 1.00)

      2 Sym. Ops. (no inversion) found


                                    s                        frac. trans.

      isym =  1     identity                                     

 cryst.   s( 1) = (     1          0          0      )
                  (     0          1          0      )
                  (     0          0          1      )

 cart.    s( 1) = (  1.0000000  0.0000000  0.0000000 )
                  (  0.0000000  1.0000000  0.0000000 )
                  (  0.0000000  0.0000000  1.0000000 )


      isym =  2     inv. 180 deg rotation - cart. axis [0,1,0]   

 cryst.   s( 2) = (     1          0          0      )
                  (     0         -1          0      )
                  (     0          0          1      )

 cart.    s( 2) = (  1.0000000  0.0000000  0.0000000 )
                  (  0.0000000 -1.0000000  0.0000000 )
                  (  0.0000000  0.0000000  1.0000000 )


     point group C_s (m)    
     there are  2 classes
     the character table:

       E     s    
A'     1.00  1.00
A''    1.00 -1.00

     the symmetry operations in each class and the name of the first element:

     E        1
          identity                                               
     s        2
          inv. 180 deg rotation - cart. axis [0,1,0]             

   Cartesian axes

     site n.     atom                  positions (alat units)
         1        Li     tau(   1) = (   0.5269360   0.8164966   4.5389552  )
         2        Li     tau(   2) = (   0.1396332   0.4082305   3.3682529  )
         3        Li     tau(   3) = (   0.3428185   0.8164966   3.6141457  )
         4        Li     tau(   4) = (   0.5082298   0.4083468   3.8261593  )
         5        Li     tau(   5) = (   0.1584543   0.8164966   4.0808863  )
         6        Li     tau(   6) = (   0.3239109   0.4083813   4.2929615  )
         7        Li     tau(   7) = (   0.5269517   1.6329931   4.5390990  )
         8        Li     tau(   8) = (   0.1396332   1.2247627   3.3682529  )
         9        Li     tau(   9) = (   0.3427350   1.6329931   3.6141192  )
        10        Li     tau(  10) = (   0.5082298   1.2246465   3.8261593  )
        11        Li     tau(  11) = (   0.1584363   1.6329931   4.0807354  )
        12        Li     tau(  12) = (   0.3239109   1.2246120   4.2929615  )
        13        Li     tau(  13) = (   1.0271375   0.8164966   4.5389426  )
        14        Li     tau(  14) = (   0.6395452   0.4082412   3.3682501  )
        15        Li     tau(  15) = (   0.8428118   0.8164966   3.6141501  )
        16        Li     tau(  16) = (   1.0082287   0.4083119   3.8261553  )
        17        Li     tau(  17) = (   0.6585091   0.8164966   4.0808595  )
        18        Li     tau(  18) = (   0.8237881   0.4083770   4.2929104  )
        19        Li     tau(  19) = (   1.0271726   1.6329931   4.5391161  )
        20        Li     tau(  20) = (   0.6395451   1.2247521   3.3682501  )
        21        Li     tau(  21) = (   0.8428473   1.6329931   3.6141448  )
        22        Li     tau(  22) = (   1.0082287   1.2246814   3.8261553  )
        23        Li     tau(  23) = (   0.6585191   1.6329931   4.0807851  )
        24        Li     tau(  24) = (   0.8237881   1.2246163   4.2929104  )

   Crystallographic axes

     site n.     atom                  positions (cryst. coord.)
         1        Li     tau(   1) = (  0.5269360  0.5000001  0.5740344  )
         2        Li     tau(   2) = (  0.1396332  0.2499891  0.4259776  )
         3        Li     tau(   3) = (  0.3428185  0.5000001  0.4570753  )
         4        Li     tau(   4) = (  0.5082298  0.2500603  0.4838883  )
         5        Li     tau(   5) = (  0.1584543  0.5000001  0.5161032  )
         6        Li     tau(   6) = (  0.3239109  0.2500815  0.5429240  )
         7        Li     tau(   7) = (  0.5269517  1.0000001  0.5740526  )
         8        Li     tau(   8) = (  0.1396332  0.7500110  0.4259776  )
         9        Li     tau(   9) = (  0.3427350  1.0000001  0.4570719  )
        10        Li     tau(  10) = (  0.5082298  0.7499398  0.4838883  )
        11        Li     tau(  11) = (  0.1584363  1.0000001  0.5160841  )
        12        Li     tau(  12) = (  0.3239109  0.7499187  0.5429240  )
        13        Li     tau(  13) = (  1.0271375  0.5000001  0.5740329  )
        14        Li     tau(  14) = (  0.6395452  0.2499957  0.4259772  )
        15        Li     tau(  15) = (  0.8428118  0.5000001  0.4570758  )
        16        Li     tau(  16) = (  1.0082287  0.2500390  0.4838878  )
        17        Li     tau(  17) = (  0.6585091  0.5000001  0.5160998  )
        18        Li     tau(  18) = (  0.8237881  0.2500788  0.5429175  )
        19        Li     tau(  19) = (  1.0271726  1.0000001  0.5740548  )
        20        Li     tau(  20) = (  0.6395451  0.7500045  0.4259772  )
        21        Li     tau(  21) = (  0.8428473  1.0000001  0.4570751  )
        22        Li     tau(  22) = (  1.0082287  0.7499612  0.4838878  )
        23        Li     tau(  23) = (  0.6585191  1.0000001  0.5160904  )
        24        Li     tau(  24) = (  0.8237881  0.7499213  0.5429176  )

     number of k points=    24  Marzari-Vanderbilt smearing, width (Ry)=  0.0100
                       cart. coord. in units 2pi/alat
        k(    1) = (   0.0000000   0.0000000   0.0000000), wk =   0.0259740
        k(    2) = (   0.0000000   0.0874818   0.0000000), wk =   0.0519481
        k(    3) = (   0.0000000   0.1749636   0.0000000), wk =   0.0519481
        k(    4) = (   0.0000000   0.2624454   0.0000000), wk =   0.0519481
        k(    5) = (   0.0909091   0.0000000   0.0000000), wk =   0.0519481
        k(    6) = (   0.0909091   0.0874818   0.0000000), wk =   0.1038961
        k(    7) = (   0.0909091   0.1749636   0.0000000), wk =   0.1038961
        k(    8) = (   0.0909091   0.2624454   0.0000000), wk =   0.1038961
        k(    9) = (   0.1818182   0.0000000   0.0000000), wk =   0.0519481
        k(   10) = (   0.1818182   0.0874818   0.0000000), wk =   0.1038961
        k(   11) = (   0.1818182   0.1749636   0.0000000), wk =   0.1038961
        k(   12) = (   0.1818182   0.2624454   0.0000000), wk =   0.1038961
        k(   13) = (   0.2727273   0.0000000   0.0000000), wk =   0.0519481
        k(   14) = (   0.2727273   0.0874818   0.0000000), wk =   0.1038961
        k(   15) = (   0.2727273   0.1749636   0.0000000), wk =   0.1038961
        k(   16) = (   0.2727273   0.2624454   0.0000000), wk =   0.1038961
        k(   17) = (   0.3636364   0.0000000   0.0000000), wk =   0.0519481
        k(   18) = (   0.3636364   0.0874818   0.0000000), wk =   0.1038961
        k(   19) = (   0.3636364   0.1749636   0.0000000), wk =   0.1038961
        k(   20) = (   0.3636364   0.2624454   0.0000000), wk =   0.1038961
        k(   21) = (   0.4545455   0.0000000   0.0000000), wk =   0.0519481
        k(   22) = (   0.4545455   0.0874818   0.0000000), wk =   0.1038961
        k(   23) = (   0.4545455   0.1749636   0.0000000), wk =   0.1038961
        k(   24) = (   0.4545455   0.2624454   0.0000000), wk =   0.1038961

                       cryst. coord.
        k(    1) = (   0.0000000   0.0000000   0.0000000), wk =   0.0259740
        k(    2) = (   0.0000000   0.1428571   0.0000000), wk =   0.0519481
        k(    3) = (   0.0000000   0.2857143   0.0000000), wk =   0.0519481
        k(    4) = (   0.0000000   0.4285714   0.0000000), wk =   0.0519481
        k(    5) = (   0.0909091   0.0000000   0.0000000), wk =   0.0519481
        k(    6) = (   0.0909091   0.1428571   0.0000000), wk =   0.1038961
        k(    7) = (   0.0909091   0.2857143   0.0000000), wk =   0.1038961
        k(    8) = (   0.0909091   0.4285714   0.0000000), wk =   0.1038961
        k(    9) = (   0.1818182   0.0000000   0.0000000), wk =   0.0519481
        k(   10) = (   0.1818182   0.1428571   0.0000000), wk =   0.1038961
        k(   11) = (   0.1818182   0.2857143   0.0000000), wk =   0.1038961
        k(   12) = (   0.1818182   0.4285714   0.0000000), wk =   0.1038961
        k(   13) = (   0.2727273   0.0000000   0.0000000), wk =   0.0519481
        k(   14) = (   0.2727273   0.1428571   0.0000000), wk =   0.1038961
        k(   15) = (   0.2727273   0.2857143   0.0000000), wk =   0.1038961
        k(   16) = (   0.2727273   0.4285714   0.0000000), wk =   0.1038961
        k(   17) = (   0.3636364   0.0000000   0.0000000), wk =   0.0519481
        k(   18) = (   0.3636364   0.1428571   0.0000000), wk =   0.1038961
        k(   19) = (   0.3636364   0.2857143   0.0000000), wk =   0.1038961
        k(   20) = (   0.3636364   0.4285714   0.0000000), wk =   0.1038961
        k(   21) = (   0.4545455   0.0000000   0.0000000), wk =   0.0519481
        k(   22) = (   0.4545455   0.1428571   0.0000000), wk =   0.1038961
        k(   23) = (   0.4545455   0.2857143   0.0000000), wk =   0.1038961
        k(   24) = (   0.4545455   0.4285714   0.0000000), wk =   0.1038961

     Dense  grid:  7013397 G-vectors     FFT dimensions: ( 108, 180, 810)

     Smooth grid:  1773951 G-vectors     FFT dimensions: (  72, 108, 512)

     Dynamical RAM for                 wfc:       0.95 MB

     Dynamical RAM for     wfc (w. buffer):      12.37 MB

     Dynamical RAM for           str. fact:       0.56 MB

     Dynamical RAM for           local pot:       0.00 MB

     Dynamical RAM for          nlocal pot:       3.38 MB

     Dynamical RAM for                qrad:       0.65 MB

     Dynamical RAM for          rho,v,vnew:       3.90 MB

     Dynamical RAM for               rhoin:       1.30 MB

     Dynamical RAM for            rho*nmix:       8.92 MB

     Dynamical RAM for           G-vectors:       2.16 MB

     Dynamical RAM for          h,s,v(r/c):       2.14 MB

     Dynamical RAM for          <psi|beta>:       0.16 MB

     Dynamical RAM for                 psi:       3.81 MB

     Dynamical RAM for                hpsi:       3.81 MB

     Dynamical RAM for                spsi:       3.81 MB

     Dynamical RAM for      wfcinit/wfcrot:       1.97 MB

     Dynamical RAM for           addusdens:      18.96 MB

     Dynamical RAM for          addusforce:      31.80 MB

     Estimated static dynamical RAM per process >      29.14 MB

     Estimated max dynamical RAM per process >     107.02 MB

     Estimated total dynamical RAM >      24.53 GB

     Initial potential from superposition of free atoms

     starting charge      71.8894, renormalised to      72.0000

     negative rho (up, down):  3.126E-03 0.000E+00
     Starting wfcs are random
     Checking if some PAW data can be deallocated... 

     total cpu time spent up to now is       23.2 secs

     Self-consistent Calculation

     iteration #  1     ecut=    80.00 Ry     beta= 0.20
     Davidson diagonalization with overlap

---- Real-time Memory Report at c_bands before calling an iterative solver
           458 MiB given to the printing process from OS
             0 MiB allocation reported by mallinfo(arena+hblkhd)
        219952 MiB available memory on the node where the printing process lives
------------------
     c_bands:  1 eigenvalues not converged
     ethr =  1.00E-12,  avg # of iterations = 97.4

     negative rho (up, down):  2.313E-03 0.000E+00

     total cpu time spent up to now is      108.0 secs

     total energy              =    -360.95827141 Ry
     estimated scf accuracy    <       0.12906940 Ry

     total charge of GC-SCF    =       0.03392603 e
     the Fermi energy          =      -4.68690600 eV
                        (error :       2.28290600 eV)
     electrostatic embedding   =       0.00000000 Ry
     cavitation energy         =       0.02478978 Ry
     electrolyte free energy   =       0.00789959 Ry
     correction to one-el term =      -0.00000000 Ry

     iteration #  2     ecut=    80.00 Ry     beta= 0.20
     Davidson diagonalization with overlap

---- Real-time Memory Report at c_bands before calling an iterative solver
           458 MiB given to the printing process from OS
             0 MiB allocation reported by mallinfo(arena+hblkhd)
        219017 MiB available memory on the node where the printing process lives
------------------
     ethr =  1.00E-05,  avg # of iterations =  8.5

     negative rho (up, down):  1.665E-03 0.000E+00

     add environment contribution to local potential

     total cpu time spent up to now is      123.8 secs

     total energy              =    -360.74979639 Ry
     estimated scf accuracy    <       0.05016326 Ry

     total charge of GC-SCF    =       0.05731224 e
     the Fermi energy          =      -4.09159998 eV
                        (error :       1.68759998 eV)
     electrostatic embedding   =       0.00020906 Ry
     cavitation energy         =       0.02478978 Ry
     electrolyte free energy   =       0.00789959 Ry
     correction to one-el term =      -0.00000000 Ry

     iteration #  3     ecut=    80.00 Ry     beta= 0.20
     Davidson diagonalization with overlap

---- Real-time Memory Report at c_bands before calling an iterative solver
           458 MiB given to the printing process from OS
             0 MiB allocation reported by mallinfo(arena+hblkhd)
        218935 MiB available memory on the node where the printing process lives
------------------
     ethr =  1.00E-05,  avg # of iterations = 21.3

     negative rho (up, down):  1.378E-03 0.000E+00

     add environment contribution to local potential

     total cpu time spent up to now is      147.8 secs

     total energy              =    -360.77858204 Ry
     estimated scf accuracy    <       0.01415696 Ry

     total charge of GC-SCF    =       0.03237413 e
     the Fermi energy          =      -2.91761525 eV
                        (error :       0.51361525 eV)
     electrostatic embedding   =      -0.02628669 Ry
     cavitation energy         =       0.02478978 Ry
     electrolyte free energy   =      -0.00257266 Ry
     correction to one-el term =      -2.23685788 Ry

     iteration #  4     ecut=    80.00 Ry     beta= 0.20
     Davidson diagonalization with overlap

---- Real-time Memory Report at c_bands before calling an iterative solver
           458 MiB given to the printing process from OS
             0 MiB allocation reported by mallinfo(arena+hblkhd)
        218906 MiB available memory on the node where the printing process lives
------------------
     ethr =  1.00E-05,  avg # of iterations = 10.2

     negative rho (up, down):  1.117E-03 0.000E+00

     add environment contribution to local potential

     total cpu time spent up to now is      164.3 secs

     total energy              =    -360.75701596 Ry
     estimated scf accuracy    <       0.01091697 Ry

     total charge of GC-SCF    =       0.01880919 e
     the Fermi energy          =      -3.19167964 eV
                        (error :       0.78767964 eV)
     electrostatic embedding   =      -0.02577004 Ry
     cavitation energy         =       0.02478978 Ry
     electrolyte free energy   =      -0.00312946 Ry
     correction to one-el term =      -0.86793004 Ry

     iteration #  5     ecut=    80.00 Ry     beta= 0.20
     Davidson diagonalization with overlap

---- Real-time Memory Report at c_bands before calling an iterative solver
           458 MiB given to the printing process from OS
             0 MiB allocation reported by mallinfo(arena+hblkhd)
        218869 MiB available memory on the node where the printing process lives
------------------
     ethr =  1.00E-05,  avg # of iterations = 12.9

     negative rho (up, down):  9.447E-04 0.000E+00

     add environment contribution to local potential

     total cpu time spent up to now is      181.7 secs

     total energy              =    -360.76034554 Ry
     estimated scf accuracy    <       0.00247022 Ry

     total charge of GC-SCF    =      -0.01629491 e
     the Fermi energy          =      -2.84874195 eV
                        (error :       0.44474195 eV)
     electrostatic embedding   =      -0.02662583 Ry
     cavitation energy         =       0.02478978 Ry
     electrolyte free energy   =      -0.00189005 Ry
     correction to one-el term =       0.87295403 Ry

     iteration #  6     ecut=    80.00 Ry     beta= 0.20
     Davidson diagonalization with overlap

---- Real-time Memory Report at c_bands before calling an iterative solver
           458 MiB given to the printing process from OS
             0 MiB allocation reported by mallinfo(arena+hblkhd)
        218840 MiB available memory on the node where the printing process lives
------------------
     ethr =  3.43E-06,  avg # of iterations = 16.1

     negative rho (up, down):  8.811E-04 0.000E+00

     add environment contribution to local potential

     total cpu time spent up to now is      202.1 secs

     total energy              =    -360.77247448 Ry
     estimated scf accuracy    <       0.00130276 Ry

     total charge of GC-SCF    =      -0.13841724 e
     the Fermi energy          =      -2.60413896 eV
                        (error :       0.20013896 eV)
     electrostatic embedding   =      -0.03074208 Ry
     cavitation energy         =       0.02478978 Ry
     electrolyte free energy   =      -0.00109066 Ry
     correction to one-el term =       2.80049137 Ry

     iteration #  7     ecut=    80.00 Ry     beta= 0.20
     Davidson diagonalization with overlap

---- Real-time Memory Report at c_bands before calling an iterative solver
           458 MiB given to the printing process from OS
             0 MiB allocation reported by mallinfo(arena+hblkhd)
        218806 MiB available memory on the node where the printing process lives
------------------
     ethr =  1.81E-06,  avg # of iterations = 11.1

     negative rho (up, down):  8.580E-04 0.000E+00

     add environment contribution to local potential

     total cpu time spent up to now is      218.0 secs

     total energy              =    -360.77704462 Ry
     estimated scf accuracy    <       0.00022206 Ry

     total charge of GC-SCF    =      -0.23207745 e
     the Fermi energy          =      -2.58655362 eV
                        (error :       0.18255362 eV)
     electrostatic embedding   =      -0.04844125 Ry
     cavitation energy         =       0.02478978 Ry
     electrolyte free energy   =      -0.00101913 Ry
     correction to one-el term =       7.87339647 Ry

     iteration #  8     ecut=    80.00 Ry     beta= 0.20
     Davidson diagonalization with overlap

---- Real-time Memory Report at c_bands before calling an iterative solver
           458 MiB given to the printing process from OS
             0 MiB allocation reported by mallinfo(arena+hblkhd)
        218778 MiB available memory on the node where the printing process lives
------------------
     ethr =  3.07E-07,  avg # of iterations = 14.5

     negative rho (up, down):  7.811E-04 0.000E+00

     add environment contribution to local potential

     total cpu time spent up to now is      236.2 secs

     total energy              =    -360.78301659 Ry
     estimated scf accuracy    <       0.00062341 Ry

     total charge of GC-SCF    =      -0.27334095 e
     the Fermi energy          =      -2.66999654 eV
                        (error :       0.26599654 eV)
     electrostatic embedding   =      -0.06369234 Ry
     cavitation energy         =       0.02478978 Ry
     electrolyte free energy   =      -0.00124554 Ry
     correction to one-el term =      10.97026008 Ry

     iteration #  9     ecut=    80.00 Ry     beta= 0.20
     Davidson diagonalization with overlap

---- Real-time Memory Report at c_bands before calling an iterative solver
           458 MiB given to the printing process from OS
             0 MiB allocation reported by mallinfo(arena+hblkhd)
        218745 MiB available memory on the node where the printing process lives
------------------
     ethr =  3.07E-07,  avg # of iterations =  8.4

     negative rho (up, down):  7.256E-04 0.000E+00

     add environment contribution to local potential

     total cpu time spent up to now is      250.2 secs

     total energy              =    -360.77945870 Ry
     estimated scf accuracy    <       0.00035049 Ry

     total charge of GC-SCF    =      -0.34950182 e
     the Fermi energy          =      -2.65764266 eV
                        (error :       0.25364266 eV)
     electrostatic embedding   =      -0.06722860 Ry
     cavitation energy         =       0.02478978 Ry
     electrolyte free energy   =      -0.00121731 Ry
     correction to one-el term =      11.84526625 Ry

     iteration # 10     ecut=    80.00 Ry     beta= 0.20
     Davidson diagonalization with overlap

---- Real-time Memory Report at c_bands before calling an iterative solver
           458 MiB given to the printing process from OS
             0 MiB allocation reported by mallinfo(arena+hblkhd)
        218712 MiB available memory on the node where the printing process lives
------------------
     ethr =  3.07E-07,  avg # of iterations =  7.2

     negative rho (up, down):  6.356E-04 0.000E+00

     add environment contribution to local potential

     total cpu time spent up to now is      263.8 secs

     total energy              =    -360.78378908 Ry
     estimated scf accuracy    <       0.00011125 Ry

     total charge of GC-SCF    =      -0.37971289 e
     the Fermi energy          =      -2.61707086 eV
                        (error :       0.21307086 eV)
     electrostatic embedding   =      -0.08129110 Ry
     cavitation energy         =       0.02478978 Ry
     electrolyte free energy   =      -0.00117482 Ry
     correction to one-el term =      14.14954001 Ry

     iteration # 11     ecut=    80.00 Ry     beta= 0.20
     Davidson diagonalization with overlap

---- Real-time Memory Report at c_bands before calling an iterative solver
           458 MiB given to the printing process from OS
             0 MiB allocation reported by mallinfo(arena+hblkhd)
        218707 MiB available memory on the node where the printing process lives
------------------
     ethr =  1.54E-07,  avg # of iterations =  8.5

     negative rho (up, down):  5.195E-04 0.000E+00

     add environment contribution to local potential

     total cpu time spent up to now is      277.3 secs

     total energy              =    -360.78048883 Ry
     estimated scf accuracy    <       0.00008678 Ry

     total charge of GC-SCF    =      -0.51611937 e
     the Fermi energy          =      -2.61147749 eV
                        (error :       0.20747749 eV)
     electrostatic embedding   =      -0.08684858 Ry
     cavitation energy         =       0.02478978 Ry
     electrolyte free energy   =      -0.00117803 Ry
     correction to one-el term =      14.96993172 Ry

     iteration # 12     ecut=    80.00 Ry     beta= 0.20
     Davidson diagonalization with overlap

---- Real-time Memory Report at c_bands before calling an iterative solver
           458 MiB given to the printing process from OS
             0 MiB allocation reported by mallinfo(arena+hblkhd)
        218706 MiB available memory on the node where the printing process lives
------------------
     ethr =  1.20E-07,  avg # of iterations = 17.2

     negative rho (up, down):  4.877E-04 0.000E+00

     add environment contribution to local potential

     total cpu time spent up to now is      296.7 secs

     total energy              =    -360.78318058 Ry
     estimated scf accuracy    <       0.00003420 Ry

     total charge of GC-SCF    =      -0.64418354 e
     the Fermi energy          =      -2.58287790 eV
                        (error :       0.17887790 eV)
     electrostatic embedding   =      -0.11526591 Ry
     cavitation energy         =       0.02478978 Ry
     electrolyte free energy   =      -0.00120634 Ry
     correction to one-el term =      18.61485926 Ry

     iteration # 13     ecut=    80.00 Ry     beta= 0.20
     Davidson diagonalization with overlap

---- Real-time Memory Report at c_bands before calling an iterative solver
           458 MiB given to the printing process from OS
             0 MiB allocation reported by mallinfo(arena+hblkhd)
        218704 MiB available memory on the node where the printing process lives
------------------
     ethr =  4.71E-08,  avg # of iterations = 12.1

     negative rho (up, down):  4.534E-04 0.000E+00

     add environment contribution to local potential

     total cpu time spent up to now is      312.8 secs

     total energy              =    -360.78823205 Ry
     estimated scf accuracy    <       0.00003460 Ry

     total charge of GC-SCF    =      -0.90651907 e
     the Fermi energy          =      -2.56837148 eV
                        (error :       0.16437148 eV)
     electrostatic embedding   =      -0.15116242 Ry
     cavitation energy         =       0.02478978 Ry
     electrolyte free energy   =      -0.00133090 Ry
     correction to one-el term =      22.34573326 Ry

     iteration # 14     ecut=    80.00 Ry     beta= 0.20
     Davidson diagonalization with overlap

---- Real-time Memory Report at c_bands before calling an iterative solver
           458 MiB given to the printing process from OS
             0 MiB allocation reported by mallinfo(arena+hblkhd)
        218706 MiB available memory on the node where the printing process lives
------------------
     ethr =  4.71E-08,  avg # of iterations = 24.7

     negative rho (up, down):  4.468E-04 0.000E+00

     add environment contribution to local potential

     total cpu time spent up to now is      338.5 secs

     total energy              =    -360.79162746 Ry
     estimated scf accuracy    <       0.00003744 Ry

     total charge of GC-SCF    =      -0.91819143 e
     the Fermi energy          =      -2.54792350 eV
                        (error :       0.14392350 eV)
     electrostatic embedding   =      -0.24232699 Ry
     cavitation energy         =       0.02478978 Ry
     electrolyte free energy   =      -0.00171631 Ry
     correction to one-el term =      29.76481293 Ry

     iteration # 15     ecut=    80.00 Ry     beta= 0.20
     Davidson diagonalization with overlap

---- Real-time Memory Report at c_bands before calling an iterative solver
           458 MiB given to the printing process from OS
             0 MiB allocation reported by mallinfo(arena+hblkhd)
        218680 MiB available memory on the node where the printing process lives
------------------
     ethr =  4.71E-08,  avg # of iterations = 17.3

     negative rho (up, down):  4.335E-04 0.000E+00

     add environment contribution to local potential

     total cpu time spent up to now is      358.0 secs

     total energy              =    -360.79541172 Ry
     estimated scf accuracy    <       0.00002051 Ry

     total charge of GC-SCF    =      -0.85982021 e
     the Fermi energy          =      -2.54402961 eV
                        (error :       0.14002961 eV)
     electrostatic embedding   =      -0.24954212 Ry
     cavitation energy         =       0.02478978 Ry
     electrolyte free energy   =      -0.00177092 Ry
     correction to one-el term =      30.31114811 Ry

     iteration # 16     ecut=    80.00 Ry     beta= 0.20
     Davidson diagonalization with overlap

---- Real-time Memory Report at c_bands before calling an iterative solver
           458 MiB given to the printing process from OS
             0 MiB allocation reported by mallinfo(arena+hblkhd)
        218660 MiB available memory on the node where the printing process lives
------------------
     ethr =  2.81E-08,  avg # of iterations = 13.8

     negative rho (up, down):  4.143E-04 0.000E+00

     add environment contribution to local potential

     total cpu time spent up to now is      376.1 secs

     total energy              =    -360.79004727 Ry
     estimated scf accuracy    <       0.00002685 Ry

     total charge of GC-SCF    =      -0.91110205 e
     the Fermi energy          =      -2.54359687 eV
                        (error :       0.13959687 eV)
     electrostatic embedding   =      -0.22711886 Ry
     cavitation energy         =       0.02478978 Ry
     electrolyte free energy   =      -0.00166267 Ry
     correction to one-el term =      28.71518418 Ry

     iteration # 17     ecut=    80.00 Ry     beta= 0.20
     Davidson diagonalization with overlap

---- Real-time Memory Report at c_bands before calling an iterative solver
           458 MiB given to the printing process from OS
             0 MiB allocation reported by mallinfo(arena+hblkhd)
        218666 MiB available memory on the node where the printing process lives
------------------
     ethr =  2.81E-08,  avg # of iterations = 12.4

     negative rho (up, down):  4.066E-04 0.000E+00

     add environment contribution to local potential

     total cpu time spent up to now is      392.8 secs

     total energy              =    -360.80262459 Ry
     estimated scf accuracy    <       0.00002532 Ry

     total charge of GC-SCF    =      -1.28764290 e
     the Fermi energy          =      -2.53886166 eV
                        (error :       0.13486166 eV)
     electrostatic embedding   =      -0.24736285 Ry
     cavitation energy         =       0.02478978 Ry
     electrolyte free energy   =      -0.00176310 Ry
     correction to one-el term =      30.17104748 Ry

     iteration # 18     ecut=    80.00 Ry     beta= 0.20
     Davidson diagonalization with overlap

---- Real-time Memory Report at c_bands before calling an iterative solver
           458 MiB given to the printing process from OS
             0 MiB allocation reported by mallinfo(arena+hblkhd)
        218676 MiB available memory on the node where the printing process lives
------------------
     ethr =  2.81E-08,  avg # of iterations = 19.0

     negative rho (up, down):  3.925E-04 0.000E+00

     add environment contribution to local potential

     total cpu time spent up to now is      414.7 secs

     total energy              =    -360.79626358 Ry
     estimated scf accuracy    <       0.00001222 Ry

     total charge of GC-SCF    =      -1.47022694 e
     the Fermi energy          =      -2.50637887 eV
                        (error :       0.10237887 eV)
     electrostatic embedding   =      -0.42417853 Ry
     cavitation energy         =       0.02478978 Ry
     electrolyte free energy   =      -0.00274685 Ry
     correction to one-el term =      40.71890946 Ry

     iteration # 19     ecut=    80.00 Ry     beta= 0.20
     Davidson diagonalization with overlap

---- Real-time Memory Report at c_bands before calling an iterative solver
           458 MiB given to the printing process from OS
             0 MiB allocation reported by mallinfo(arena+hblkhd)
        218679 MiB available memory on the node where the printing process lives
------------------
     ethr =  1.66E-08,  avg # of iterations = 15.8

     negative rho (up, down):  3.574E-04 0.000E+00

     add environment contribution to local potential

     total cpu time spent up to now is      434.4 secs

     total energy              =    -360.79651175 Ry
     estimated scf accuracy    <       0.00000843 Ry

     total charge of GC-SCF    =      -1.51081701 e
     the Fermi energy          =      -2.48581228 eV
                        (error :       0.08181228 eV)
     electrostatic embedding   =      -0.53079543 Ry
     cavitation energy         =       0.02478978 Ry
     electrolyte free energy   =      -0.00342930 Ry
     correction to one-el term =      45.98951384 Ry

     iteration # 20     ecut=    80.00 Ry     beta= 0.20
     Davidson diagonalization with overlap

---- Real-time Memory Report at c_bands before calling an iterative solver
           458 MiB given to the printing process from OS
             0 MiB allocation reported by mallinfo(arena+hblkhd)
        218661 MiB available memory on the node where the printing process lives
------------------
     ethr =  1.15E-08,  avg # of iterations = 15.1

     negative rho (up, down):  3.459E-04 0.000E+00

     add environment contribution to local potential

     total cpu time spent up to now is      453.4 secs

     total energy              =    -360.80472579 Ry
     estimated scf accuracy    <       0.00000786 Ry

     total charge of GC-SCF    =      -1.78073210 e
     the Fermi energy          =      -2.48208316 eV
                        (error :       0.07808316 eV)
     electrostatic embedding   =      -0.55570571 Ry
     cavitation energy         =       0.02478978 Ry
     electrolyte free energy   =      -0.00358046 Ry
     correction to one-el term =      47.12379889 Ry

     iteration # 21     ecut=    80.00 Ry     beta= 0.20
     Davidson diagonalization with overlap

---- Real-time Memory Report at c_bands before calling an iterative solver
           458 MiB given to the printing process from OS
             0 MiB allocation reported by mallinfo(arena+hblkhd)
        218651 MiB available memory on the node where the printing process lives
------------------
     ethr =  1.07E-08,  avg # of iterations = 15.8

     negative rho (up, down):  3.442E-04 0.000E+00

     add environment contribution to local potential

     total cpu time spent up to now is      474.7 secs

     total energy              =    -360.80039994 Ry
     estimated scf accuracy    <       0.00000674 Ry

     total charge of GC-SCF    =      -1.71458678 e
     the Fermi energy          =      -2.45199829 eV
                        (error :       0.04799829 eV)
     electrostatic embedding   =      -0.74047611 Ry
     cavitation energy         =       0.02478978 Ry
     electrolyte free energy   =      -0.00493292 Ry
     correction to one-el term =      54.92684161 Ry

     iteration # 22     ecut=    80.00 Ry     beta= 0.20
     Davidson diagonalization with overlap

---- Real-time Memory Report at c_bands before calling an iterative solver
           458 MiB given to the printing process from OS
             0 MiB allocation reported by mallinfo(arena+hblkhd)
        218640 MiB available memory on the node where the printing process lives
------------------
     ethr =  9.14E-09,  avg # of iterations = 12.0

     negative rho (up, down):  3.298E-04 0.000E+00

     add environment contribution to local potential

     total cpu time spent up to now is      492.9 secs

     total energy              =    -360.80493264 Ry
     estimated scf accuracy    <       0.00000645 Ry

     total charge of GC-SCF    =      -1.94332825 e
     the Fermi energy          =      -2.45249884 eV
                        (error :       0.04849884 eV)
     electrostatic embedding   =      -0.69186712 Ry
     cavitation energy         =       0.02478978 Ry
     electrolyte free energy   =      -0.00455964 Ry
     correction to one-el term =      52.97626105 Ry

     iteration # 23     ecut=    80.00 Ry     beta= 0.20
     Davidson diagonalization with overlap

---- Real-time Memory Report at c_bands before calling an iterative solver
           458 MiB given to the printing process from OS
             0 MiB allocation reported by mallinfo(arena+hblkhd)
        218625 MiB available memory on the node where the printing process lives
------------------
     ethr =  8.73E-09,  avg # of iterations = 15.5

     negative rho (up, down):  3.275E-04 0.000E+00

     add environment contribution to local potential

     total cpu time spent up to now is      514.2 secs

     total energy              =    -360.80048808 Ry
     estimated scf accuracy    <       0.00000378 Ry

     total charge of GC-SCF    =      -1.87315841 e
     the Fermi energy          =      -2.42945754 eV
                        (error :       0.02545754 eV)
     electrostatic embedding   =      -0.86236806 Ry
     cavitation energy         =       0.02478978 Ry
     electrolyte free energy   =      -0.00591615 Ry
     correction to one-el term =      59.49915690 Ry

     iteration # 24     ecut=    80.00 Ry     beta= 0.20
     Davidson diagonalization with overlap

---- Real-time Memory Report at c_bands before calling an iterative solver
           458 MiB given to the printing process from OS
             0 MiB allocation reported by mallinfo(arena+hblkhd)
        218623 MiB available memory on the node where the printing process lives
------------------
     ethr =  5.11E-09,  avg # of iterations = 12.5

     negative rho (up, down):  3.244E-04 0.000E+00

     add environment contribution to local potential

     total cpu time spent up to now is      531.4 secs

     total energy              =    -360.80320392 Ry
     estimated scf accuracy    <       0.00000257 Ry

     total charge of GC-SCF    =      -2.05257847 e
     the Fermi energy          =      -2.43397284 eV
                        (error :       0.02997284 eV)
     electrostatic embedding   =      -0.80736048 Ry
     cavitation energy         =       0.02478978 Ry
     electrolyte free energy   =      -0.00546341 Ry
     correction to one-el term =      57.46595106 Ry

     iteration # 25     ecut=    80.00 Ry     beta= 0.20
     Davidson diagonalization with overlap

---- Real-time Memory Report at c_bands before calling an iterative solver
           458 MiB given to the printing process from OS
             0 MiB allocation reported by mallinfo(arena+hblkhd)
        218625 MiB available memory on the node where the printing process lives
------------------
     ethr =  3.47E-09,  avg # of iterations = 26.5

     negative rho (up, down):  3.290E-04 0.000E+00

     add environment contribution to local potential

     total cpu time spent up to now is      559.9 secs

     total energy              =    -360.79940081 Ry
     estimated scf accuracy    <       0.00000101 Ry

     total charge of GC-SCF    =      -2.03658960 e
     the Fermi energy          =      -2.41252431 eV
                        (error :       0.00852431 eV)
     electrostatic embedding   =      -0.94709777 Ry
     cavitation energy         =       0.02478978 Ry
     electrolyte free energy   =      -0.00666388 Ry
     correction to one-el term =      62.44286498 Ry

     iteration # 26     ecut=    80.00 Ry     beta= 0.20
     Davidson diagonalization with overlap

---- Real-time Memory Report at c_bands before calling an iterative solver
           458 MiB given to the printing process from OS
             0 MiB allocation reported by mallinfo(arena+hblkhd)
        218623 MiB available memory on the node where the printing process lives
------------------
     ethr =  1.37E-09,  avg # of iterations = 14.4

     negative rho (up, down):  3.206E-04 0.000E+00

     add environment contribution to local potential

     total cpu time spent up to now is      579.1 secs

     total energy              =    -360.79990775 Ry
     estimated scf accuracy    <       0.00000206 Ry

     total charge of GC-SCF    =      -2.10630717 e
     the Fermi energy          =      -2.41413652 eV
                        (error :       0.01013652 eV)
     electrostatic embedding   =      -0.93133331 Ry
     cavitation energy         =       0.02478978 Ry
     electrolyte free energy   =      -0.00653540 Ry
     correction to one-el term =      61.83196025 Ry

     iteration # 27     ecut=    80.00 Ry     beta= 0.20
     Davidson diagonalization with overlap

---- Real-time Memory Report at c_bands before calling an iterative solver
           458 MiB given to the printing process from OS
             0 MiB allocation reported by mallinfo(arena+hblkhd)
        218622 MiB available memory on the node where the printing process lives
------------------
     ethr =  1.37E-09,  avg # of iterations = 14.9

     negative rho (up, down):  3.068E-04 0.000E+00

     add environment contribution to local potential

     total cpu time spent up to now is      598.4 secs

     total energy              =    -360.79936991 Ry
     estimated scf accuracy    <       0.00000043 Ry

     total charge of GC-SCF    =      -2.08902661 e
     the Fermi energy          =      -2.40654151 eV
                        (error :       0.00254151 eV)
     electrostatic embedding   =      -0.99000830 Ry
     cavitation energy         =       0.02478978 Ry
     electrolyte free energy   =      -0.00706147 Ry
     correction to one-el term =      63.86229729 Ry

     iteration # 28     ecut=    80.00 Ry     beta= 0.20
     Davidson diagonalization with overlap

---- Real-time Memory Report at c_bands before calling an iterative solver
           458 MiB given to the printing process from OS
             0 MiB allocation reported by mallinfo(arena+hblkhd)
        218622 MiB available memory on the node where the printing process lives
------------------
     ethr =  5.82E-10,  avg # of iterations = 15.2

     negative rho (up, down):  3.055E-04 0.000E+00

     add environment contribution to local potential

     total cpu time spent up to now is      617.9 secs

     total energy              =    -360.79930313 Ry
     estimated scf accuracy    <       0.00000060 Ry

     total charge of GC-SCF    =      -2.10150125 e
     the Fermi energy          =      -2.40778731 eV
                        (error :       0.00378731 eV)
     electrostatic embedding   =      -0.97575780 Ry
     cavitation energy         =       0.02478978 Ry
     electrolyte free energy   =      -0.00693153 Ry
     correction to one-el term =      63.37666392 Ry

     iteration # 29     ecut=    80.00 Ry     beta= 0.20
     Davidson diagonalization with overlap

---- Real-time Memory Report at c_bands before calling an iterative solver
           458 MiB given to the printing process from OS
             0 MiB allocation reported by mallinfo(arena+hblkhd)
        218624 MiB available memory on the node where the printing process lives
------------------
     ethr =  5.82E-10,  avg # of iterations =  9.0

     negative rho (up, down):  3.055E-04 0.000E+00

     add environment contribution to local potential

     total cpu time spent up to now is      634.0 secs

     total energy              =    -360.79935863 Ry
     estimated scf accuracy    <       0.00000028 Ry

     total charge of GC-SCF    =      -2.12243454 e
     the Fermi energy          =      -2.40627860 eV
                        (error :       0.00227860 eV)
     electrostatic embedding   =      -0.98667559 Ry
     cavitation energy         =       0.02478978 Ry
     electrolyte free energy   =      -0.00703052 Ry
     correction to one-el term =      63.75671965 Ry

     iteration # 30     ecut=    80.00 Ry     beta= 0.20
     Davidson diagonalization with overlap

---- Real-time Memory Report at c_bands before calling an iterative solver
           458 MiB given to the printing process from OS
             0 MiB allocation reported by mallinfo(arena+hblkhd)
        218612 MiB available memory on the node where the printing process lives
------------------
     ethr =  3.80E-10,  avg # of iterations = 12.5

     negative rho (up, down):  3.031E-04 0.000E+00

     total cpu time spent up to now is      644.5 secs

     End of self-consistent calculation

          k = 0.0000 0.0000 0.0000 (221585 PWs)   bands (ev):

   -49.5237 -49.5219 -49.5215 -49.5215 -49.5157 -49.5140 -49.5136 -49.5135
   -48.9785 -48.9782 -48.9775 -48.9764 -48.9702 -48.9700 -48.9693 -48.9682
   -48.8498 -48.8462 -48.8454 -48.8414 -48.8412 -48.8380 -48.8373 -48.8341
    -5.7361  -5.0283  -4.5518  -4.5518  -4.0044  -3.8134  -3.8133  -2.9239
    -2.7897  -2.7892  -2.6607  -2.5480  -2.0670  -1.9998  -1.9994  -1.9063
    -1.8598  -1.8481  -1.6083  -1.6077  -1.5145  -1.5145  -0.9077  -0.8558
    -0.6930  -0.6926  -0.6395  -0.2629  -0.0916  -0.0214

     occupation numbers 
     1.0000   1.0000   1.0000   1.0000   1.0000   1.0000   1.0000   1.0000
     1.0000   1.0000   1.0000   1.0000   1.0000   1.0000   1.0000   1.0000
     1.0000   1.0000   1.0000   1.0000   1.0000   1.0000   1.0000   1.0000
     1.0000   1.0000   1.0000   1.0000   1.0000   1.0000   1.0000   1.0000
     1.0030   1.0030   1.0512   1.0439   0.0000   0.0000   0.0000   0.0000
     0.0000   0.0000   0.0000   0.0000   0.0000   0.0000   0.0000   0.0000
     0.0000   0.0000   0.0000   0.0000   0.0000   0.0000

          k = 0.0000 0.0875 0.0000 (221558 PWs)   bands (ev):

   -49.5237 -49.5219 -49.5215 -49.5215 -49.5157 -49.5140 -49.5136 -49.5135
   -48.9785 -48.9782 -48.9775 -48.9764 -48.9702 -48.9700 -48.9693 -48.9682
   -48.8497 -48.8467 -48.8448 -48.8415 -48.8411 -48.8384 -48.8369 -48.8342
    -5.7119  -5.0035  -4.8643  -4.2212  -4.1025  -3.9783  -3.4510  -3.0900
    -2.9000  -2.6392  -2.5280  -2.5143  -2.0754  -2.0449  -2.0230  -2.0176
    -1.8922  -1.8455  -1.7625  -1.5849  -1.4944  -1.4312  -1.0418  -0.8992
    -0.8493  -0.6318  -0.4248  -0.2139  -0.0804  -0.0545

     occupation numbers 
     1.0000   1.0000   1.0000   1.0000   1.0000   1.0000   1.0000   1.0000
     1.0000   1.0000   1.0000   1.0000   1.0000   1.0000   1.0000   1.0000
     1.0000   1.0000   1.0000   1.0000   1.0000   1.0000   1.0000   1.0000
     1.0000   1.0000   1.0000   1.0000   1.0000   1.0000   1.0000   1.0000
     1.0001   1.0659   0.9976   0.9548   0.0000   0.0000   0.0000   0.0000
     0.0000   0.0000   0.0000   0.0000   0.0000   0.0000   0.0000   0.0000
     0.0000   0.0000   0.0000   0.0000   0.0000   0.0000

          k = 0.0000 0.1750 0.0000 (221554 PWs)   bands (ev):

   -49.5237 -49.5219 -49.5215 -49.5215 -49.5157 -49.5140 -49.5136 -49.5135
   -48.9784 -48.9782 -48.9775 -48.9765 -48.9701 -48.9700 -48.9693 -48.9683
   -48.8495 -48.8474 -48.8440 -48.8418 -48.8410 -48.8390 -48.8363 -48.8344
    -5.6392  -5.1303  -4.9292  -4.4122  -3.9001  -3.7793  -3.3626  -3.0448
    -2.8316  -2.5759  -2.4688  -2.4390  -2.4033  -2.2042  -2.1203  -1.9795
    -1.8933  -1.8518  -1.6685  -1.6513  -1.5888  -1.3648  -1.3630  -0.8777
    -0.8705  -0.6653  -0.1118  -0.1115  -0.0591  -0.0429

     occupation numbers 
     1.0000   1.0000   1.0000   1.0000   1.0000   1.0000   1.0000   1.0000
     1.0000   1.0000   1.0000   1.0000   1.0000   1.0000   1.0000   1.0000
     1.0000   1.0000   1.0000   1.0000   1.0000   1.0000   1.0000   1.0000
     1.0000   1.0000   1.0000   1.0000   1.0000   1.0000   1.0000   1.0000
     1.0008   1.0774   0.7529   0.5910   0.3994   0.0046   0.0002   0.0000
     0.0000   0.0000   0.0000   0.0000   0.0000   0.0000   0.0000   0.0000
     0.0000   0.0000   0.0000   0.0000   0.0000   0.0000

          k = 0.0000 0.2624 0.0000 (221568 PWs)   bands (ev):

   -49.5237 -49.5219 -49.5215 -49.5215 -49.5157 -49.5140 -49.5135 -49.5135
   -48.9784 -48.9783 -48.9775 -48.9765 -48.9701 -48.9701 -48.9693 -48.9683
   -48.8493 -48.8479 -48.8434 -48.8422 -48.8408 -48.8393 -48.8358 -48.8347
    -5.5180  -5.3484  -4.8054  -4.6326  -3.7705  -3.5905  -3.3419  -2.8907
    -2.6890  -2.6095  -2.5580  -2.4753  -2.3741  -2.3462  -2.2520  -2.1784
    -1.8739  -1.7911  -1.7361  -1.7204  -1.4692  -1.4123  -1.3191  -0.9184
    -0.8558  -0.8521  -0.1254  -0.0044   0.0184   0.0790

     occupation numbers 
     1.0000   1.0000   1.0000   1.0000   1.0000   1.0000   1.0000   1.0000
     1.0000   1.0000   1.0000   1.0000   1.0000   1.0000   1.0000   1.0000
     1.0000   1.0000   1.0000   1.0000   1.0000   1.0000   1.0000   1.0000
     1.0000   1.0000   1.0000   1.0000   1.0000   1.0000   1.0000   1.0001
     1.0330   1.0811   1.0597   0.7862   0.2662   0.1671   0.0195   0.0019
     0.0000   0.0000   0.0000   0.0000   0.0000   0.0000   0.0000   0.0000
     0.0000   0.0000   0.0000   0.0000   0.0000   0.0000

          k = 0.0909 0.0000 0.0000 (221718 PWs)   bands (ev):

   -49.5236 -49.5218 -49.5214 -49.5213 -49.5159 -49.5141 -49.5137 -49.5137
   -48.9783 -48.9780 -48.9774 -48.9763 -48.9703 -48.9702 -48.9695 -48.9684
   -48.8496 -48.8460 -48.8452 -48.8414 -48.8412 -48.8382 -48.8374 -48.8343
    -5.7098  -5.0011  -4.5249  -4.5248  -3.9747  -3.7853  -3.7852  -3.1353
    -2.8920  -2.7577  -2.7573  -2.4615  -2.1731  -2.1729  -2.0164  -1.8254
    -1.8149  -1.6990  -1.5871  -1.5871  -1.5767  -1.5760  -0.9237  -0.8215
    -0.6436  -0.6432  -0.6060  -0.2280  -0.0565   0.0135

     occupation numbers 
     1.0000   1.0000   1.0000   1.0000   1.0000   1.0000   1.0000   1.0000
     1.0000   1.0000   1.0000   1.0000   1.0000   1.0000   1.0000   1.0000
     1.0000   1.0000   1.0000   1.0000   1.0000   1.0000   1.0000   1.0000
     1.0000   1.0000   1.0000   1.0000   1.0000   1.0000   1.0000   1.0000
     1.0001   1.0073   1.0074   0.7142   0.0016   0.0016   0.0000   0.0000
     0.0000   0.0000   0.0000   0.0000   0.0000   0.0000   0.0000   0.0000
     0.0000   0.0000   0.0000   0.0000   0.0000   0.0000

          k = 0.0909 0.0875 0.0000 (221669 PWs)   bands (ev):

   -49.5236 -49.5218 -49.5214 -49.5213 -49.5159 -49.5141 -49.5137 -49.5137
   -48.9783 -48.9780 -48.9774 -48.9763 -48.9703 -48.9702 -48.9695 -48.9684
   -48.8496 -48.8465 -48.8447 -48.8414 -48.8413 -48.8386 -48.8370 -48.8343
    -5.6856  -4.9763  -4.8375  -4.1942  -4.0743  -3.9486  -3.4226  -3.1129
    -3.0589  -2.8680  -2.4808  -2.4394  -2.3914  -1.9983  -1.9905  -1.9899
    -1.8121  -1.7356  -1.7327  -1.6816  -1.4701  -1.3979  -1.0089  -0.9222
    -0.8545  -0.5980  -0.4083  -0.1791  -0.0507  -0.0195

     occupation numbers 
     1.0000   1.0000   1.0000   1.0000   1.0000   1.0000   1.0000   1.0000
     1.0000   1.0000   1.0000   1.0000   1.0000   1.0000   1.0000   1.0000
     1.0000   1.0000   1.0000   1.0000   1.0000   1.0000   1.0000   1.0000
     1.0000   1.0000   1.0000   1.0000   1.0000   1.0000   1.0000   1.0000
     1.0000   1.0002   0.8137   0.5930   0.3420   0.0000   0.0000   0.0000
     0.0000   0.0000   0.0000   0.0000   0.0000   0.0000   0.0000   0.0000
     0.0000   0.0000   0.0000   0.0000   0.0000   0.0000

          k = 0.0909 0.1750 0.0000 (221668 PWs)   bands (ev):

   -49.5236 -49.5218 -49.5214 -49.5213 -49.5159 -49.5141 -49.5137 -49.5137
   -48.9783 -48.9781 -48.9774 -48.9763 -48.9703 -48.9702 -48.9695 -48.9684
   -48.8494 -48.8472 -48.8439 -48.8416 -48.8411 -48.8391 -48.8364 -48.8346
    -5.6129  -5.1037  -4.9019  -4.3847  -3.8704  -3.7513  -3.3323  -3.0462
    -3.0156  -2.7993  -2.6022  -2.4050  -2.3739  -2.3724  -1.9842  -1.9475
    -1.8598  -1.8024  -1.6392  -1.6309  -1.4194  -1.3320  -1.3309  -0.9862
    -0.9241  -0.6306  -0.1821  -0.0773  -0.0265  -0.0133

     occupation numbers 
     1.0000   1.0000   1.0000   1.0000   1.0000   1.0000   1.0000   1.0000
     1.0000   1.0000   1.0000   1.0000   1.0000   1.0000   1.0000   1.0000
     1.0000   1.0000   1.0000   1.0000   1.0000   1.0000   1.0000   1.0000
     1.0000   1.0000   1.0000   1.0000   1.0000   1.0000   1.0000   1.0000
     1.0000   1.0022   1.0828   0.4083   0.2653   0.2592   0.0000   0.0000
     0.0000   0.0000   0.0000   0.0000   0.0000   0.0000   0.0000   0.0000
     0.0000   0.0000   0.0000   0.0000   0.0000   0.0000

          k = 0.0909 0.2624 0.0000 (221625 PWs)   bands (ev):

   -49.5236 -49.5218 -49.5214 -49.5214 -49.5159 -49.5141 -49.5137 -49.5137
   -48.9782 -48.9781 -48.9774 -48.9763 -48.9703 -48.9702 -48.9695 -48.9684
   -48.8492 -48.8477 -48.8432 -48.8420 -48.8410 -48.8395 -48.8359 -48.8348
    -5.4916  -5.3219  -4.7781  -4.6052  -3.7406  -3.5604  -3.3132  -2.9367
    -2.8603  -2.7870  -2.6574  -2.5795  -2.5251  -2.2684  -2.1469  -2.1302
    -1.8770  -1.8157  -1.5526  -1.4638  -1.4372  -1.3793  -1.2879  -0.9893
    -0.9454  -0.8850  -0.0944   0.0190   0.0274   0.0527

     occupation numbers 
     1.0000   1.0000   1.0000   1.0000   1.0000   1.0000   1.0000   1.0000
     1.0000   1.0000   1.0000   1.0000   1.0000   1.0000   1.0000   1.0000
     1.0000   1.0000   1.0000   1.0000   1.0000   1.0000   1.0000   1.0000
     1.0000   1.0000   1.0000   1.0000   1.0000   1.0000   1.0000   1.0000
     1.0003   1.0032   1.0535   1.0794   0.9894   0.0303   0.0006   0.0003
     0.0000   0.0000   0.0000   0.0000   0.0000   0.0000   0.0000   0.0000
     0.0000   0.0000   0.0000   0.0000   0.0000   0.0000

          k = 0.1818 0.0000 0.0000 (221744 PWs)   bands (ev):

   -49.5231 -49.5213 -49.5209 -49.5209 -49.5164 -49.5146 -49.5142 -49.5142
   -48.9778 -48.9775 -48.9769 -48.9758 -48.9708 -48.9707 -48.9700 -48.9689
   -48.8491 -48.8455 -48.8447 -48.8419 -48.8408 -48.8387 -48.8379 -48.8347
    -5.6310  -4.9195  -4.4441  -4.4441  -3.8859  -3.7013  -3.7012  -3.6220
    -2.9048  -2.7967  -2.6621  -2.6617  -2.5248  -2.5246  -1.8743  -1.8315
    -1.8315  -1.7222  -1.7154  -1.4818  -1.4811  -1.4362  -0.7867  -0.7186
    -0.6651  -0.6649  -0.5059  -0.1232   0.0487   0.1178

     occupation numbers 
     1.0000   1.0000   1.0000   1.0000   1.0000   1.0000   1.0000   1.0000
     1.0000   1.0000   1.0000   1.0000   1.0000   1.0000   1.0000   1.0000
     1.0000   1.0000   1.0000   1.0000   1.0000   1.0000   1.0000   1.0000
     1.0000   1.0000   1.0000   1.0000   1.0000   1.0000   1.0000   1.0000
     1.0000   1.0024   1.0503   1.0506   0.9884   0.9878   0.0000   0.0000
     0.0000   0.0000   0.0000   0.0000   0.0000   0.0000   0.0000   0.0000
     0.0000   0.0000   0.0000   0.0000   0.0000   0.0000

          k = 0.1818 0.0875 0.0000 (221735 PWs)   bands (ev):

   -49.5231 -49.5213 -49.5209 -49.5209 -49.5164 -49.5146 -49.5142 -49.5142
   -48.9778 -48.9775 -48.9769 -48.9758 -48.9708 -48.9707 -48.9700 -48.9689
   -48.8491 -48.8461 -48.8442 -48.8418 -48.8409 -48.8391 -48.8375 -48.8348
    -5.6068  -4.8947  -4.7574  -4.1134  -3.9901  -3.8597  -3.5986  -3.3379
    -2.9656  -2.8815  -2.8030  -2.7724  -2.3805  -2.2524  -2.0496  -1.8909
    -1.8479  -1.7120  -1.6440  -1.5762  -1.4250  -1.2982  -0.9377  -0.9105
    -0.8031  -0.4967  -0.4359  -0.0747   0.0376   0.0856

     occupation numbers 
     1.0000   1.0000   1.0000   1.0000   1.0000   1.0000   1.0000   1.0000
     1.0000   1.0000   1.0000   1.0000   1.0000   1.0000   1.0000   1.0000
     1.0000   1.0000   1.0000   1.0000   1.0000   1.0000   1.0000   1.0000
     1.0000   1.0000   1.0000   1.0000   1.0000   1.0000   1.0000   1.0000
     1.0000   1.0001   1.0020   1.0049   0.2927   0.0198   0.0000   0.0000
     0.0000   0.0000   0.0000   0.0000   0.0000   0.0000   0.0000   0.0000
     0.0000   0.0000   0.0000   0.0000   0.0000   0.0000

          k = 0.1818 0.1750 0.0000 (221735 PWs)   bands (ev):

   -49.5231 -49.5213 -49.5209 -49.5209 -49.5164 -49.5146 -49.5142 -49.5142
   -48.9778 -48.9776 -48.9769 -48.9758 -48.9708 -48.9707 -48.9700 -48.9689
   -48.8489 -48.8467 -48.8434 -48.8417 -48.8412 -48.8396 -48.8369 -48.8350
    -5.5340  -5.0240  -4.8202  -4.3025  -3.7813  -3.6677  -3.5288  -3.2417
    -3.0476  -2.9282  -2.8121  -2.7028  -2.3504  -2.3031  -2.2802  -1.8656
    -1.7703  -1.7595  -1.5517  -1.4008  -1.3546  -1.2392  -1.2296  -1.1914
    -0.8721  -0.5267  -0.3262  -0.0520   0.0263   0.0706

     occupation numbers 
     1.0000   1.0000   1.0000   1.0000   1.0000   1.0000   1.0000   1.0000
     1.0000   1.0000   1.0000   1.0000   1.0000   1.0000   1.0000   1.0000
     1.0000   1.0000   1.0000   1.0000   1.0000   1.0000   1.0000   1.0000
     1.0000   1.0000   1.0000   1.0000   1.0000   1.0000   1.0000   1.0000
     1.0000   1.0000   1.0015   1.0256   0.1801   0.0699   0.0408   0.0000
     0.0000   0.0000   0.0000   0.0000   0.0000   0.0000   0.0000   0.0000
     0.0000   0.0000   0.0000   0.0000   0.0000   0.0000

          k = 0.1818 0.2624 0.0000 (221799 PWs)   bands (ev):

   -49.5231 -49.5213 -49.5209 -49.5209 -49.5164 -49.5146 -49.5142 -49.5142
   -48.9777 -48.9776 -48.9769 -48.9758 -48.9708 -48.9707 -48.9700 -48.9689
   -48.8487 -48.8472 -48.8428 -48.8416 -48.8415 -48.8400 -48.8364 -48.8353
    -5.4126  -5.2426  -4.6963  -4.5232  -3.6512  -3.4704  -3.4129  -3.2519
    -3.2274  -2.7697  -2.6978  -2.5629  -2.5413  -2.4898  -2.4266  -2.0525
    -1.6498  -1.6144  -1.4019  -1.4009  -1.3418  -1.2803  -1.1948  -1.1770
    -1.0183  -0.7852  -0.2766  -0.1926  -0.0019   0.1225

     occupation numbers 
     1.0000   1.0000   1.0000   1.0000   1.0000   1.0000   1.0000   1.0000
     1.0000   1.0000   1.0000   1.0000   1.0000   1.0000   1.0000   1.0000
     1.0000   1.0000   1.0000   1.0000   1.0000   1.0000   1.0000   1.0000
     1.0000   1.0000   1.0000   1.0000   1.0000   1.0000   1.0000   1.0000
     1.0000   1.0053   1.0281   1.0659   1.0306   0.8560   0.5227   0.0000
     0.0000   0.0000   0.0000   0.0000   0.0000   0.0000   0.0000   0.0000
     0.0000   0.0000   0.0000   0.0000   0.0000   0.0000

          k = 0.2727 0.0000 0.0000 (221756 PWs)   bands (ev):

   -49.5223 -49.5206 -49.5202 -49.5201 -49.5171 -49.5153 -49.5149 -49.5149
   -48.9771 -48.9768 -48.9761 -48.9750 -48.9716 -48.9714 -48.9708 -48.9697
   -48.8483 -48.8448 -48.8440 -48.8427 -48.8401 -48.8394 -48.8387 -48.8354
    -5.4998  -4.7839  -4.3101  -4.3101  -4.0622  -3.7387  -3.5623  -3.5622
    -3.3307  -2.9071  -2.9069  -2.6385  -2.5035  -2.5031  -2.2292  -2.1651
    -2.1651  -1.5503  -1.5499  -1.3244  -1.3238  -1.1821  -0.9298  -0.9298
    -0.5663  -0.5473  -0.3401   0.0514   0.1445   0.2240

     occupation numbers 
     1.0000   1.0000   1.0000   1.0000   1.0000   1.0000   1.0000   1.0000
     1.0000   1.0000   1.0000   1.0000   1.0000   1.0000   1.0000   1.0000
     1.0000   1.0000   1.0000   1.0000   1.0000   1.0000   1.0000   1.0000
     1.0000   1.0000   1.0000   1.0000   1.0000   1.0000   1.0000   1.0000
     1.0000   1.0000   1.0000   1.0664   0.9146   0.9128   0.0101   0.0012
     0.0012   0.0000   0.0000   0.0000   0.0000   0.0000   0.0000   0.0000
     0.0000   0.0000   0.0000   0.0000   0.0000   0.0000

          k = 0.2727 0.0875 0.0000 (221778 PWs)   bands (ev):

   -49.5223 -49.5206 -49.5202 -49.5201 -49.5171 -49.5153 -49.5149 -49.5149
   -48.9770 -48.9768 -48.9761 -48.9750 -48.9716 -48.9714 -48.9708 -48.9697
   -48.8483 -48.8453 -48.8435 -48.8426 -48.8402 -48.8399 -48.8382 -48.8354
    -5.4755  -4.7590  -4.6242  -4.0383  -3.9794  -3.8506  -3.7123  -3.3067
    -3.2083  -3.1981  -2.8108  -2.6139  -2.6024  -2.4183  -2.2136  -2.2026
    -1.8450  -1.7265  -1.5456  -1.4975  -1.2434  -1.1561  -1.1323  -0.7479
    -0.6254  -0.5793  -0.3286  -0.1033  -0.0910   0.0991

     occupation numbers 
     1.0000   1.0000   1.0000   1.0000   1.0000   1.0000   1.0000   1.0000
     1.0000   1.0000   1.0000   1.0000   1.0000   1.0000   1.0000   1.0000
     1.0000   1.0000   1.0000   1.0000   1.0000   1.0000   1.0000   1.0000
     1.0000   1.0000   1.0000   1.0000   1.0000   1.0000   1.0000   1.0000
     1.0000   1.0000   1.0015   1.0796   1.0828   0.4775   0.0063   0.0044
     0.0000   0.0000   0.0000   0.0000   0.0000   0.0000   0.0000   0.0000
     0.0000   0.0000   0.0000   0.0000   0.0000   0.0000

          k = 0.2727 0.1750 0.0000 (221876 PWs)   bands (ev):

   -49.5223 -49.5206 -49.5202 -49.5201 -49.5171 -49.5153 -49.5149 -49.5149
   -48.9770 -48.9768 -48.9761 -48.9750 -48.9716 -48.9715 -48.9708 -48.9697
   -48.8481 -48.8459 -48.8427 -48.8425 -48.8405 -48.8404 -48.8376 -48.8357
    -5.4025  -4.8915  -4.6845  -4.1660  -3.9666  -3.6336  -3.5291  -3.4673
    -3.2345  -3.0920  -2.7833  -2.7416  -2.5426  -2.1500  -2.1334  -2.1278
    -2.1232  -1.6304  -1.5928  -1.4080  -1.3822  -1.0869  -1.0831  -1.0610
    -0.8770  -0.4205  -0.3571  -0.3536  -0.1964   0.1874

     occupation numbers 
     1.0000   1.0000   1.0000   1.0000   1.0000   1.0000   1.0000   1.0000
     1.0000   1.0000   1.0000   1.0000   1.0000   1.0000   1.0000   1.0000
     1.0000   1.0000   1.0000   1.0000   1.0000   1.0000   1.0000   1.0000
     1.0000   1.0000   1.0000   1.0000   1.0000   1.0000   1.0000   1.0000
     1.0000   1.0000   1.0036   1.0109   1.0335   0.0007   0.0004   0.0003
     0.0002   0.0000   0.0000   0.0000   0.0000   0.0000   0.0000   0.0000
     0.0000   0.0000   0.0000   0.0000   0.0000   0.0000

          k = 0.2727 0.2624 0.0000 (221844 PWs)   bands (ev):

   -49.5223 -49.5206 -49.5201 -49.5201 -49.5171 -49.5153 -49.5149 -49.5149
   -48.9769 -48.9769 -48.9761 -48.9750 -48.9715 -48.9715 -48.9708 -48.9697
   -48.8479 -48.8464 -48.8423 -48.8421 -48.8409 -48.8408 -48.8371 -48.8360
    -5.2809  -5.1105  -4.5603  -4.3869  -3.8473  -3.6806  -3.5029  -3.3212
    -3.1149  -3.0857  -2.9491  -2.6203  -2.4058  -2.3417  -2.2630  -1.9932
    -1.8966  -1.8349  -1.7056  -1.2892  -1.1839  -1.1164  -1.1038  -1.0408
    -0.9895  -0.6198  -0.6194  -0.5821   0.0586   0.1353

     occupation numbers 
     1.0000   1.0000   1.0000   1.0000   1.0000   1.0000   1.0000   1.0000
     1.0000   1.0000   1.0000   1.0000   1.0000   1.0000   1.0000   1.0000
     1.0000   1.0000   1.0000   1.0000   1.0000   1.0000   1.0000   1.0000
     1.0000   1.0000   1.0000   1.0000   1.0000   1.0000   1.0000   1.0000
     1.0000   1.0000   1.0000   1.0769   0.4120   0.1538   0.0263   0.0000
     0.0000   0.0000   0.0000   0.0000   0.0000   0.0000   0.0000   0.0000
     0.0000   0.0000   0.0000   0.0000   0.0000   0.0000

          k = 0.3636 0.0000 0.0000 (221758 PWs)   bands (ev):

   -49.5214 -49.5196 -49.5192 -49.5192 -49.5181 -49.5163 -49.5159 -49.5159
   -48.9761 -48.9758 -48.9751 -48.9741 -48.9726 -48.9724 -48.9717 -48.9706
   -48.8473 -48.8438 -48.8437 -48.8430 -48.8404 -48.8396 -48.8392 -48.8362
    -5.3161  -4.5948  -4.4527  -4.1237  -4.1237  -3.7182  -3.5342  -3.3700
    -3.3699  -3.2719  -3.2718  -2.6101  -2.5123  -2.5123  -2.4191  -2.2835
    -2.2831  -1.4581  -1.3193  -1.3099  -1.3024  -1.3022  -1.1060  -1.1054
    -0.3218  -0.3077  -0.1808  -0.1327  -0.1322  -0.1111

     occupation numbers 
     1.0000   1.0000   1.0000   1.0000   1.0000   1.0000   1.0000   1.0000
     1.0000   1.0000   1.0000   1.0000   1.0000   1.0000   1.0000   1.0000
     1.0000   1.0000   1.0000   1.0000   1.0000   1.0000   1.0000   1.0000
     1.0000   1.0000   1.0000   1.0000   1.0000   1.0000   1.0000   1.0000
     1.0000   1.0000   1.0000   1.0809   0.9476   0.9475   0.4821   0.0442
     0.0438   0.0000   0.0000   0.0000   0.0000   0.0000   0.0000   0.0000
     0.0000   0.0000   0.0000   0.0000   0.0000   0.0000

          k = 0.3636 0.0875 0.0000 (221868 PWs)   bands (ev):

   -49.5214 -49.5196 -49.5192 -49.5192 -49.5181 -49.5163 -49.5159 -49.5159
   -48.9761 -48.9758 -48.9751 -48.9741 -48.9726 -48.9724 -48.9717 -48.9706
   -48.8472 -48.8443 -48.8437 -48.8425 -48.8409 -48.8393 -48.8392 -48.8363
    -5.2918  -4.5699  -4.4386  -4.4285  -3.7935  -3.6937  -3.6570  -3.5826
    -3.5078  -3.0055  -2.9529  -2.7831  -2.5956  -2.5834  -2.3939  -2.1652
    -1.9813  -1.6266  -1.4983  -1.4302  -1.3136  -1.2960  -0.9372  -0.9010
    -0.5241  -0.5232  -0.4368  -0.2870  -0.0955   0.0297

     occupation numbers 
     1.0000   1.0000   1.0000   1.0000   1.0000   1.0000   1.0000   1.0000
     1.0000   1.0000   1.0000   1.0000   1.0000   1.0000   1.0000   1.0000
     1.0000   1.0000   1.0000   1.0000   1.0000   1.0000   1.0000   1.0000
     1.0000   1.0000   1.0000   1.0000   1.0000   1.0000   1.0000   1.0000
     1.0000   1.0000   1.0000   1.0036   1.0833   1.0811   0.3537   0.0012
     0.0000   0.0000   0.0000   0.0000   0.0000   0.0000   0.0000   0.0000
     0.0000   0.0000   0.0000   0.0000   0.0000   0.0000

          k = 0.3636 0.1750 0.0000 (221891 PWs)   bands (ev):

   -49.5214 -49.5196 -49.5192 -49.5192 -49.5181 -49.5163 -49.5159 -49.5159
   -48.9760 -48.9759 -48.9751 -48.9741 -48.9726 -48.9724 -48.9717 -48.9706
   -48.8471 -48.8449 -48.8435 -48.8418 -48.8414 -48.8396 -48.8385 -48.8365
    -5.2187  -4.7066  -4.4952  -4.3559  -3.9764  -3.8478  -3.6200  -3.4286
    -3.3374  -3.1118  -2.8854  -2.5825  -2.5034  -2.4851  -2.3204  -1.9800
    -1.9177  -1.8963  -1.6972  -1.3602  -1.3473  -1.2119  -1.0344  -0.8796
    -0.8255  -0.7991  -0.4464  -0.3532  -0.2096  -0.1117

     occupation numbers 
     1.0000   1.0000   1.0000   1.0000   1.0000   1.0000   1.0000   1.0000
     1.0000   1.0000   1.0000   1.0000   1.0000   1.0000   1.0000   1.0000
     1.0000   1.0000   1.0000   1.0000   1.0000   1.0000   1.0000   1.0000
     1.0000   1.0000   1.0000   1.0000   1.0000   1.0000   1.0000   1.0000
     1.0000   1.0000   1.0001   1.0808   0.9139   0.8341   0.1015   0.0000
     0.0000   0.0000   0.0000   0.0000   0.0000   0.0000   0.0000   0.0000
     0.0000   0.0000   0.0000   0.0000   0.0000   0.0000

          k = 0.3636 0.2624 0.0000 (221911 PWs)   bands (ev):

   -49.5214 -49.5196 -49.5192 -49.5192 -49.5181 -49.5163 -49.5159 -49.5159
   -48.9760 -48.9759 -48.9751 -48.9741 -48.9725 -48.9725 -48.9717 -48.9707
   -48.8469 -48.8454 -48.8433 -48.8418 -48.8412 -48.8400 -48.8380 -48.8368
    -5.0968  -4.9261  -4.3710  -4.2348  -4.1974  -4.0654  -3.4976  -3.3272
    -3.2972  -3.1146  -2.8900  -2.4150  -2.3711  -2.1914  -2.1868  -2.1377
    -2.0354  -2.0349  -1.6816  -1.5505  -1.2912  -1.2106  -1.0113  -0.9660
    -0.8905  -0.8279  -0.8165  -0.3912  -0.0949  -0.0849

     occupation numbers 
     1.0000   1.0000   1.0000   1.0000   1.0000   1.0000   1.0000   1.0000
     1.0000   1.0000   1.0000   1.0000   1.0000   1.0000   1.0000   1.0000
     1.0000   1.0000   1.0000   1.0000   1.0000   1.0000   1.0000   1.0000
     1.0000   1.0000   1.0000   1.0000   1.0000   1.0000   1.0000   1.0000
     1.0000   1.0000   1.0001   0.4599   0.2538   0.0030   0.0026   0.0004
     0.0000   0.0000   0.0000   0.0000   0.0000   0.0000   0.0000   0.0000
     0.0000   0.0000   0.0000   0.0000   0.0000   0.0000

          k = 0.4545 0.0000 0.0000 (221854 PWs)   bands (ev):

   -49.5203 -49.5191 -49.5185 -49.5181 -49.5181 -49.5174 -49.5170 -49.5170
   -48.9750 -48.9747 -48.9740 -48.9737 -48.9735 -48.9729 -48.9729 -48.9718
   -48.8461 -48.8449 -48.8427 -48.8419 -48.8415 -48.8408 -48.8382 -48.8372
    -5.0802  -4.7923  -4.3531  -4.0602  -3.8866  -3.8865  -3.6011  -3.6011
    -3.2748  -3.1271  -3.1270  -2.9643  -2.8384  -2.8383  -2.1418  -2.0048
    -2.0044  -1.8140  -1.6733  -1.6729  -1.0259  -1.0012  -0.8294  -0.8288
    -0.6761  -0.6246  -0.5003  -0.4997  -0.0004   0.1733

     occupation numbers 
     1.0000   1.0000   1.0000   1.0000   1.0000   1.0000   1.0000   1.0000
     1.0000   1.0000   1.0000   1.0000   1.0000   1.0000   1.0000   1.0000
     1.0000   1.0000   1.0000   1.0000   1.0000   1.0000   1.0000   1.0000
     1.0000   1.0000   1.0000   1.0000   1.0000   1.0000   1.0000   1.0000
     1.0000   1.0000   1.0000   1.0000   1.0006   1.0006   0.0005   0.0000
     0.0000   0.0000   0.0000   0.0000   0.0000   0.0000   0.0000   0.0000
     0.0000   0.0000   0.0000   0.0000   0.0000   0.0000

          k = 0.4545 0.0875 0.0000 (221817 PWs)   bands (ev):

   -49.5203 -49.5191 -49.5185 -49.5181 -49.5181 -49.5174 -49.5170 -49.5170
   -48.9749 -48.9747 -48.9740 -48.9737 -48.9735 -48.9729 -48.9729 -48.9718
   -48.8461 -48.8448 -48.8432 -48.8420 -48.8414 -48.8403 -48.8383 -48.8373
    -5.0559  -4.7680  -4.3282  -4.2018  -4.0354  -3.9155  -3.5577  -3.4117
    -3.2755  -3.2482  -3.1182  -2.9376  -2.7638  -2.4798  -2.3224  -2.1158
    -1.9958  -1.7870  -1.6855  -1.3317  -1.2096  -1.0445  -1.0176  -0.8692
    -0.7524  -0.6626  -0.6055  -0.2490  -0.2486   0.0279

     occupation numbers 
     1.0000   1.0000   1.0000   1.0000   1.0000   1.0000   1.0000   1.0000
     1.0000   1.0000   1.0000   1.0000   1.0000   1.0000   1.0000   1.0000
     1.0000   1.0000   1.0000   1.0000   1.0000   1.0000   1.0000   1.0000
     1.0000   1.0000   1.0000   1.0000   1.0000   1.0000   1.0000   1.0000
     1.0000   1.0000   1.0000   1.0000   1.0062   0.8084   0.1056   0.0002
     0.0000   0.0000   0.0000   0.0000   0.0000   0.0000   0.0000   0.0000
     0.0000   0.0000   0.0000   0.0000   0.0000   0.0000

          k = 0.4545 0.1750 0.0000 (221898 PWs)   bands (ev):

   -49.5203 -49.5191 -49.5185 -49.5181 -49.5181 -49.5174 -49.5170 -49.5170
   -48.9749 -48.9748 -48.9740 -48.9737 -48.9735 -48.9729 -48.9729 -48.9718
   -48.8459 -48.8447 -48.8438 -48.8426 -48.8407 -48.8396 -48.8386 -48.8376
    -4.9827  -4.6949  -4.4701  -4.2536  -4.1832  -3.9611  -3.7354  -3.4457
    -3.1686  -3.0952  -2.8577  -2.8078  -2.6258  -2.3288  -2.3199  -2.0393
    -2.0285  -1.7069  -1.6545  -1.5925  -1.3492  -1.2240  -1.0633  -0.9712
    -0.7068  -0.7030  -0.6295  -0.5241  -0.3755  -0.1589

     occupation numbers 
     1.0000   1.0000   1.0000   1.0000   1.0000   1.0000   1.0000   1.0000
     1.0000   1.0000   1.0000   1.0000   1.0000   1.0000   1.0000   1.0000
     1.0000   1.0000   1.0000   1.0000   1.0000   1.0000   1.0000   1.0000
     1.0000   1.0000   1.0000   1.0000   1.0000   1.0000   1.0000   1.0000
     1.0000   1.0000   1.0003   1.0017   1.0740   0.1202   0.1004   0.0000
     0.0000   0.0000   0.0000   0.0000   0.0000   0.0000   0.0000   0.0000
     0.0000   0.0000   0.0000   0.0000   0.0000   0.0000

          k = 0.4545 0.2624 0.0000 (221919 PWs)   bands (ev):

   -49.5203 -49.5191 -49.5185 -49.5181 -49.5181 -49.5174 -49.5170 -49.5170
   -48.9749 -48.9748 -48.9740 -48.9736 -48.9736 -48.9729 -48.9728 -48.9718
   -48.8457 -48.8445 -48.8442 -48.8430 -48.8401 -48.8390 -48.8389 -48.8379
    -4.8607  -4.6899  -4.5731  -4.4025  -4.1294  -3.9560  -3.8374  -3.6647
    -3.0365  -2.8531  -2.7250  -2.6442  -2.5419  -2.3548  -2.1591  -1.9080
    -1.8830  -1.8632  -1.7460  -1.5895  -1.5751  -1.4137  -1.4000  -1.1085
    -0.6939  -0.6147  -0.5542  -0.3847  -0.3248  -0.2102

     occupation numbers 
     1.0000   1.0000   1.0000   1.0000   1.0000   1.0000   1.0000   1.0000
     1.0000   1.0000   1.0000   1.0000   1.0000   1.0000   1.0000   1.0000
     1.0000   1.0000   1.0000   1.0000   1.0000   1.0000   1.0000   1.0000
     1.0000   1.0000   1.0000   1.0000   1.0000   1.0000   1.0000   1.0000
     1.0000   1.0003   1.0161   1.0626   1.0318   0.1944   0.0010   0.0000
     0.0000   0.0000   0.0000   0.0000   0.0000   0.0000   0.0000   0.0000
     0.0000   0.0000   0.0000   0.0000   0.0000   0.0000

     the Fermi energy is    -2.4035 ev

!    total energy              =    -360.79929839 Ry
     total all-electron energy =      -360.799493 Ry
     estimated scf accuracy    <       0.00000013 Ry

!    total charge of GC-SCF    =      -2.12203927 e
     smearing contrib. (-TS)   =      -0.00023037 Ry
     internal energy E=F+TS    =    -360.79906802 Ry

     The total energy is F=E-TS. E is the sum of the following terms:
     one-electron contribution =   -3556.18557551 Ry
     hartree contribution      =    1740.02224186 Ry
     xc contribution           =     -86.54373970 Ry
     ewald contribution        =    1476.02313505 Ry
     one-center paw contrib.   =       2.11612884 Ry
      -> PAW hartree energy AE =       7.37479522 Ry
      -> PAW hartree energy PS =      -7.15222700 Ry
      -> PAW xc energy AE      =      -3.47581945 Ry
      -> PAW xc energy PS      =       3.34141778 Ry
      -> total E_H with PAW    =    1740.24481008 Ry
      -> total E_XC with PAW   =     -86.67814138 Ry
     pot.stat. contrib. (-muN) =       0.37494469 Ry
     electrostatic embedding   =      -1.00488896 Ry
     cavitation energy         =       0.02478978 Ry
     electrolyte free energy   =      -0.00719652 Ry
     correction to one-el term =      64.38109246 Ry

     WARNING: you are using the parabolic pbc correction;
              the potential shift above must be added to 
              band and Fermi energies.

     convergence has been achieved in  30 iterations
     The dielectric solvent contribution to forces
     atom    1 type  1   force =    -0.00038146    0.00000012   -0.00036047
     atom    2 type  1   force =     0.00039468    0.00001370    0.00034815
     atom    3 type  1   force =    -0.00042378   -0.00000003    0.04399747
     atom    4 type  1   force =     0.00009231   -0.00000139    0.00983024
     atom    5 type  1   force =    -0.00009290    0.00000001   -0.00984610
     atom    6 type  1   force =     0.00042546    0.00000848   -0.04402344
     atom    7 type  1   force =    -0.00038327    0.00000009   -0.00030134
     atom    8 type  1   force =     0.00039468   -0.00001348    0.00034817
     atom    9 type  1   force =    -0.00042836   -0.00000002    0.04400621
     atom   10 type  1   force =     0.00009231    0.00000140    0.00983025
     atom   11 type  1   force =    -0.00009398    0.00000000   -0.00983425
     atom   12 type  1   force =     0.00042546   -0.00000853   -0.04402343
     atom   13 type  1   force =    -0.00039196    0.00000012   -0.00035582
     atom   14 type  1   force =     0.00037887    0.00001387    0.00034794
     atom   15 type  1   force =    -0.00042543   -0.00000003    0.04400013
     atom   16 type  1   force =     0.00009294   -0.00000219    0.00983105
     atom   17 type  1   force =    -0.00009235    0.00000001   -0.00984438
     atom   18 type  1   force =     0.00042309    0.00000827   -0.04401203
     atom   19 type  1   force =    -0.00038906    0.00000009   -0.00028335
     atom   20 type  1   force =     0.00037887   -0.00001365    0.00034797
     atom   21 type  1   force =    -0.00042045   -0.00000002    0.04401063
     atom   22 type  1   force =     0.00009294    0.00000220    0.00983106
     atom   23 type  1   force =    -0.00009163    0.00000000   -0.00983768
     atom   24 type  1   force =     0.00042309   -0.00000832   -0.04401201


[...]
     atom   12 type  1   force =     0.00016266   -0.00000323   -0.05241904
     atom   13 type  1   force =    -0.00020232    0.00000009   -0.01637148
     atom   14 type  1   force =     0.00019622    0.00014938    0.01474917
     atom   15 type  1   force =    -0.00016351   -0.00000003    0.05141020
     atom   16 type  1   force =    -0.00012895   -0.00005777    0.00944682
     atom   17 type  1   force =     0.00013198    0.00000001   -0.01037647
     atom   18 type  1   force =     0.00016341    0.00000125   -0.05241772
     atom   19 type  1   force =    -0.00019935    0.00000006   -0.01591856
     atom   20 type  1   force =     0.00019622   -0.00014921    0.01474920
     atom   21 type  1   force =    -0.00015849   -0.00000002    0.05146584
     atom   22 type  1   force =    -0.00012895    0.00005777    0.00944683
     atom   23 type  1   force =     0.00012900   -0.00000000   -0.01028021
     atom   24 type  1   force =     0.00016341   -0.00000130   -0.05241770


     Forces acting on atoms (cartesian axes, Ry/au):

     atom    1 type  1   force =    -0.00018257    0.00000000    0.00036783
     atom    2 type  1   force =     0.00018274    0.00021703    0.00017220
     atom    3 type  1   force =     0.00013805    0.00000000   -0.00021568
     atom    4 type  1   force =     0.00002697    0.00022155    0.00008776
     atom    5 type  1   force =    -0.00008176    0.00000000   -0.00031717
     atom    6 type  1   force =    -0.00019774   -0.00028599   -0.00032425
     atom    7 type  1   force =    -0.00015471    0.00000000   -0.00015716
     atom    8 type  1   force =     0.00018274   -0.00021703    0.00017220
     atom    9 type  1   force =     0.00019537    0.00000000    0.00011380
     atom   10 type  1   force =     0.00002697   -0.00022155    0.00008776
     atom   11 type  1   force =     0.00006251    0.00000000    0.00033238
     atom   12 type  1   force =    -0.00019774    0.00028599   -0.00032425
     atom   13 type  1   force =    -0.00020589    0.00000000    0.00036811
     atom   14 type  1   force =     0.00018684    0.00020555    0.00017196
     atom   15 type  1   force =     0.00016143    0.00000000   -0.00021387
     atom   16 type  1   force =     0.00004582    0.00023596    0.00008687
     atom   17 type  1   force =    -0.00007398    0.00000000   -0.00030589
     atom   18 type  1   force =    -0.00018633   -0.00027783   -0.00031726
     atom   19 type  1   force =    -0.00015673    0.00000000   -0.00015601
     atom   20 type  1   force =     0.00018684   -0.00020555    0.00017196
     atom   21 type  1   force =     0.00014740    0.00000000    0.00010093
     atom   22 type  1   force =     0.00004582   -0.00023596    0.00008687
     atom   23 type  1   force =     0.00003430    0.00000000    0.00032818
     atom   24 type  1   force =    -0.00018633    0.00027783   -0.00031726
     The non-local contrib.  to forces
     atom    1 type  1   force =     0.00088405    0.00000000    0.05293350
     atom    2 type  1   force =    -0.00083575    0.00039772   -0.05251699
     atom    3 type  1   force =     0.00086182    0.00000000   -0.01306302
     atom    4 type  1   force =    -0.00019681    0.00010240    0.00181221
     atom    5 type  1   force =     0.00024911    0.00000000   -0.00214234
     atom    6 type  1   force =    -0.00086753   -0.00037264    0.01268549
     atom    7 type  1   force =     0.00078388    0.00000000    0.05207624
     atom    8 type  1   force =    -0.00083575   -0.00039772   -0.05251699
     atom    9 type  1   force =     0.00094002    0.00000000   -0.01302711
     atom   10 type  1   force =    -0.00019681   -0.00010240    0.00181221
     atom   11 type  1   force =     0.00006258    0.00000000   -0.00128819
     atom   12 type  1   force =    -0.00086753    0.00037264    0.01268549
     atom   13 type  1   force =     0.00085404    0.00000000    0.05293215
     atom   14 type  1   force =    -0.00083500    0.00037305   -0.05252129
     atom   15 type  1   force =     0.00089578    0.00000000   -0.01306628
     atom   16 type  1   force =    -0.00017772    0.00012775    0.00181442
     atom   17 type  1   force =     0.00026488    0.00000000   -0.00212281
     atom   18 type  1   force =    -0.00085969   -0.00036039    0.01269885
     atom   19 type  1   force =     0.00078749    0.00000000    0.05208434
     atom   20 type  1   force =    -0.00083500   -0.00037305   -0.05252129
     atom   21 type  1   force =     0.00089415    0.00000000   -0.01304257
     atom   22 type  1   force =    -0.00017772   -0.00012775    0.00181442
     atom   23 type  1   force =     0.00002501    0.00000000   -0.00129998
     atom   24 type  1   force =    -0.00085969    0.00036039    0.01269885
     The ionic contribution  to forces
     atom    1 type  1   force =    -0.00305853   -0.00000002    8.35848562
     atom    2 type  1   force =     0.00316481    0.01297485   -8.36649243
     atom    3 type  1   force =    -0.00235207    0.00000001   -5.68954160
     atom    4 type  1   force =     0.00300102    0.00703572   -1.58116428
     atom    5 type  1   force =    -0.00389515   -0.00000001    1.57754305
     atom    6 type  1   force =     0.00165497   -0.01001792    5.70780971
     atom    7 type  1   force =    -0.00288927    0.00000004    8.35971244
     atom    8 type  1   force =     0.00316480   -0.01297487   -8.36649235
     atom    9 type  1   force =    -0.00154287    0.00000002   -5.70306064
     atom   10 type  1   force =     0.00300103   -0.00703575   -1.58116419
     atom   11 type  1   force =    -0.00192815    0.00000004    1.57665390
     atom   12 type  1   force =     0.00165498    0.01001789    5.70780991
     atom   13 type  1   force =    -0.00352833   -0.00000002    8.35852256
     atom   14 type  1   force =     0.00318391    0.01268246   -8.36651872
     atom   15 type  1   force =    -0.00170502    0.00000001   -5.68954986
     atom   16 type  1   force =     0.00339566    0.00742423   -1.58115004
     atom   17 type  1   force =    -0.00360053   -0.00000001    1.57746240
     atom   18 type  1   force =     0.00185128   -0.00979772    5.70768376
     atom   19 type  1   force =    -0.00284816    0.00000004    8.35975274
     atom   20 type  1   force =     0.00318392   -0.01268247   -8.36651863
     atom   21 type  1   force =    -0.00250710    0.00000002   -5.70292629
     atom   22 type  1   force =     0.00339567   -0.00742426   -1.58114996
     atom   23 type  1   force =    -0.00264814    0.00000004    1.57660897
     atom   24 type  1   force =     0.00185129    0.00979769    5.70768396
     The local contribution  to forces
     atom    1 type  1   force =     0.00219695   -0.00004232   -8.39466724
     atom    2 type  1   force =    -0.00234541   -0.01335426    8.40442607
     atom    3 type  1   force =     0.00178628   -0.00004368    5.65097666
     atom    4 type  1   force =    -0.00265439   -0.00690419    1.56999372
     atom    5 type  1   force =     0.00343100   -0.00004498   -1.56534214
     atom    6 type  1   force =    -0.00114993    0.01005732   -5.66839917
     atom    7 type  1   force =     0.00215056   -0.00004372   -8.39601130
     atom    8 type  1   force =    -0.00234309    0.01326376    8.40442246
     atom    9 type  1   force =     0.00095994   -0.00004450    5.66473461
     atom   10 type  1   force =    -0.00264393    0.00681541    1.56999129
     atom   11 type  1   force =     0.00180077   -0.00004172   -1.56475442
     atom   12 type  1   force =    -0.00114587   -0.01014410   -5.66840403
     atom   13 type  1   force =     0.00267064   -0.00004232   -8.39470876
     atom   14 type  1   force =    -0.00235963   -0.01304495    8.40445993
     atom   15 type  1   force =     0.00113430   -0.00004368    5.65099099
     atom   16 type  1   force =    -0.00304832   -0.00730276    1.56997625
     atom   17 type  1   force =     0.00312955   -0.00004498   -1.56527075
     atom   18 type  1   force =    -0.00134338    0.00983497   -5.66828092
     atom   19 type  1   force =     0.00210317   -0.00004372   -8.39606131
     atom   20 type  1   force =    -0.00235672    0.01295445    8.40445571
     atom   21 type  1   force =     0.00191882   -0.00004450    5.66460250
     atom   22 type  1   force =    -0.00303786    0.00721398    1.56997382
     atom   23 type  1   force =     0.00252829   -0.00004172   -1.56470176
     atom   24 type  1   force =    -0.00133931   -0.00992175   -5.66828579
     The core correction contribution to forces
     atom    1 type  1   force =     0.00000000    0.00000000    0.00000000
     atom    2 type  1   force =     0.00000000    0.00000000    0.00000000
     atom    3 type  1   force =     0.00000000    0.00000000    0.00000000
     atom    4 type  1   force =     0.00000000    0.00000000    0.00000000
     atom    5 type  1   force =     0.00000000    0.00000000    0.00000000
     atom    6 type  1   force =     0.00000000    0.00000000    0.00000000
     atom    7 type  1   force =     0.00000000    0.00000000    0.00000000
     atom    8 type  1   force =     0.00000000    0.00000000    0.00000000
     atom    9 type  1   force =     0.00000000    0.00000000    0.00000000
     atom   10 type  1   force =     0.00000000    0.00000000    0.00000000
     atom   11 type  1   force =     0.00000000    0.00000000    0.00000000
     atom   12 type  1   force =     0.00000000    0.00000000    0.00000000
     atom   13 type  1   force =     0.00000000    0.00000000    0.00000000
     atom   14 type  1   force =     0.00000000    0.00000000    0.00000000
     atom   15 type  1   force =     0.00000000    0.00000000    0.00000000
     atom   16 type  1   force =     0.00000000    0.00000000    0.00000000
     atom   17 type  1   force =     0.00000000    0.00000000    0.00000000
     atom   18 type  1   force =     0.00000000    0.00000000    0.00000000
     atom   19 type  1   force =     0.00000000    0.00000000    0.00000000
     atom   20 type  1   force =     0.00000000    0.00000000    0.00000000
     atom   21 type  1   force =     0.00000000    0.00000000    0.00000000
     atom   22 type  1   force =     0.00000000    0.00000000    0.00000000
     atom   23 type  1   force =     0.00000000    0.00000000    0.00000000
     atom   24 type  1   force =     0.00000000    0.00000000    0.00000000
     The Hubbard contrib.    to forces
     atom    1 type  1   force =     0.00000000    0.00000000    0.00000000
     atom    2 type  1   force =     0.00000000    0.00000000    0.00000000
     atom    3 type  1   force =     0.00000000    0.00000000    0.00000000
     atom    4 type  1   force =     0.00000000    0.00000000    0.00000000
     atom    5 type  1   force =     0.00000000    0.00000000    0.00000000
     atom    6 type  1   force =     0.00000000    0.00000000    0.00000000
     atom    7 type  1   force =     0.00000000    0.00000000    0.00000000
     atom    8 type  1   force =     0.00000000    0.00000000    0.00000000
     atom    9 type  1   force =     0.00000000    0.00000000    0.00000000
     atom   10 type  1   force =     0.00000000    0.00000000    0.00000000
     atom   11 type  1   force =     0.00000000    0.00000000    0.00000000
     atom   12 type  1   force =     0.00000000    0.00000000    0.00000000
     atom   13 type  1   force =     0.00000000    0.00000000    0.00000000
     atom   14 type  1   force =     0.00000000    0.00000000    0.00000000
     atom   15 type  1   force =     0.00000000    0.00000000    0.00000000
     atom   16 type  1   force =     0.00000000    0.00000000    0.00000000
     atom   17 type  1   force =     0.00000000    0.00000000    0.00000000
     atom   18 type  1   force =     0.00000000    0.00000000    0.00000000
     atom   19 type  1   force =     0.00000000    0.00000000    0.00000000
     atom   20 type  1   force =     0.00000000    0.00000000    0.00000000
     atom   21 type  1   force =     0.00000000    0.00000000    0.00000000
     atom   22 type  1   force =     0.00000000    0.00000000    0.00000000
     atom   23 type  1   force =     0.00000000    0.00000000    0.00000000
     atom   24 type  1   force =     0.00000000    0.00000000    0.00000000
     The SCF correction term to forces
     atom    1 type  1   force =     0.00000013    0.00000000   -0.00000787
     atom    2 type  1   force =    -0.00000013    0.00000041    0.00000353
     atom    3 type  1   force =    -0.00000008    0.00000000   -0.00000027
     atom    4 type  1   force =    -0.00000008    0.00000011   -0.00000075
     atom    5 type  1   force =     0.00000014    0.00000000    0.00000039
     atom    6 type  1   force =     0.00000004    0.00000064   -0.00000025
     atom    7 type  1   force =     0.00000011   -0.00000000   -0.00001448
     atom    8 type  1   force =    -0.00000013   -0.00000041    0.00000353
     atom    9 type  1   force =    -0.00000001   -0.00000000    0.00000009
     atom   10 type  1   force =    -0.00000008   -0.00000011   -0.00000075
     atom   11 type  1   force =     0.00000013   -0.00000000   -0.00000014
     atom   12 type  1   force =     0.00000004   -0.00000064   -0.00000025
     atom   13 type  1   force =     0.00000007    0.00000000   -0.00000771
     atom   14 type  1   force =    -0.00000014    0.00000043    0.00000357
     atom   15 type  1   force =    -0.00000013    0.00000000   -0.00000027
     atom   16 type  1   force =    -0.00000010    0.00000010   -0.00000076
     atom   17 type  1   force =     0.00000013    0.00000000    0.00000039
     atom   18 type  1   force =     0.00000001    0.00000063   -0.00000026
     atom   19 type  1   force =     0.00000011   -0.00000000   -0.00001456
     atom   20 type  1   force =    -0.00000014   -0.00000043    0.00000357
     atom   21 type  1   force =     0.00000001   -0.00000000    0.00000011
     atom   22 type  1   force =    -0.00000010   -0.00000010   -0.00000076
     atom   23 type  1   force =     0.00000012   -0.00000000   -0.00000019
     atom   24 type  1   force =     0.00000001   -0.00000063   -0.00000026

     Total force =     0.001628     Total SCF correction =     0.000024
     Energy error            =      6.8E-06 Ry
     Gradient error          =      3.7E-04 Ry/Bohr

     bfgs converged in  56 scf cycles and  55 bfgs steps
     (criteria: energy <  1.0E-05 Ry, force <  3.9E-04 Ry/Bohr)

     End of BFGS Geometry Optimization

     Final energy             =    -360.8101767152 Ry

     File ./Li/Lithium.bfgs deleted, as requested
Begin final coordinates

ATOMIC_POSITIONS (angstrom)
Li               3.1480496790        4.8580445300       26.9351092417
Li               0.8164896841        2.4232509031       20.0989729292
Li               2.1477356881        4.8580445600       21.3252350511
Li               2.8631355522        2.4253747243       22.8883560344
Li               1.1115934551        4.8580445800       24.1627533838
Li               1.8166394399        2.4316881285       25.7331496193
Li               3.1472835331        9.7160883600       26.9441221556
Li               0.8164896441        7.2928382569       20.0989729892
Li               2.1492457840        9.7160883800       21.3159855087
Li               2.8631353722        7.2907144157       22.8883560744
Li               1.1030253241        9.7160883300       24.1533194996
Li               1.8166393699        7.2844009815       25.7331496992
Li               6.1231930140        4.8580445300       26.9351620426
Li               3.7913957028        2.4233622494       20.0989665228
Li               5.1224152138        4.8580445600       21.3252314057
Li               5.8378674988        2.4252327473       22.8883572829
Li               4.0864428487        4.8580445800       24.1626129131
Li               4.7914438423        2.4316167546       25.7330290348
Li               6.1222343708        9.7160883600       26.9441193433
Li               3.7913956528        7.2927269106       20.0989665928
Li               5.1246969535        9.7160883800       21.3161465001
Li               5.8378673188        7.2908563927       22.8883573229
Li               4.0782530971        9.7160883300       24.1533576298
Li               4.7914437723        7.2844723554       25.7330291148
End final coordinates



     Writing all to output data dir ./Li/Lithium.save/ :
     XML data file
     init_run     :     16.01s CPU     22.92s WALL (       1 calls)
     electrons    :  15404.84s CPU  19037.51s WALL (      56 calls)
     update_pot   :      6.58s CPU      8.38s WALL (      55 calls)
     forces       :    484.60s CPU    497.94s WALL (      56 calls)

     Called by init_run:
     wfcinit      :      1.19s CPU      1.59s WALL (       1 calls)
     wfcinit:wfcr :      1.10s CPU      1.49s WALL (      12 calls)
     potinit      :      0.68s CPU      0.72s WALL (       1 calls)
     hinit0       :      2.77s CPU      3.05s WALL (       1 calls)

     Called by electrons:
     c_bands      :   8765.45s CPU  10943.17s WALL (    1084 calls)
     sum_band     :    613.05s CPU    827.91s WALL (    1084 calls)
     v_of_rho     :    100.24s CPU    121.53s WALL (    1085 calls)
     v_h          :      8.46s CPU     10.82s WALL (    1085 calls)
     v_xc         :     91.76s CPU    110.69s WALL (    1085 calls)
     newd         :     41.54s CPU     55.25s WALL (    1085 calls)
     PAW_pot      :      8.88s CPU     12.34s WALL (    1140 calls)
     mix_rho      :    231.44s CPU    297.57s WALL (    1084 calls)

     Called by c_bands:
     init_us_2    :     87.96s CPU     91.36s WALL (   27360 calls)
     cegterg      :   8520.96s CPU  10465.38s WALL (   15558 calls)

     Called by sum_band:
     sum_band:wei :      1.18s CPU      1.45s WALL (    1084 calls)
     sum_band:loo :    553.09s CPU    746.26s WALL (    1084 calls)
     sum_band:buf :      8.45s CPU      9.15s WALL (   13008 calls)
     sum_band:ini :     40.96s CPU     41.39s WALL (   13008 calls)
     sum_band:cal :     86.83s CPU    101.02s WALL (   13668 calls)
     sum_band:bec :      1.06s CPU      1.15s WALL (   13668 calls)
     addusdens    :     34.92s CPU     36.67s WALL (    1084 calls)
                                        0.00s GPU  (    1084 calls)
     addusd:skk   :      6.71s CPU      6.79s WALL (    1084 calls)
                                        0.00s GPU  (    1084 calls)

     Called by *egterg:
     cdiaghg      :   1987.41s CPU   2065.59s WALL (  216431 calls)
     cegterg:over :    610.30s CPU    669.01s WALL (  202386 calls)
     cegterg:upda :    570.44s CPU    583.33s WALL (  202386 calls)
     cegterg:last :    121.12s CPU    122.03s WALL (   20206 calls)
     h_psi        :   4634.44s CPU   6400.24s WALL (  217956 calls)
     s_psi        :    388.89s CPU    396.49s WALL (  217956 calls)
     g_psi        :      7.86s CPU      8.12s WALL (  202386 calls)

     Called by h_psi:
     h_psi:calbec :    613.01s CPU    736.66s WALL (  217956 calls)
     vloc_psi     :   3567.39s CPU   5183.75s WALL (  217956 calls)
                                        0.00s GPU  (  217956 calls)
     add_vuspsi   :    427.26s CPU    451.38s WALL (  217956 calls)

     General routines
     calbec       :    713.54s CPU    852.67s WALL (  234312 calls)
     fft          :     64.97s CPU     95.94s WALL (   14215 calls)
     ffts         :    142.31s CPU    186.12s WALL (  121848 calls)
     fftw         :   3771.80s CPU   5494.03s WALL ( 6811492 calls)
     interpolate  :      8.09s CPU     10.52s WALL (    1085 calls)

     Parallel routines

     PAW routines
     PAW_pot      :      8.88s CPU     12.34s WALL (    1140 calls)
     PAW_symme    :      0.36s CPU      0.47s WALL (    2224 calls)

     Environ routines

     PWSCF        :      4h32m CPU      5h34m WALL


   This run was terminated on:   2:41:19   3Jan2025            

=------------------------------------------------------------------------------=
   JOB DONE.
=------------------------------------------------------------------------------=
