
     Program PWSCF v.7.4 starts on  4Jan2025 at 19:15:22 

     This program is part of the open-source Quantum ESPRESSO suite
     for quantum simulation of materials; please cite
         "P. Giannozzi et al., J. Phys.:Condens. Matter 21 395502 (2009);
         "P. Giannozzi et al., J. Phys.:Condens. Matter 29 465901 (2017);
         "P. Giannozzi et al., J. Chem. Phys. 152 154105 (2020);
          URL http://www.quantum-espresso.org", 
     in publications or presentations arising from this work. More details at
     http://www.quantum-espresso.org/quote

     Parallel version (MPI & OpenMP), running on     512 processor cores
     Number of MPI processes:               512
     Threads/MPI process:                     1

     MPI processes distributed on     4 nodes
     229368 MiB available memory on the printing compute node when the environment starts

     Reading input from espresso.pwi
Warning: card &CELL ignored
Warning: card    PRESS_CONV_THR   = 0.1 ignored
Warning: card    CELL_DOFREE      = 'ALL' ignored
Warning: card / ignored
Warning: card &FCP ignored
Warning: card / ignored
Warning: card &RISM ignored
Warning: card / ignored

     Current dimensions of program PWSCF are:
     Max number of different atomic species (ntypx) = 10
     Max number of k-points (npk) =  40000
     Max angular momentum in pseudopotentials (lmaxx) =  4

     IMPORTANT: XC functional enforced from input :
     Exchange-correlation= PBE
                           (   1   4   3   4   0   0   0)
     Any further DFT definition will be discarded
     Please, verify this is what you really want


     Reading input from environ.in:
     * using ionic solvent mode
     * setting boundary derivatives method to SSCS default
     * setting electrolyte-boundary derivatives method to SSCS default

Environ Warning (1001): card EOF ignored

     

     K-points division:     npool     =       2
     R & G space division:  proc/nbgrp/npool/nimage =     256
     Subspace diagonalization in iterative solution of the eigenvalue problem:
     a serial algorithm will be used


     Parallelization info
     --------------------
     sticks:   dense  smooth     PW     G-vecs:    dense   smooth      PW
     Min          39      15      4                23005     5783     788
     Max          40      16      5                23062     5870     851
     Sum       10033    4007   1075              5896473  1491071  208783

     Using Slab Decomposition



     bravais-lattice index     =           12
     lattice parameter (alat)  =      11.2436  a.u.
     unit-cell volume          =   15431.5264 (a.u.)^3
     number of atoms/cell      =           28
     number of atomic types    =            1
     number of electrons       =        84.00
     number of Kohn-Sham states=           63
     kinetic-energy cutoff     =      80.0000  Ry
     charge density cutoff     =     800.0000  Ry
     scf convergence threshold =      1.0E-06
     mixing beta               =       0.2000
     number of iterations used =            8  local-TF  mixing
     energy convergence thresh.=      1.0E-05
     force convergence thresh. =      3.9E-04
     Exchange-correlation= PBE
                           (   1   4   3   4   0   0   0)
     nstep                     =          999


     ================================================================================

                                  Environ Setup Summary

     ================================================================================

     Please cite

          O. Andreussi, I. Dabo and N. Marzari, J. Chem. Phys. 136, 064102 (2012)
          F. Nattino, M. Truscott, N. Marzari, and O. Andreussi, J. Chem. Phys. 150, 041722 (2019)

     in publications or presentations arising from this work.

     ================================================================================

     Parameters
     ==========

     compensation onset threshold      =               0.1000E+00
     static permittivity               =                    89.90
     surface tension in input (dyn/cm) =                    37.30
     surface tension in internal units =               0.4792E-04

     Solvent Boundary
     ================

     solvent mode                      =                    ionic
     derivatives method                =                   lowmem
     electrolyte derivatives method    =                   lowmem
     numerical core for derivatives    =                      fft
     switching function adopted        =                     SCCS
     density limit for vacuum region   =               0.5000E-02
     density limit for bulk solvent    =               0.1000E-03
     soft-sphere radius mode           =                    bondi
     soft-sphere softness              =                     0.50
     alpha                             =                     1.32

     Electrostatic Setup
     ===================

     electrostatic problem to solve    =                    modpb
     numerical solver adopted          =                   newton
     type of auxiliary density adopted =                     none
     numerical core for poisson        =                      fft
     adopting a nested solver scheme
     inner solver                      =                       cg
     inner core                        =                      fft
     type of pbc corrections           =                parabolic
     numerical core for corrections    =                      1da

     ================================================================================


     >>>>> Grand-Canonical SCF is activated <<<<<
     Initial Total Charge  =     0.000000 e
     Target Fermi Energy   =    -1.904000 eV
     Thr. of Fermi Energy  =     0.001000 eV
     Wave-shift of Kerker  =     0.400000 bohr^-1
     Wave-shift of Hartree =     1.500000 bohr^-1
     Mixing Rate of Fermi  =     0.050000

     celldm(1)=  11.243615  celldm(2)=   1.258306  celldm(3)=   8.704589
     celldm(4)=  -0.132454  celldm(5)=   0.000000  celldm(6)=   0.000000

     crystal axes: (cart. coord. in units of alat)
               a(1) = (   1.000000   0.000000   0.000000 )  
               a(2) = (  -0.166667   1.247219   0.000000 )  
               a(3) = (   0.000000   0.000000   8.704589 )  

     reciprocal axes: (cart. coord. in units 2 pi/alat)
               b(1) = (  1.000000  0.133631 -0.000000 )  
               b(2) = (  0.000000  0.801784  0.000000 )  
               b(3) = (  0.000000 -0.000000  0.114882 )  


     PseudoPot. # 1 for Li read from file:
     /work/e89/e89/ba3g18/Repos/Pseudopotentials/Pslibrary/Li.pbe-sl-kjpaw_psl.1.0.0.UPF
     MD5 check sum: 3f4d2cafebb47c6c3aa8ed472e6f074d
     Pseudo is Projector augmented-wave, Zval =  3.0
     Generated using 'atomic' code by A. Dal Corso  v.7.4
     Shape of augmentation charge: PSQ
     Using radial grid of 1017 points,  4 beta functions with: 
                l(1) =   0
                l(2) =   0
                l(3) =   1
                l(4) =   1
     Q(r) pseudized with 0 coefficients 


     atomic species   valence    mass     pseudopotential
     Li                3.00     6.94000     Li( 1.00)

     No symmetry found


                                    s                        frac. trans.

      isym =  1     identity                                     

 cryst.   s( 1) = (     1          0          0      )
                  (     0          1          0      )
                  (     0          0          1      )

 cart.    s( 1) = (  1.0000000  0.0000000  0.0000000 )
                  (  0.0000000  1.0000000  0.0000000 )
                  (  0.0000000  0.0000000  1.0000000 )


     point group C_1 (1)    
     there are  1 classes
     the character table:

       E    
A      1.00

     the symmetry operations in each class and the name of the first element:

     E        1
          identity                                               

   Cartesian axes

     site n.     atom                  positions (alat units)
         1        Li     tau(   1) = (   0.0435332  -0.0314823   5.3338690  )
         2        Li     tau(   2) = (  -0.0439406   0.8334608   3.3711317  )
         3        Li     tau(   3) = (   0.1246948   0.3608470   3.4944830  )
         4        Li     tau(   4) = (   0.1787274   1.1794379   3.6612939  )
         5        Li     tau(   5) = (   0.2890173   0.7086119   3.8027280  )
         6        Li     tau(   6) = (   0.0028658   0.2803578   3.9746332  )
         7        Li     tau(   7) = (  -0.0201127   1.0627538   4.1089162  )
         8        Li     tau(   8) = (   0.1814137   0.6330654   4.2818502  )
         9        Li     tau(   9) = (   0.3191482   0.1685622   4.4222014  )
        10        Li     tau(  10) = (   0.3535412   0.9861272   4.5955129  )
        11        Li     tau(  11) = (  -0.0025075   0.5213733   4.7296871  )
        12        Li     tau(  12) = (   0.2112584   0.0931869   4.9017398  )
        13        Li     tau(  13) = (   0.1541210   0.8695294   5.0436143  )
        14        Li     tau(  14) = (   0.3749104   0.4410897   5.2104587  )
        15        Li     tau(  15) = (   0.5435369  -0.0314820   5.3338686  )
        16        Li     tau(  16) = (   0.4560376   0.8334603   3.3711340  )
        17        Li     tau(  17) = (   0.6247052   0.3608473   3.4944843  )
        18        Li     tau(  18) = (   0.6787297   1.1794456   3.6612962  )
        19        Li     tau(  19) = (   0.7890119   0.7086080   3.8027338  )
        20        Li     tau(  20) = (   0.5028695   0.2803606   3.9746352  )
        21        Li     tau(  21) = (   0.4798875   1.0627535   4.1089165  )
        22        Li     tau(  22) = (   0.6814147   0.6330644   4.2818469  )
        23        Li     tau(  23) = (   0.8191469   0.1685618   4.4222012  )
        24        Li     tau(  24) = (   0.8535416   0.9861270   4.5955138  )
        25        Li     tau(  25) = (   0.4974912   0.5213726   4.7296870  )
        26        Li     tau(  26) = (   0.7112579   0.0931875   4.9017415  )
        27        Li     tau(  27) = (   0.6541210   0.8695304   5.0436145  )
        28        Li     tau(  28) = (   0.8749115   0.4410906   5.2104598  )

   Crystallographic axes

     site n.     atom                  positions (cryst. coord.)
         1        Li     tau(   1) = (  0.0393262 -0.0252420  0.6127652  )
         2        Li     tau(   2) = (  0.0674355  0.6682554  0.3872821  )
         3        Li     tau(   3) = (  0.1729151  0.2893212  0.4014530  )
         4        Li     tau(   4) = (  0.3363367  0.9456542  0.4206165  )
         5        Li     tau(   5) = (  0.3837097  0.5681535  0.4368647  )
         6        Li     tau(   6) = (  0.0403303  0.2247863  0.4566135  )
         7        Li     tau(   7) = (  0.1219041  0.8520988  0.4720402  )
         8        Li     tau(   8) = (  0.2660108  0.5075816  0.4919072  )
         9        Li     tau(   9) = (  0.3416733  0.1351505  0.5080310  )
        10        Li     tau(  10) = (  0.4853183  0.7906608  0.5279414  )
        11        Li     tau(  11) = (  0.0671640  0.4180287  0.5433556  )
        12        Li     tau(  12) = (  0.2237110  0.0747157  0.5631213  )
        13        Li     tau(  13) = (  0.2703170  0.6971746  0.5794202  )
        14        Li     tau(  14) = (  0.4338536  0.3536585  0.5985876  )
        15        Li     tau(  15) = (  0.5393299 -0.0252417  0.6127651  )
        16        Li     tau(  16) = (  0.5674136  0.6682550  0.3872824  )
        17        Li     tau(  17) = (  0.6729256  0.2893216  0.4014531  )
        18        Li     tau(  18) = (  0.8363401  0.9456604  0.4206168  )
        19        Li     tau(  19) = (  0.8837039  0.5681504  0.4368654  )
        20        Li     tau(  20) = (  0.5403343  0.2247886  0.4566138  )
        21        Li     tau(  21) = (  0.6219042  0.8520985  0.4720403  )
        22        Li     tau(  22) = (  0.7660116  0.5075808  0.4919068  )
        23        Li     tau(  23) = (  0.8416720  0.1351501  0.5080310  )
        24        Li     tau(  24) = (  0.9853186  0.7906607  0.5279415  )
        25        Li     tau(  25) = (  0.5671627  0.4180281  0.5433556  )
        26        Li     tau(  26) = (  0.7237106  0.0747162  0.5631215  )
        27        Li     tau(  27) = (  0.7703171  0.6971754  0.5794202  )
        28        Li     tau(  28) = (  0.9338548  0.3536593  0.5985877  )

     number of k points=    50  Marzari-Vanderbilt smearing, width (Ry)=  0.0100
                       cart. coord. in units 2pi/alat
        k(    1) = (   0.0000000   0.0000000   0.0000000), wk =   0.0202020
        k(    2) = (   0.0000000   0.0890871   0.0000000), wk =   0.0404040
        k(    3) = (   0.0000000   0.1781742   0.0000000), wk =   0.0404040
        k(    4) = (   0.0000000   0.2672613   0.0000000), wk =   0.0404040
        k(    5) = (   0.0000000   0.3563484   0.0000000), wk =   0.0404040
        k(    6) = (   0.0909091   0.0121483   0.0000000), wk =   0.0404040
        k(    7) = (   0.0909091   0.1012354   0.0000000), wk =   0.0404040
        k(    8) = (   0.0909091   0.1903224   0.0000000), wk =   0.0404040
        k(    9) = (   0.0909091   0.2794095   0.0000000), wk =   0.0404040
        k(   10) = (   0.0909091   0.3684966   0.0000000), wk =   0.0404040
        k(   11) = (   0.0909091  -0.3442001   0.0000000), wk =   0.0404040
        k(   12) = (   0.0909091  -0.2551130   0.0000000), wk =   0.0404040
        k(   13) = (   0.0909091  -0.1660259   0.0000000), wk =   0.0404040
        k(   14) = (   0.0909091  -0.0769388   0.0000000), wk =   0.0404040
        k(   15) = (   0.1818182   0.0242965   0.0000000), wk =   0.0404040
        k(   16) = (   0.1818182   0.1133836   0.0000000), wk =   0.0404040
        k(   17) = (   0.1818182   0.2024707   0.0000000), wk =   0.0404040
        k(   18) = (   0.1818182   0.2915578   0.0000000), wk =   0.0404040
        k(   19) = (   0.1818182   0.3806449   0.0000000), wk =   0.0404040
        k(   20) = (   0.1818182  -0.3320518   0.0000000), wk =   0.0404040
        k(   21) = (   0.1818182  -0.2429647   0.0000000), wk =   0.0404040
        k(   22) = (   0.1818182  -0.1538777   0.0000000), wk =   0.0404040
        k(   23) = (   0.1818182  -0.0647906   0.0000000), wk =   0.0404040
        k(   24) = (   0.2727273   0.0364448   0.0000000), wk =   0.0404040
        k(   25) = (   0.2727273   0.1255319   0.0000000), wk =   0.0404040
        k(   26) = (   0.2727273   0.2146190   0.0000000), wk =   0.0404040
        k(   27) = (   0.2727273   0.3037061   0.0000000), wk =   0.0404040
        k(   28) = (   0.2727273   0.3927932   0.0000000), wk =   0.0404040
        k(   29) = (   0.2727273  -0.3199036   0.0000000), wk =   0.0404040
        k(   30) = (   0.2727273  -0.2308165   0.0000000), wk =   0.0404040
        k(   31) = (   0.2727273  -0.1417294   0.0000000), wk =   0.0404040
        k(   32) = (   0.2727273  -0.0526423   0.0000000), wk =   0.0404040
        k(   33) = (   0.3636364   0.0485931   0.0000000), wk =   0.0404040
        k(   34) = (   0.3636364   0.1376801   0.0000000), wk =   0.0404040
        k(   35) = (   0.3636364   0.2267672   0.0000000), wk =   0.0404040
        k(   36) = (   0.3636364   0.3158543   0.0000000), wk =   0.0404040
        k(   37) = (   0.3636364   0.4049414   0.0000000), wk =   0.0404040
        k(   38) = (   0.3636364  -0.3077553   0.0000000), wk =   0.0404040
        k(   39) = (   0.3636364  -0.2186682   0.0000000), wk =   0.0404040
        k(   40) = (   0.3636364  -0.1295811   0.0000000), wk =   0.0404040
        k(   41) = (   0.3636364  -0.0404940   0.0000000), wk =   0.0404040
        k(   42) = (   0.4545455   0.0607413   0.0000000), wk =   0.0404040
        k(   43) = (   0.4545455   0.1498284   0.0000000), wk =   0.0404040
        k(   44) = (   0.4545455   0.2389155   0.0000000), wk =   0.0404040
        k(   45) = (   0.4545455   0.3280026   0.0000000), wk =   0.0404040
        k(   46) = (   0.4545455   0.4170897   0.0000000), wk =   0.0404040
        k(   47) = (   0.4545455  -0.2956070   0.0000000), wk =   0.0404040
        k(   48) = (   0.4545455  -0.2065200   0.0000000), wk =   0.0404040
        k(   49) = (   0.4545455  -0.1174329   0.0000000), wk =   0.0404040
        k(   50) = (   0.4545455  -0.0283458   0.0000000), wk =   0.0404040

                       cryst. coord.
        k(    1) = (   0.0000000   0.0000000   0.0000000), wk =   0.0202020
        k(    2) = (   0.0000000   0.1111111   0.0000000), wk =   0.0404040
        k(    3) = (   0.0000000   0.2222222   0.0000000), wk =   0.0404040
        k(    4) = (   0.0000000   0.3333333   0.0000000), wk =   0.0404040
        k(    5) = (   0.0000000   0.4444444   0.0000000), wk =   0.0404040
        k(    6) = (   0.0909091  -0.0000000   0.0000000), wk =   0.0404040
        k(    7) = (   0.0909091   0.1111111   0.0000000), wk =   0.0404040
        k(    8) = (   0.0909091   0.2222222   0.0000000), wk =   0.0404040
        k(    9) = (   0.0909091   0.3333333   0.0000000), wk =   0.0404040
        k(   10) = (   0.0909091   0.4444444   0.0000000), wk =   0.0404040
        k(   11) = (   0.0909091  -0.4444444   0.0000000), wk =   0.0404040
        k(   12) = (   0.0909091  -0.3333333   0.0000000), wk =   0.0404040
        k(   13) = (   0.0909091  -0.2222222   0.0000000), wk =   0.0404040
        k(   14) = (   0.0909091  -0.1111111   0.0000000), wk =   0.0404040
        k(   15) = (   0.1818182  -0.0000000   0.0000000), wk =   0.0404040
        k(   16) = (   0.1818182   0.1111111   0.0000000), wk =   0.0404040
        k(   17) = (   0.1818182   0.2222222   0.0000000), wk =   0.0404040
        k(   18) = (   0.1818182   0.3333333   0.0000000), wk =   0.0404040
        k(   19) = (   0.1818182   0.4444444   0.0000000), wk =   0.0404040
        k(   20) = (   0.1818182  -0.4444444   0.0000000), wk =   0.0404040
        k(   21) = (   0.1818182  -0.3333333   0.0000000), wk =   0.0404040
        k(   22) = (   0.1818182  -0.2222222   0.0000000), wk =   0.0404040
        k(   23) = (   0.1818182  -0.1111111   0.0000000), wk =   0.0404040
        k(   24) = (   0.2727273   0.0000000   0.0000000), wk =   0.0404040
        k(   25) = (   0.2727273   0.1111111   0.0000000), wk =   0.0404040
        k(   26) = (   0.2727273   0.2222222   0.0000000), wk =   0.0404040
        k(   27) = (   0.2727273   0.3333333   0.0000000), wk =   0.0404040
        k(   28) = (   0.2727273   0.4444444   0.0000000), wk =   0.0404040
        k(   29) = (   0.2727273  -0.4444444   0.0000000), wk =   0.0404040
        k(   30) = (   0.2727273  -0.3333333   0.0000000), wk =   0.0404040
        k(   31) = (   0.2727273  -0.2222222   0.0000000), wk =   0.0404040
        k(   32) = (   0.2727273  -0.1111111   0.0000000), wk =   0.0404040
        k(   33) = (   0.3636364  -0.0000000   0.0000000), wk =   0.0404040
        k(   34) = (   0.3636364   0.1111111   0.0000000), wk =   0.0404040
        k(   35) = (   0.3636364   0.2222222   0.0000000), wk =   0.0404040
        k(   36) = (   0.3636364   0.3333333   0.0000000), wk =   0.0404040
        k(   37) = (   0.3636364   0.4444444   0.0000000), wk =   0.0404040
        k(   38) = (   0.3636364  -0.4444444   0.0000000), wk =   0.0404040
        k(   39) = (   0.3636364  -0.3333333   0.0000000), wk =   0.0404040
        k(   40) = (   0.3636364  -0.2222222   0.0000000), wk =   0.0404040
        k(   41) = (   0.3636364  -0.1111111   0.0000000), wk =   0.0404040
        k(   42) = (   0.4545455  -0.0000000   0.0000000), wk =   0.0404040
        k(   43) = (   0.4545455   0.1111111   0.0000000), wk =   0.0404040
        k(   44) = (   0.4545455   0.2222222   0.0000000), wk =   0.0404040
        k(   45) = (   0.4545455   0.3333333   0.0000000), wk =   0.0404040
        k(   46) = (   0.4545455   0.4444444   0.0000000), wk =   0.0404040
        k(   47) = (   0.4545455  -0.4444444   0.0000000), wk =   0.0404040
        k(   48) = (   0.4545455  -0.3333333   0.0000000), wk =   0.0404040
        k(   49) = (   0.4545455  -0.2222222   0.0000000), wk =   0.0404040
        k(   50) = (   0.4545455  -0.1111111   0.0000000), wk =   0.0404040

     Dense  grid:  5896473 G-vectors     FFT dimensions: ( 108, 128, 900)

     Smooth grid:  1491071 G-vectors     FFT dimensions: (  72,  81, 576)

     Dynamical RAM for                 wfc:       0.70 MB

     Dynamical RAM for     wfc (w. buffer):      18.20 MB

     Dynamical RAM for           str. fact:       0.35 MB

     Dynamical RAM for           local pot:       0.00 MB

     Dynamical RAM for          nlocal pot:       2.49 MB

     Dynamical RAM for                qrad:       0.65 MB

     Dynamical RAM for          rho,v,vnew:       2.32 MB

     Dynamical RAM for               rhoin:       0.77 MB

     Dynamical RAM for            rho*nmix:       5.62 MB

     Dynamical RAM for           G-vectors:       1.36 MB

     Dynamical RAM for          h,s,v(r/c):       2.91 MB

     Dynamical RAM for          <psi|beta>:       0.22 MB

     Dynamical RAM for                 psi:       2.80 MB

     Dynamical RAM for                hpsi:       2.80 MB

     Dynamical RAM for                spsi:       2.80 MB

     Dynamical RAM for      wfcinit/wfcrot:       1.49 MB

     Dynamical RAM for           addusdens:      12.65 MB

     Dynamical RAM for          addusforce:      22.17 MB

     Estimated static dynamical RAM per process >      28.95 MB

     Estimated max dynamical RAM per process >      89.97 MB

     Estimated total dynamical RAM >      26.96 GB

     Initial potential from superposition of free atoms

     starting charge      83.8710, renormalised to      84.0000

     negative rho (up, down):  2.658E-03 0.000E+00
     Starting wfcs are random
     Checking if some PAW data can be deallocated... 

     total cpu time spent up to now is       22.3 secs

     Self-consistent Calculation

     iteration #  1     ecut=    80.00 Ry     beta= 0.20
     Davidson diagonalization with overlap

---- Real-time Memory Report at c_bands before calling an iterative solver
           339 MiB given to the printing process from OS
             0 MiB allocation reported by mallinfo(arena+hblkhd)
        218436 MiB available memory on the node where the printing process lives
------------------
     c_bands:  1 eigenvalues not converged
     c_bands:  1 eigenvalues not converged
     ethr =  1.00E-12,  avg # of iterations =103.8

     negative rho (up, down):  2.008E-03 0.000E+00

     total cpu time spent up to now is      207.7 secs

     total energy              =    -421.07517153 Ry
     estimated scf accuracy    <       0.10410635 Ry

     total charge of GC-SCF    =      -0.01996306 e
     the Fermi energy          =      -4.35442921 eV
                        (error :       2.45042921 eV)
     electrostatic embedding   =       0.00000000 Ry
     cavitation energy         =       0.01812762 Ry
     electrolyte free energy   =       0.00664192 Ry
     correction to one-el term =      -0.00000000 Ry

     iteration #  2     ecut=    80.00 Ry     beta= 0.20
     Davidson diagonalization with overlap

---- Real-time Memory Report at c_bands before calling an iterative solver
           339 MiB given to the printing process from OS
             0 MiB allocation reported by mallinfo(arena+hblkhd)
        218515 MiB available memory on the node where the printing process lives
------------------
     ethr =  1.00E-05,  avg # of iterations = 10.8

     negative rho (up, down):  1.541E-03 0.000E+00

     add environment contribution to local potential

     total cpu time spent up to now is      231.6 secs

     total energy              =    -421.09192985 Ry
     estimated scf accuracy    <       0.03778576 Ry

     total charge of GC-SCF    =      -0.03024655 e
     the Fermi energy          =      -3.13762157 eV
                        (error :       1.23362157 eV)
     electrostatic embedding   =      -0.00017069 Ry
     cavitation energy         =       0.01812762 Ry
     electrolyte free energy   =       0.00664192 Ry
     correction to one-el term =      -0.00000000 Ry

     iteration #  3     ecut=    80.00 Ry     beta= 0.20
     Davidson diagonalization with overlap

---- Real-time Memory Report at c_bands before calling an iterative solver
           339 MiB given to the printing process from OS
             0 MiB allocation reported by mallinfo(arena+hblkhd)
        218441 MiB available memory on the node where the printing process lives
------------------
     ethr =  1.00E-05,  avg # of iterations = 23.3

     negative rho (up, down):  1.241E-03 0.000E+00

     add environment contribution to local potential

     total cpu time spent up to now is      270.1 secs

     total energy              =    -421.00797216 Ry
     estimated scf accuracy    <       0.03118172 Ry

     total charge of GC-SCF    =      -0.11390172 e
     the Fermi energy          =      -2.99796790 eV
                        (error :       1.09396790 eV)
     electrostatic embedding   =      -0.02300108 Ry
     cavitation energy         =       0.01812762 Ry
     electrolyte free energy   =      -0.00217865 Ry
     correction to one-el term =       1.59192843 Ry

     iteration #  4     ecut=    80.00 Ry     beta= 0.20
     Davidson diagonalization with overlap

---- Real-time Memory Report at c_bands before calling an iterative solver
           339 MiB given to the printing process from OS
             0 MiB allocation reported by mallinfo(arena+hblkhd)
        218425 MiB available memory on the node where the printing process lives
------------------
     ethr =  1.00E-05,  avg # of iterations = 12.4

     negative rho (up, down):  9.967E-04 0.000E+00

     add environment contribution to local potential

     total cpu time spent up to now is      296.6 secs

     total energy              =    -421.04729736 Ry
     estimated scf accuracy    <       0.01354143 Ry

     total charge of GC-SCF    =      -0.17903887 e
     the Fermi energy          =      -3.29992940 eV
                        (error :       1.39592940 eV)
     electrostatic embedding   =      -0.02911255 Ry
     cavitation energy         =       0.01812762 Ry
     electrolyte free energy   =      -0.00291128 Ry
     correction to one-el term =       5.58036762 Ry

     iteration #  5     ecut=    80.00 Ry     beta= 0.20
     Davidson diagonalization with overlap

---- Real-time Memory Report at c_bands before calling an iterative solver
           339 MiB given to the printing process from OS
             0 MiB allocation reported by mallinfo(arena+hblkhd)
        218404 MiB available memory on the node where the printing process lives
------------------
     ethr =  1.00E-05,  avg # of iterations = 18.6

     negative rho (up, down):  8.478E-04 0.000E+00

     add environment contribution to local potential

     total cpu time spent up to now is      331.8 secs

     total energy              =    -420.97018706 Ry
     estimated scf accuracy    <       0.00362333 Ry

     total charge of GC-SCF    =      -0.37249488 e
     the Fermi energy          =      -2.82239730 eV
                        (error :       0.91839730 eV)
     electrostatic embedding   =      -0.03471591 Ry
     cavitation energy         =       0.01812762 Ry
     electrolyte free energy   =      -0.00129098 Ry
     correction to one-el term =       8.11017992 Ry

     iteration #  6     ecut=    80.00 Ry     beta= 0.20
     Davidson diagonalization with overlap

---- Real-time Memory Report at c_bands before calling an iterative solver
           339 MiB given to the printing process from OS
             0 MiB allocation reported by mallinfo(arena+hblkhd)
        218399 MiB available memory on the node where the printing process lives
------------------
     ethr =  4.29E-06,  avg # of iterations = 24.4

     negative rho (up, down):  7.541E-04 0.000E+00

     add environment contribution to local potential

     total cpu time spent up to now is      370.4 secs

     total energy              =    -421.06164459 Ry
     estimated scf accuracy    <       0.00818920 Ry

     total charge of GC-SCF    =      -0.48321941 e
     the Fermi energy          =      -2.23701625 eV
                        (error :       0.33301625 eV)
     electrostatic embedding   =      -0.07062352 Ry
     cavitation energy         =       0.01812762 Ry
     electrolyte free energy   =      -0.00065062 Ry
     correction to one-el term =      17.72288602 Ry

     iteration #  7     ecut=    80.00 Ry     beta= 0.20
     Davidson diagonalization with overlap

---- Real-time Memory Report at c_bands before calling an iterative solver
           339 MiB given to the printing process from OS
             0 MiB allocation reported by mallinfo(arena+hblkhd)
        218418 MiB available memory on the node where the printing process lives
------------------
     ethr =  4.29E-06,  avg # of iterations =  8.3

     negative rho (up, down):  7.407E-04 0.000E+00

     add environment contribution to local potential

     total cpu time spent up to now is      388.9 secs

     total energy              =    -421.00584907 Ry
     estimated scf accuracy    <       0.01066051 Ry

     total charge of GC-SCF    =      -0.78199718 e
     the Fermi energy          =      -2.13800520 eV
                        (error :       0.23400520 eV)
     electrostatic embedding   =      -0.10169582 Ry
     cavitation energy         =       0.01812762 Ry
     electrolyte free energy   =      -0.00105100 Ry
     correction to one-el term =      22.19670411 Ry

     iteration #  8     ecut=    80.00 Ry     beta= 0.20
     Davidson diagonalization with overlap

---- Real-time Memory Report at c_bands before calling an iterative solver
           339 MiB given to the printing process from OS
             0 MiB allocation reported by mallinfo(arena+hblkhd)
        218342 MiB available memory on the node where the printing process lives
------------------
     ethr =  4.29E-06,  avg # of iterations = 10.2

     negative rho (up, down):  6.814E-04 0.000E+00

     add environment contribution to local potential

     total cpu time spent up to now is      412.5 secs

     total energy              =    -421.06527744 Ry
     estimated scf accuracy    <       0.00083952 Ry

     total charge of GC-SCF    =      -0.88348511 e
     the Fermi energy          =      -2.34499959 eV
                        (error :       0.44099959 eV)
     electrostatic embedding   =      -0.21791452 Ry
     cavitation energy         =       0.01812762 Ry
     electrolyte free energy   =      -0.00119010 Ry
     correction to one-el term =      33.05096215 Ry

     iteration #  9     ecut=    80.00 Ry     beta= 0.20
     Davidson diagonalization with overlap

---- Real-time Memory Report at c_bands before calling an iterative solver
           339 MiB given to the printing process from OS
             0 MiB allocation reported by mallinfo(arena+hblkhd)
        218302 MiB available memory on the node where the printing process lives
------------------
     ethr =  9.89E-07,  avg # of iterations =  7.2

     negative rho (up, down):  5.879E-04 0.000E+00

     add environment contribution to local potential

     total cpu time spent up to now is      430.8 secs

     total energy              =    -421.06586673 Ry
     estimated scf accuracy    <       0.00069536 Ry

     total charge of GC-SCF    =      -1.05706893 e
     the Fermi energy          =      -2.32118118 eV
                        (error :       0.41718118 eV)
     electrostatic embedding   =      -0.26522166 Ry
     cavitation energy         =       0.01812762 Ry
     electrolyte free energy   =      -0.00152768 Ry
     correction to one-el term =      36.74950379 Ry

     iteration # 10     ecut=    80.00 Ry     beta= 0.20
     Davidson diagonalization with overlap

---- Real-time Memory Report at c_bands before calling an iterative solver
           339 MiB given to the printing process from OS
             0 MiB allocation reported by mallinfo(arena+hblkhd)
        218233 MiB available memory on the node where the printing process lives
------------------
     ethr =  8.18E-07,  avg # of iterations = 14.5

     negative rho (up, down):  5.385E-04 0.000E+00

     add environment contribution to local potential

     total cpu time spent up to now is      459.2 secs

     total energy              =    -421.09026339 Ry
     estimated scf accuracy    <       0.00632635 Ry

     total charge of GC-SCF    =      -1.08902976 e
     the Fermi energy          =      -2.11460943 eV
                        (error :       0.21060943 eV)
     electrostatic embedding   =      -0.34748775 Ry
     cavitation energy         =       0.01812762 Ry
     electrolyte free energy   =      -0.00260490 Ry
     correction to one-el term =      42.63829604 Ry

     iteration # 11     ecut=    80.00 Ry     beta= 0.20
     Davidson diagonalization with overlap

---- Real-time Memory Report at c_bands before calling an iterative solver
           339 MiB given to the printing process from OS
             0 MiB allocation reported by mallinfo(arena+hblkhd)
        218249 MiB available memory on the node where the printing process lives
------------------
     ethr =  8.18E-07,  avg # of iterations =  6.9

     negative rho (up, down):  5.187E-04 0.000E+00

     add environment contribution to local potential

     total cpu time spent up to now is      474.1 secs

     total energy              =    -421.05013077 Ry
     estimated scf accuracy    <       0.00576196 Ry

     total charge of GC-SCF    =      -1.36822762 e
     the Fermi energy          =      -2.13561002 eV
                        (error :       0.23161002 eV)
     electrostatic embedding   =      -0.36477486 Ry
     cavitation energy         =       0.01812762 Ry
     electrolyte free energy   =      -0.00265340 Ry
     correction to one-el term =      43.63797404 Ry

     iteration # 12     ecut=    80.00 Ry     beta= 0.20
     Davidson diagonalization with overlap

---- Real-time Memory Report at c_bands before calling an iterative solver
           339 MiB given to the printing process from OS
             0 MiB allocation reported by mallinfo(arena+hblkhd)
        218253 MiB available memory on the node where the printing process lives
------------------
     ethr =  8.18E-07,  avg # of iterations = 13.0

     negative rho (up, down):  4.643E-04 0.000E+00

     add environment contribution to local potential

     total cpu time spent up to now is      501.0 secs

     total energy              =    -421.07791165 Ry
     estimated scf accuracy    <       0.00038446 Ry

     total charge of GC-SCF    =      -1.60918215 e
     the Fermi energy          =      -2.28863682 eV
                        (error :       0.38463682 eV)
     electrostatic embedding   =      -0.54310187 Ry
     cavitation energy         =       0.01812762 Ry
     electrolyte free energy   =      -0.00364121 Ry
     correction to one-el term =      52.97250922 Ry

     iteration # 13     ecut=    80.00 Ry     beta= 0.20
     Davidson diagonalization with overlap

---- Real-time Memory Report at c_bands before calling an iterative solver
           339 MiB given to the printing process from OS
             0 MiB allocation reported by mallinfo(arena+hblkhd)
        218260 MiB available memory on the node where the printing process lives
------------------
     ethr =  4.49E-07,  avg # of iterations = 12.1

     negative rho (up, down):  4.236E-04 0.000E+00

     add environment contribution to local potential

     total cpu time spent up to now is      528.6 secs

     total energy              =    -421.10688369 Ry
     estimated scf accuracy    <       0.00017804 Ry

     total charge of GC-SCF    =      -1.61511035 e
     the Fermi energy          =      -2.28739328 eV
                        (error :       0.38339328 eV)
     electrostatic embedding   =      -0.71801617 Ry
     cavitation energy         =       0.01812762 Ry
     electrolyte free energy   =      -0.00528177 Ry
     correction to one-el term =      60.92681853 Ry

     iteration # 14     ecut=    80.00 Ry     beta= 0.20
     Davidson diagonalization with overlap

---- Real-time Memory Report at c_bands before calling an iterative solver
           339 MiB given to the printing process from OS
             0 MiB allocation reported by mallinfo(arena+hblkhd)
        218269 MiB available memory on the node where the printing process lives
------------------
     ethr =  2.08E-07,  avg # of iterations = 10.1

     negative rho (up, down):  4.033E-04 0.000E+00

     add environment contribution to local potential

     total cpu time spent up to now is      552.7 secs

     total energy              =    -421.10808665 Ry
     estimated scf accuracy    <       0.00042640 Ry

     total charge of GC-SCF    =      -1.60675163 e
     the Fermi energy          =      -2.22960242 eV
                        (error :       0.32560242 eV)
     electrostatic embedding   =      -0.71683200 Ry
     cavitation energy         =       0.01812762 Ry
     electrolyte free energy   =      -0.00537490 Ry
     correction to one-el term =      61.05027798 Ry

     iteration # 15     ecut=    80.00 Ry     beta= 0.20
     Davidson diagonalization with overlap

---- Real-time Memory Report at c_bands before calling an iterative solver
           339 MiB given to the printing process from OS
             0 MiB allocation reported by mallinfo(arena+hblkhd)
        218259 MiB available memory on the node where the printing process lives
------------------
     ethr =  2.08E-07,  avg # of iterations =  6.6

     negative rho (up, down):  3.753E-04 0.000E+00

     add environment contribution to local potential

     total cpu time spent up to now is      568.9 secs

     total energy              =    -421.09592443 Ry
     estimated scf accuracy    <       0.00031975 Ry

     total charge of GC-SCF    =      -1.71359737 e
     the Fermi energy          =      -2.24477427 eV
                        (error :       0.34077427 eV)
     electrostatic embedding   =      -0.71019237 Ry
     cavitation energy         =       0.01812762 Ry
     electrolyte free energy   =      -0.00527200 Ry
     correction to one-el term =      60.69532342 Ry

     iteration # 16     ecut=    80.00 Ry     beta= 0.20
     Davidson diagonalization with overlap

---- Real-time Memory Report at c_bands before calling an iterative solver
           339 MiB given to the printing process from OS
             0 MiB allocation reported by mallinfo(arena+hblkhd)
        218258 MiB available memory on the node where the printing process lives
------------------
     ethr =  2.08E-07,  avg # of iterations =  9.2

     negative rho (up, down):  3.627E-04 0.000E+00

     add environment contribution to local potential

     total cpu time spent up to now is      590.7 secs

     total energy              =    -421.09320178 Ry
     estimated scf accuracy    <       0.00017067 Ry

     total charge of GC-SCF    =      -2.00330379 e
     the Fermi energy          =      -2.24378803 eV
                        (error :       0.33978803 eV)
     electrostatic embedding   =      -0.79420160 Ry
     cavitation energy         =       0.01812762 Ry
     electrolyte free energy   =      -0.00614551 Ry
     correction to one-el term =      64.18231643 Ry

     iteration # 17     ecut=    80.00 Ry     beta= 0.20
     Davidson diagonalization with overlap

---- Real-time Memory Report at c_bands before calling an iterative solver
           339 MiB given to the printing process from OS
             0 MiB allocation reported by mallinfo(arena+hblkhd)
        218250 MiB available memory on the node where the printing process lives
------------------
     ethr =  1.98E-07,  avg # of iterations = 14.2

     negative rho (up, down):  3.509E-04 0.000E+00

     add environment contribution to local potential

     total cpu time spent up to now is      618.1 secs

     total energy              =    -421.11860872 Ry
     estimated scf accuracy    <       0.00011962 Ry

     total charge of GC-SCF    =      -1.99192299 e
     the Fermi energy          =      -2.20560039 eV
                        (error :       0.30160039 eV)
     electrostatic embedding   =      -1.04424655 Ry
     cavitation energy         =       0.01812762 Ry
     electrolyte free energy   =      -0.00918374 Ry
     correction to one-el term =      73.67679211 Ry

     iteration # 18     ecut=    80.00 Ry     beta= 0.20
     Davidson diagonalization with overlap

---- Real-time Memory Report at c_bands before calling an iterative solver
           339 MiB given to the printing process from OS
             0 MiB allocation reported by mallinfo(arena+hblkhd)
        218233 MiB available memory on the node where the printing process lives
------------------
     ethr =  1.39E-07,  avg # of iterations =  1.6

     negative rho (up, down):  3.310E-04 0.000E+00

     add environment contribution to local potential

     total cpu time spent up to now is      630.5 secs

     total energy              =    -421.12582352 Ry
     estimated scf accuracy    <       0.00011449 Ry

     total charge of GC-SCF    =      -1.92236857 e
     the Fermi energy          =      -2.20842981 eV
                        (error :       0.30442981 eV)
     electrostatic embedding   =      -1.03310314 Ry
     cavitation energy         =       0.01812762 Ry
     electrolyte free energy   =      -0.00903361 Ry
     correction to one-el term =      73.25321933 Ry

     iteration # 19     ecut=    80.00 Ry     beta= 0.20
     Davidson diagonalization with overlap

---- Real-time Memory Report at c_bands before calling an iterative solver
           339 MiB given to the printing process from OS
             0 MiB allocation reported by mallinfo(arena+hblkhd)
        218214 MiB available memory on the node where the printing process lives
------------------
     ethr =  1.33E-07,  avg # of iterations =  8.5

     negative rho (up, down):  2.986E-04 0.000E+00

     add environment contribution to local potential

     total cpu time spent up to now is      651.5 secs

     total energy              =    -421.10159140 Ry
     estimated scf accuracy    <       0.00012158 Ry

     total charge of GC-SCF    =      -2.21245086 e
     the Fermi energy          =      -2.22033655 eV
                        (error :       0.31633655 eV)
     electrostatic embedding   =      -0.96573039 Ry
     cavitation energy         =       0.01812762 Ry
     electrolyte free energy   =      -0.00817066 Ry
     correction to one-el term =      70.69386842 Ry

     iteration # 20     ecut=    80.00 Ry     beta= 0.20
     Davidson diagonalization with overlap

---- Real-time Memory Report at c_bands before calling an iterative solver
           339 MiB given to the printing process from OS
             0 MiB allocation reported by mallinfo(arena+hblkhd)
        218217 MiB available memory on the node where the printing process lives
------------------
     ethr =  1.33E-07,  avg # of iterations = 18.5

     negative rho (up, down):  3.061E-04 0.000E+00

     add environment contribution to local potential

     total cpu time spent up to now is      685.5 secs

     total energy              =    -421.11295814 Ry
     estimated scf accuracy    <       0.00009732 Ry

     total charge of GC-SCF    =      -2.37388172 e
     the Fermi energy          =      -2.17055781 eV
                        (error :       0.26655781 eV)
     electrostatic embedding   =      -1.22884436 Ry
     cavitation energy         =       0.01812762 Ry
     electrolyte free energy   =      -0.01188594 Ry
     correction to one-el term =      79.56077940 Ry

     iteration # 21     ecut=    80.00 Ry     beta= 0.20
     Davidson diagonalization with overlap

---- Real-time Memory Report at c_bands before calling an iterative solver
           339 MiB given to the printing process from OS
             0 MiB allocation reported by mallinfo(arena+hblkhd)
        218176 MiB available memory on the node where the printing process lives
------------------
     ethr =  1.13E-07,  avg # of iterations = 13.0

     negative rho (up, down):  2.835E-04 0.000E+00

     add environment contribution to local potential

     total cpu time spent up to now is      713.4 secs

     total energy              =    -421.12124202 Ry
     estimated scf accuracy    <       0.00010097 Ry

     total charge of GC-SCF    =      -2.73796652 e
     the Fermi energy          =      -2.14029917 eV
                        (error :       0.23629917 eV)
     electrostatic embedding   =      -1.38551817 Ry
     cavitation energy         =       0.01812762 Ry
     electrolyte free energy   =      -0.01443136 Ry
     correction to one-el term =      84.26481095 Ry

     iteration # 22     ecut=    80.00 Ry     beta= 0.20
     Davidson diagonalization with overlap

---- Real-time Memory Report at c_bands before calling an iterative solver
           339 MiB given to the printing process from OS
             0 MiB allocation reported by mallinfo(arena+hblkhd)
        218187 MiB available memory on the node where the printing process lives
------------------
     ethr =  1.13E-07,  avg # of iterations = 17.2

     negative rho (up, down):  2.826E-04 0.000E+00

     add environment contribution to local potential

     total cpu time spent up to now is      744.5 secs

     total energy              =    -421.15481007 Ry
     estimated scf accuracy    <       0.00006342 Ry

     total charge of GC-SCF    =      -2.49939031 e
     the Fermi energy          =      -2.06832347 eV
                        (error :       0.16432347 eV)
     electrostatic embedding   =      -1.78775279 Ry
     cavitation energy         =       0.01812762 Ry
     electrolyte free energy   =      -0.02174958 Ry
     correction to one-el term =      95.54264079 Ry

     iteration # 23     ecut=    80.00 Ry     beta= 0.20
     Davidson diagonalization with overlap

---- Real-time Memory Report at c_bands before calling an iterative solver
           339 MiB given to the printing process from OS
             0 MiB allocation reported by mallinfo(arena+hblkhd)
        218182 MiB available memory on the node where the printing process lives
------------------
     ethr =  7.33E-08,  avg # of iterations = 14.2

     negative rho (up, down):  2.643E-04 0.000E+00

     add environment contribution to local potential

     total cpu time spent up to now is      772.6 secs

     total energy              =    -421.14030208 Ry
     estimated scf accuracy    <       0.00008209 Ry

     total charge of GC-SCF    =      -3.02025948 e
     the Fermi energy          =      -2.12676310 eV
                        (error :       0.22276310 eV)
     electrostatic embedding   =      -1.51096470 Ry
     cavitation energy         =       0.01812762 Ry
     electrolyte free energy   =      -0.01664005 Ry
     correction to one-el term =      87.69577580 Ry

     iteration # 24     ecut=    80.00 Ry     beta= 0.20
     Davidson diagonalization with overlap

---- Real-time Memory Report at c_bands before calling an iterative solver
           339 MiB given to the printing process from OS
             0 MiB allocation reported by mallinfo(arena+hblkhd)
        218151 MiB available memory on the node where the printing process lives
------------------
     ethr =  7.33E-08,  avg # of iterations = 19.9

     negative rho (up, down):  2.537E-04 0.000E+00

     add environment contribution to local potential

     total cpu time spent up to now is      810.2 secs

     total energy              =    -421.13562164 Ry
     estimated scf accuracy    <       0.00003217 Ry

     total charge of GC-SCF    =      -3.25606761 e
     the Fermi energy          =      -2.01319776 eV
                        (error :       0.10919776 eV)
     electrostatic embedding   =      -2.11432921 Ry
     cavitation energy         =       0.01812762 Ry
     electrolyte free energy   =      -0.02884942 Ry
     correction to one-el term =     103.23303127 Ry

     iteration # 25     ecut=    80.00 Ry     beta= 0.20
     Davidson diagonalization with overlap

---- Real-time Memory Report at c_bands before calling an iterative solver
           339 MiB given to the printing process from OS
             0 MiB allocation reported by mallinfo(arena+hblkhd)
        218147 MiB available memory on the node where the printing process lives
------------------
     ethr =  3.69E-08,  avg # of iterations = 19.5

     negative rho (up, down):  2.512E-04 0.000E+00

     add environment contribution to local potential

     total cpu time spent up to now is      845.3 secs

     total energy              =    -421.13543251 Ry
     estimated scf accuracy    <       0.00001693 Ry

     total charge of GC-SCF    =      -3.21129133 e
     the Fermi energy          =      -1.94773291 eV
                        (error :       0.04373291 eV)
     electrostatic embedding   =      -2.40861360 Ry
     cavitation energy         =       0.01812762 Ry
     electrolyte free energy   =      -0.03602657 Ry
     correction to one-el term =     109.74173142 Ry

     iteration # 26     ecut=    80.00 Ry     beta= 0.20
     Davidson diagonalization with overlap

---- Real-time Memory Report at c_bands before calling an iterative solver
           339 MiB given to the printing process from OS
             0 MiB allocation reported by mallinfo(arena+hblkhd)
        218157 MiB available memory on the node where the printing process lives
------------------
     ethr =  1.94E-08,  avg # of iterations = 10.5

     negative rho (up, down):  2.455E-04 0.000E+00

     add environment contribution to local potential

     total cpu time spent up to now is      870.2 secs

     total energy              =    -421.13498317 Ry
     estimated scf accuracy    <       0.00001495 Ry

     total charge of GC-SCF    =      -3.33701300 e
     the Fermi energy          =      -1.96630827 eV
                        (error :       0.06230827 eV)
     electrostatic embedding   =      -2.34300033 Ry
     cavitation energy         =       0.01812762 Ry
     electrolyte free energy   =      -0.03450399 Ry
     correction to one-el term =     108.10059431 Ry

     iteration # 27     ecut=    80.00 Ry     beta= 0.20
     Davidson diagonalization with overlap

---- Real-time Memory Report at c_bands before calling an iterative solver
           339 MiB given to the printing process from OS
             0 MiB allocation reported by mallinfo(arena+hblkhd)
        218159 MiB available memory on the node where the printing process lives
------------------
     ethr =  1.71E-08,  avg # of iterations = 15.2

     negative rho (up, down):  2.415E-04 0.000E+00

     add environment contribution to local potential

     total cpu time spent up to now is      899.1 secs

     total energy              =    -421.13622671 Ry
     estimated scf accuracy    <       0.00000843 Ry

     total charge of GC-SCF    =      -3.45316656 e
     the Fermi energy          =      -1.93404099 eV
                        (error :       0.03004099 eV)
     electrostatic embedding   =      -2.50454312 Ry
     cavitation energy         =       0.01812762 Ry
     electrolyte free energy   =      -0.03866121 Ry
     correction to one-el term =     111.48754134 Ry

     iteration # 28     ecut=    80.00 Ry     beta= 0.20
     Davidson diagonalization with overlap

---- Real-time Memory Report at c_bands before calling an iterative solver
           339 MiB given to the printing process from OS
             0 MiB allocation reported by mallinfo(arena+hblkhd)
        218160 MiB available memory on the node where the printing process lives
------------------
     ethr =  9.63E-09,  avg # of iterations = 17.1

     negative rho (up, down):  2.422E-04 0.000E+00

     add environment contribution to local potential

     total cpu time spent up to now is      928.8 secs

     total energy              =    -421.13703513 Ry
     estimated scf accuracy    <       0.00000558 Ry

     total charge of GC-SCF    =      -3.34904090 e
     the Fermi energy          =      -1.90668673 eV
                        (error :       0.00268673 eV)
     electrostatic embedding   =      -2.65872821 Ry
     cavitation energy         =       0.01812762 Ry
     electrolyte free energy   =      -0.04281634 Ry
     correction to one-el term =     114.65391149 Ry

     iteration # 29     ecut=    80.00 Ry     beta= 0.20
     Davidson diagonalization with overlap

---- Real-time Memory Report at c_bands before calling an iterative solver
           339 MiB given to the printing process from OS
             0 MiB allocation reported by mallinfo(arena+hblkhd)
        218156 MiB available memory on the node where the printing process lives
------------------
     ethr =  6.39E-09,  avg # of iterations = 17.3

     negative rho (up, down):  2.390E-04 0.000E+00

     add environment contribution to local potential

     total cpu time spent up to now is      960.8 secs

     total energy              =    -421.13592199 Ry
     estimated scf accuracy    <       0.00000448 Ry

     total charge of GC-SCF    =      -3.45400683 e
     the Fermi energy          =      -1.93787562 eV
                        (error :       0.03387562 eV)
     electrostatic embedding   =      -2.50801264 Ry
     cavitation energy         =       0.01812762 Ry
     electrolyte free energy   =      -0.03899017 Ry
     correction to one-el term =     111.28578816 Ry

     iteration # 30     ecut=    80.00 Ry     beta= 0.20
     Davidson diagonalization with overlap

---- Real-time Memory Report at c_bands before calling an iterative solver
           339 MiB given to the printing process from OS
             0 MiB allocation reported by mallinfo(arena+hblkhd)
        218122 MiB available memory on the node where the printing process lives
------------------
     ethr =  5.12E-09,  avg # of iterations = 18.1

     negative rho (up, down):  2.364E-04 0.000E+00

     add environment contribution to local potential

     total cpu time spent up to now is      992.8 secs

     total energy              =    -421.13543421 Ry
     estimated scf accuracy    <       0.00000153 Ry

     total charge of GC-SCF    =      -3.41360535 e
     the Fermi energy          =      -1.90804789 eV
                        (error :       0.00404789 eV)
     electrostatic embedding   =      -2.65016479 Ry
     cavitation energy         =       0.01812762 Ry
     electrolyte free energy   =      -0.04278249 Ry
     correction to one-el term =     114.25736479 Ry

     iteration # 31     ecut=    80.00 Ry     beta= 0.20
     Davidson diagonalization with overlap

---- Real-time Memory Report at c_bands before calling an iterative solver
           339 MiB given to the printing process from OS
             0 MiB allocation reported by mallinfo(arena+hblkhd)
        218108 MiB available memory on the node where the printing process lives
------------------
     ethr =  1.76E-09,  avg # of iterations = 17.4

     negative rho (up, down):  2.347E-04 0.000E+00

     add environment contribution to local potential

     total cpu time spent up to now is     1023.0 secs

     total energy              =    -421.13501690 Ry
     estimated scf accuracy    <       0.00000138 Ry

     total charge of GC-SCF    =      -3.43999469 e
     the Fermi energy          =      -1.92146935 eV
                        (error :       0.01746935 eV)
     electrostatic embedding   =      -2.58904971 Ry
     cavitation energy         =       0.01812762 Ry
     electrolyte free energy   =      -0.04125222 Ry
     correction to one-el term =     112.86100365 Ry

     iteration # 32     ecut=    80.00 Ry     beta= 0.20
     Davidson diagonalization with overlap

---- Real-time Memory Report at c_bands before calling an iterative solver
           339 MiB given to the printing process from OS
             0 MiB allocation reported by mallinfo(arena+hblkhd)
        218127 MiB available memory on the node where the printing process lives
------------------
     ethr =  1.57E-09,  avg # of iterations = 10.7

     negative rho (up, down):  2.331E-04 0.000E+00

     add environment contribution to local potential

     total cpu time spent up to now is     1049.3 secs

     total energy              =    -421.13527508 Ry
     estimated scf accuracy    <       0.00000068 Ry

     total charge of GC-SCF    =      -3.48519812 e
     the Fermi energy          =      -1.91460117 eV
                        (error :       0.01060117 eV)
     electrostatic embedding   =      -2.62390260 Ry
     cavitation energy         =       0.01812762 Ry
     electrolyte free energy   =      -0.04221347 Ry
     correction to one-el term =     113.56529775 Ry

     iteration # 33     ecut=    80.00 Ry     beta= 0.20
     Davidson diagonalization with overlap

---- Real-time Memory Report at c_bands before calling an iterative solver
           339 MiB given to the printing process from OS
             0 MiB allocation reported by mallinfo(arena+hblkhd)
        218132 MiB available memory on the node where the printing process lives
------------------
     ethr =  7.79E-10,  avg # of iterations = 18.3

     negative rho (up, down):  2.328E-04 0.000E+00

     add environment contribution to local potential

     total cpu time spent up to now is     1083.3 secs

     total energy              =    -421.13507318 Ry
     estimated scf accuracy    <       0.00000016 Ry

     total charge of GC-SCF    =      -3.48404155 e
     the Fermi energy          =      -1.90254033 eV
                        (error :       0.00145967 eV)
     electrostatic embedding   =      -2.68538590 Ry
     cavitation energy         =       0.01812762 Ry
     electrolyte free energy   =      -0.04390587 Ry
     correction to one-el term =     114.82726877 Ry

     iteration # 34     ecut=    80.00 Ry     beta= 0.20
     Davidson diagonalization with overlap

---- Real-time Memory Report at c_bands before calling an iterative solver
           339 MiB given to the printing process from OS
             0 MiB allocation reported by mallinfo(arena+hblkhd)
        218121 MiB available memory on the node where the printing process lives
------------------
     ethr =  1.84E-10,  avg # of iterations =  9.7

     negative rho (up, down):  2.326E-04 0.000E+00

     add environment contribution to local potential

     total cpu time spent up to now is     1106.9 secs

     total energy              =    -421.13507403 Ry
     estimated scf accuracy    <       0.00000006 Ry

     total charge of GC-SCF    =      -3.48218439 e
     the Fermi energy          =      -1.90263531 eV
                        (error :       0.00136469 eV)
     electrostatic embedding   =      -2.68324447 Ry
     cavitation energy         =       0.01812762 Ry
     electrolyte free energy   =      -0.04385834 Ry
     correction to one-el term =     114.77092121 Ry

     iteration # 35     ecut=    80.00 Ry     beta= 0.20
     Davidson diagonalization with overlap

---- Real-time Memory Report at c_bands before calling an iterative solver
           339 MiB given to the printing process from OS
             0 MiB allocation reported by mallinfo(arena+hblkhd)
        218122 MiB available memory on the node where the printing process lives
------------------
     ethr =  6.76E-11,  avg # of iterations =  9.7

     negative rho (up, down):  2.318E-04 0.000E+00

     total cpu time spent up to now is     1126.4 secs

     End of self-consistent calculation

          k = 0.0000 0.0000 0.0000 (186229 PWs)   bands (ev):

   -48.8204 -48.8193 -48.8124 -48.8113 -48.7099 -48.7082 -48.7018 -48.7001
   -48.4860 -48.4836 -48.4778 -48.4754 -48.4334 -48.4284 -48.4241 -48.4208
   -48.4067 -48.4026 -48.3979 -48.3953 -48.3823 -48.3793 -48.3740 -48.3722
   -48.3711 -48.3692 -48.3645 -48.3616  -5.3605  -5.0312  -4.4986  -3.8527
    -3.3322  -3.3230  -3.1760  -2.9886  -2.9865  -2.4876  -2.4250  -2.3775
    -2.1754  -2.1429  -1.9781  -1.8898  -1.8688  -1.5514  -1.5476  -1.5355
    -1.5103  -1.4229  -1.2133  -0.9774  -0.8842  -0.8602  -0.5740  -0.4468
    -0.3588  -0.1008  -0.0917   0.0305   0.2149   0.2198   0.3921

     occupation numbers 
     1.0000   1.0000   1.0000   1.0000   1.0000   1.0000   1.0000   1.0000
     1.0000   1.0000   1.0000   1.0000   1.0000   1.0000   1.0000   1.0000
     1.0000   1.0000   1.0000   1.0000   1.0000   1.0000   1.0000   1.0000
     1.0000   1.0000   1.0000   1.0000   1.0000   1.0000   1.0000   1.0000
     1.0000   1.0000   1.0000   1.0000   1.0000   1.0000   1.0000   1.0001
     1.0411   1.0633   0.8020   0.3357   0.2460   0.0000   0.0000   0.0000
     0.0000   0.0000   0.0000   0.0000   0.0000   0.0000   0.0000   0.0000
     0.0000   0.0000   0.0000   0.0000   0.0000   0.0000   0.0000

          k = 0.0000 0.0891 0.0000 (186265 PWs)   bands (ev):

   -48.8204 -48.8193 -48.8124 -48.8113 -48.7099 -48.7082 -48.7018 -48.7001
   -48.4860 -48.4836 -48.4778 -48.4754 -48.4334 -48.4284 -48.4241 -48.4208
   -48.4069 -48.4025 -48.3979 -48.3953 -48.3823 -48.3793 -48.3740 -48.3722
   -48.3711 -48.3692 -48.3645 -48.3615  -5.3354  -5.0058  -4.4726  -3.8296
    -3.7440  -3.4068  -3.1480  -2.8681  -2.8531  -2.5348  -2.3676  -2.2373
    -2.2037  -2.0741  -1.9960  -1.9139  -1.8069  -1.5941  -1.5750  -1.5167
    -1.4561  -1.4115  -1.2434  -0.9971  -0.8919  -0.7800  -0.5935  -0.4166
    -0.3015  -0.1965  -0.0678   0.0626   0.2229   0.2285   0.3841

     occupation numbers 
     1.0000   1.0000   1.0000   1.0000   1.0000   1.0000   1.0000   1.0000
     1.0000   1.0000   1.0000   1.0000   1.0000   1.0000   1.0000   1.0000
     1.0000   1.0000   1.0000   1.0000   1.0000   1.0000   1.0000   1.0000
     1.0000   1.0000   1.0000   1.0000   1.0000   1.0000   1.0000   1.0000
     1.0000   1.0000   1.0000   1.0000   1.0000   1.0000   1.0002   1.0121
     1.0250   1.0764   0.8845   0.4561   0.0766   0.0001   0.0000   0.0000
     0.0000   0.0000   0.0000   0.0000   0.0000   0.0000   0.0000   0.0000
     0.0000   0.0000   0.0000   0.0000   0.0000   0.0000   0.0000

          k = 0.0000 0.1782 0.0000 (186243 PWs)   bands (ev):

   -48.8204 -48.8193 -48.8124 -48.8113 -48.7099 -48.7082 -48.7018 -48.7001
   -48.4860 -48.4836 -48.4778 -48.4754 -48.4333 -48.4284 -48.4241 -48.4208
   -48.4072 -48.4023 -48.3980 -48.3952 -48.3823 -48.3793 -48.3740 -48.3721
   -48.3712 -48.3691 -48.3645 -48.3615  -5.2598  -4.9296  -4.3952  -4.1258
    -3.7827  -3.7407  -3.2243  -3.0654  -2.5599  -2.3791  -2.3026  -2.2041
    -2.1023  -1.9607  -1.9098  -1.8611  -1.7092  -1.6701  -1.6156  -1.4519
    -1.3942  -1.3574  -1.3081  -0.9747  -0.9157  -0.6744  -0.6333  -0.3795
    -0.3740  -0.1480  -0.0461   0.0351   0.1505   0.3084   0.3573

     occupation numbers 
     1.0000   1.0000   1.0000   1.0000   1.0000   1.0000   1.0000   1.0000
     1.0000   1.0000   1.0000   1.0000   1.0000   1.0000   1.0000   1.0000
     1.0000   1.0000   1.0000   1.0000   1.0000   1.0000   1.0000   1.0000
     1.0000   1.0000   1.0000   1.0000   1.0000   1.0000   1.0000   1.0000
     1.0000   1.0000   1.0000   1.0000   1.0000   1.0001   1.0020   1.0248
     1.0828   0.7117   0.4344   0.2172   0.0055   0.0014   0.0002   0.0000
     0.0000   0.0000   0.0000   0.0000   0.0000   0.0000   0.0000   0.0000
     0.0000   0.0000   0.0000   0.0000   0.0000   0.0000   0.0000

          k = 0.0000 0.2673 0.0000 (186330 PWs)   bands (ev):

   -48.8204 -48.8193 -48.8124 -48.8113 -48.7099 -48.7082 -48.7018 -48.7001
   -48.4860 -48.4836 -48.4778 -48.4754 -48.4333 -48.4284 -48.4241 -48.4208
   -48.4076 -48.4020 -48.3981 -48.3952 -48.3824 -48.3793 -48.3740 -48.3721
   -48.3712 -48.3691 -48.3645 -48.3615  -5.1339  -4.8031  -4.4520  -4.2728
    -4.1015  -3.6256  -3.5347  -2.9355  -2.8760  -2.2646  -2.1668  -2.1510
    -1.9302  -1.9149  -1.8050  -1.7398  -1.6418  -1.5840  -1.5371  -1.4731
    -1.3529  -1.2823  -1.1306  -1.0789  -0.8450  -0.8345  -0.5453  -0.5244
    -0.3292  -0.3185   0.0340   0.1971   0.2624   0.3495   0.3541

     occupation numbers 
     1.0000   1.0000   1.0000   1.0000   1.0000   1.0000   1.0000   1.0000
     1.0000   1.0000   1.0000   1.0000   1.0000   1.0000   1.0000   1.0000
     1.0000   1.0000   1.0000   1.0000   1.0000   1.0000   1.0000   1.0000
     1.0000   1.0000   1.0000   1.0000   1.0000   1.0000   1.0000   1.0000
     1.0000   1.0000   1.0000   1.0000   1.0000   1.0060   1.0469   1.0577
     0.5439   0.4610   0.0734   0.0140   0.0005   0.0000   0.0000   0.0000
     0.0000   0.0000   0.0000   0.0000   0.0000   0.0000   0.0000   0.0000
     0.0000   0.0000   0.0000   0.0000   0.0000   0.0000   0.0000

          k = 0.0000 0.3563 0.0000 (186318 PWs)   bands (ev):

   -48.8204 -48.8193 -48.8124 -48.8113 -48.7099 -48.7082 -48.7018 -48.7001
   -48.4860 -48.4836 -48.4778 -48.4754 -48.4332 -48.4284 -48.4241 -48.4208
   -48.4078 -48.4019 -48.3981 -48.3951 -48.3824 -48.3793 -48.3740 -48.3721
   -48.3712 -48.3691 -48.3645 -48.3615  -4.9577  -4.7333  -4.6215  -4.3981
    -4.0729  -3.8438  -3.4097  -3.1709  -2.7410  -2.5026  -2.0986  -2.0565
    -1.9987  -1.7908  -1.7194  -1.6637  -1.5988  -1.5282  -1.4818  -1.2940
    -1.2210  -1.1801  -1.0718  -1.0471  -1.0402  -0.7483  -0.6803  -0.5296
    -0.4430  -0.3264   0.1066   0.2037   0.3361   0.4294   0.5424

     occupation numbers 
     1.0000   1.0000   1.0000   1.0000   1.0000   1.0000   1.0000   1.0000
     1.0000   1.0000   1.0000   1.0000   1.0000   1.0000   1.0000   1.0000
     1.0000   1.0000   1.0000   1.0000   1.0000   1.0000   1.0000   1.0000
     1.0000   1.0000   1.0000   1.0000   1.0000   1.0000   1.0000   1.0000
     1.0000   1.0000   1.0000   1.0000   1.0000   1.0000   1.0832   1.0582
     0.8961   0.0531   0.0076   0.0011   0.0001   0.0000   0.0000   0.0000
     0.0000   0.0000   0.0000   0.0000   0.0000   0.0000   0.0000   0.0000
     0.0000   0.0000   0.0000   0.0000   0.0000   0.0000   0.0000

          k = 0.0909 0.0121 0.0000 (186373 PWs)   bands (ev):

   -48.8203 -48.8192 -48.8125 -48.8114 -48.7097 -48.7080 -48.7020 -48.7003
   -48.4858 -48.4835 -48.4780 -48.4756 -48.4332 -48.4283 -48.4243 -48.4210
   -48.4066 -48.4025 -48.3981 -48.3954 -48.3821 -48.3791 -48.3742 -48.3720
   -48.3713 -48.3690 -48.3647 -48.3617  -5.3338  -5.0040  -4.4704  -3.8227
    -3.3609  -3.2378  -3.1445  -3.0188  -2.8984  -2.7018  -2.4865  -2.3869
    -2.3748  -2.3370  -1.9494  -1.8871  -1.6669  -1.5857  -1.5037  -1.4776
    -1.4299  -1.3377  -1.2313  -0.9497  -0.9185  -0.8451  -0.6086  -0.4131
    -0.3241  -0.2553  -0.0652   0.0658   0.1361   0.2490   0.3395

     occupation numbers 
     1.0000   1.0000   1.0000   1.0000   1.0000   1.0000   1.0000   1.0000
     1.0000   1.0000   1.0000   1.0000   1.0000   1.0000   1.0000   1.0000
     1.0000   1.0000   1.0000   1.0000   1.0000   1.0000   1.0000   1.0000
     1.0000   1.0000   1.0000   1.0000   1.0000   1.0000   1.0000   1.0000
     1.0000   1.0000   1.0000   1.0000   1.0000   1.0000   1.0000   1.0001
     1.0001   1.0006   0.6502   0.3236   0.0013   0.0000   0.0000   0.0000
     0.0000   0.0000   0.0000   0.0000   0.0000   0.0000   0.0000   0.0000
     0.0000   0.0000   0.0000   0.0000   0.0000   0.0000   0.0000

          k = 0.0909 0.1012 0.0000 (186296 PWs)   bands (ev):

   -48.8203 -48.8192 -48.8125 -48.8114 -48.7097 -48.7080 -48.7020 -48.7003
   -48.4858 -48.4835 -48.4780 -48.4756 -48.4332 -48.4283 -48.4243 -48.4210
   -48.4067 -48.4024 -48.3981 -48.3954 -48.3821 -48.3791 -48.3742 -48.3720
   -48.3713 -48.3690 -48.3647 -48.3617  -5.3018  -4.9718  -4.4375  -3.8036
    -3.7604  -3.4330  -3.1091  -2.8761  -2.7729  -2.7417  -2.4425  -2.4202
    -2.3296  -2.2387  -1.9263  -1.9021  -1.5571  -1.5151  -1.4975  -1.4199
    -1.3872  -1.3257  -1.1275  -0.9853  -0.9524  -0.7300  -0.6132  -0.4053
    -0.3821  -0.2472  -0.0228  -0.0060   0.1062   0.2426   0.2705

     occupation numbers 
     1.0000   1.0000   1.0000   1.0000   1.0000   1.0000   1.0000   1.0000
     1.0000   1.0000   1.0000   1.0000   1.0000   1.0000   1.0000   1.0000
     1.0000   1.0000   1.0000   1.0000   1.0000   1.0000   1.0000   1.0000
     1.0000   1.0000   1.0000   1.0000   1.0000   1.0000   1.0000   1.0000
     1.0000   1.0000   1.0000   1.0000   1.0000   1.0000   1.0000   1.0000
     1.0008   1.0116   0.5227   0.3952   0.0000   0.0000   0.0000   0.0000
     0.0000   0.0000   0.0000   0.0000   0.0000   0.0000   0.0000   0.0000
     0.0000   0.0000   0.0000   0.0000   0.0000   0.0000   0.0000

          k = 0.0909 0.1903 0.0000 (186330 PWs)   bands (ev):

   -48.8203 -48.8192 -48.8125 -48.8114 -48.7097 -48.7080 -48.7020 -48.7003
   -48.4858 -48.4835 -48.4780 -48.4756 -48.4331 -48.4283 -48.4243 -48.4209
   -48.4071 -48.4021 -48.3982 -48.3954 -48.3822 -48.3791 -48.3742 -48.3720
   -48.3713 -48.3690 -48.3647 -48.3617  -5.2193  -4.8887  -4.3534  -4.1468
    -3.8019  -3.6976  -3.2420  -3.0193  -2.7355  -2.5721  -2.4080  -2.2842
    -2.2586  -2.0409  -1.8739  -1.8203  -1.5784  -1.4696  -1.4099  -1.3175
    -1.3042  -1.2952  -1.1774  -1.0190  -0.8775  -0.7864  -0.5794  -0.4845
    -0.3298  -0.2247  -0.0903   0.0891   0.1560   0.2013   0.3498

     occupation numbers 
     1.0000   1.0000   1.0000   1.0000   1.0000   1.0000   1.0000   1.0000
     1.0000   1.0000   1.0000   1.0000   1.0000   1.0000   1.0000   1.0000
     1.0000   1.0000   1.0000   1.0000   1.0000   1.0000   1.0000   1.0000
     1.0000   1.0000   1.0000   1.0000   1.0000   1.0000   1.0000   1.0000
     1.0000   1.0000   1.0000   1.0000   1.0000   1.0000   1.0000   1.0034
     1.0070   1.0304   0.2667   0.1020   0.0000   0.0000   0.0000   0.0000
     0.0000   0.0000   0.0000   0.0000   0.0000   0.0000   0.0000   0.0000
     0.0000   0.0000   0.0000   0.0000   0.0000   0.0000   0.0000

          k = 0.0909 0.2794 0.0000 (186389 PWs)   bands (ev):

   -48.8203 -48.8192 -48.8125 -48.8114 -48.7097 -48.7080 -48.7020 -48.7003
   -48.4858 -48.4835 -48.4780 -48.4756 -48.4331 -48.4283 -48.4243 -48.4209
   -48.4074 -48.4018 -48.3983 -48.3953 -48.3822 -48.3791 -48.3742 -48.3719
   -48.3713 -48.3689 -48.3647 -48.3617  -5.0864  -4.7555  -4.4661  -4.2304
    -4.1084  -3.6017  -3.5192  -2.9056  -2.8624  -2.6845  -2.3515  -2.2564
    -2.1138  -1.8288  -1.8061  -1.6171  -1.5795  -1.4476  -1.4412  -1.3887
    -1.2214  -1.1246  -1.0770  -1.0546  -0.9425  -0.7797  -0.5200  -0.4934
    -0.4848  -0.2834   0.0898   0.2094   0.2527   0.3041   0.4047

     occupation numbers 
     1.0000   1.0000   1.0000   1.0000   1.0000   1.0000   1.0000   1.0000
     1.0000   1.0000   1.0000   1.0000   1.0000   1.0000   1.0000   1.0000
     1.0000   1.0000   1.0000   1.0000   1.0000   1.0000   1.0000   1.0000
     1.0000   1.0000   1.0000   1.0000   1.0000   1.0000   1.0000   1.0000
     1.0000   1.0000   1.0000   1.0000   1.0000   1.0000   1.0004   1.0075
     1.0795   0.1208   0.0753   0.0002   0.0000   0.0000   0.0000   0.0000
     0.0000   0.0000   0.0000   0.0000   0.0000   0.0000   0.0000   0.0000
     0.0000   0.0000   0.0000   0.0000   0.0000   0.0000   0.0000

          k = 0.0909 0.3685 0.0000 (186431 PWs)   bands (ev):

   -48.8203 -48.8192 -48.8125 -48.8114 -48.7097 -48.7080 -48.7020 -48.7003
   -48.4858 -48.4835 -48.4780 -48.4756 -48.4330 -48.4283 -48.4243 -48.4209
   -48.4076 -48.4017 -48.3983 -48.3952 -48.3822 -48.3792 -48.3742 -48.3719
   -48.3713 -48.3689 -48.3647 -48.3617  -4.9032  -4.7397  -4.5679  -4.4040
    -4.0179  -3.8490  -3.3514  -3.1751  -2.6814  -2.5906  -2.5029  -2.2538
    -2.0117  -1.8401  -1.7688  -1.7018  -1.5845  -1.4705  -1.4269  -1.2692
    -1.1183  -1.1127  -1.0276  -1.0026  -0.9070  -0.7152  -0.6346  -0.5014
    -0.4629  -0.2961   0.1375   0.2335   0.2783   0.4978   0.6061

     occupation numbers 
     1.0000   1.0000   1.0000   1.0000   1.0000   1.0000   1.0000   1.0000
     1.0000   1.0000   1.0000   1.0000   1.0000   1.0000   1.0000   1.0000
     1.0000   1.0000   1.0000   1.0000   1.0000   1.0000   1.0000   1.0000
     1.0000   1.0000   1.0000   1.0000   1.0000   1.0000   1.0000   1.0000
     1.0000   1.0000   1.0000   1.0000   1.0000   1.0000   1.0000   1.0080
     0.9466   0.1503   0.0309   0.0043   0.0000   0.0000   0.0000   0.0000
     0.0000   0.0000   0.0000   0.0000   0.0000   0.0000   0.0000   0.0000
     0.0000   0.0000   0.0000   0.0000   0.0000   0.0000   0.0000

          k = 0.0909-0.3442 0.0000 (186485 PWs)   bands (ev):

   -48.8203 -48.8192 -48.8125 -48.8114 -48.7097 -48.7080 -48.7020 -48.7003
   -48.4858 -48.4835 -48.4780 -48.4756 -48.4330 -48.4283 -48.4243 -48.4209
   -48.4076 -48.4017 -48.3984 -48.3952 -48.3822 -48.3791 -48.3742 -48.3719
   -48.3713 -48.3689 -48.3647 -48.3617  -4.9583  -4.6753  -4.6176  -4.3376
    -4.0706  -3.7815  -3.4069  -3.1057  -2.7361  -2.4572  -2.4372  -2.1327
    -2.0700  -2.0371  -1.8228  -1.7463  -1.5633  -1.5247  -1.4453  -1.4058
    -1.2042  -1.1834  -1.0168  -1.0124  -0.8654  -0.6635  -0.6312  -0.4919
    -0.3510  -0.2894   0.1406   0.2408   0.3484   0.4319   0.5463

     occupation numbers 
     1.0000   1.0000   1.0000   1.0000   1.0000   1.0000   1.0000   1.0000
     1.0000   1.0000   1.0000   1.0000   1.0000   1.0000   1.0000   1.0000
     1.0000   1.0000   1.0000   1.0000   1.0000   1.0000   1.0000   1.0000
     1.0000   1.0000   1.0000   1.0000   1.0000   1.0000   1.0000   1.0000
     1.0000   1.0000   1.0000   1.0000   1.0000   1.0000   1.0000   1.0698
     1.0732   1.0218   0.1071   0.0168   0.0000   0.0000   0.0000   0.0000
     0.0000   0.0000   0.0000   0.0000   0.0000   0.0000   0.0000   0.0000
     0.0000   0.0000   0.0000   0.0000   0.0000   0.0000   0.0000

          k = 0.0909-0.2551 0.0000 (186443 PWs)   bands (ev):

   -48.8203 -48.8192 -48.8125 -48.8114 -48.7097 -48.7080 -48.7020 -48.7003
   -48.4858 -48.4835 -48.4780 -48.4756 -48.4331 -48.4283 -48.4243 -48.4209
   -48.4074 -48.4019 -48.3983 -48.3953 -48.3822 -48.3791 -48.3742 -48.3719
   -48.3713 -48.3690 -48.3647 -48.3617  -5.1277  -4.7962  -4.3832  -4.2622
    -4.0353  -3.6074  -3.4739  -2.9215  -2.8076  -2.3066  -2.2896  -2.2179
    -2.1132  -2.0164  -1.9487  -1.9424  -1.6011  -1.5827  -1.5632  -1.5447
    -1.3163  -1.2855  -1.1316  -1.1220  -0.8225  -0.7524  -0.4987  -0.4795
    -0.2882  -0.1510   0.0432   0.2078   0.2867   0.3743   0.4343

     occupation numbers 
     1.0000   1.0000   1.0000   1.0000   1.0000   1.0000   1.0000   1.0000
     1.0000   1.0000   1.0000   1.0000   1.0000   1.0000   1.0000   1.0000
     1.0000   1.0000   1.0000   1.0000   1.0000   1.0000   1.0000   1.0000
     1.0000   1.0000   1.0000   1.0000   1.0000   1.0000   1.0000   1.0000
     1.0000   1.0000   1.0000   1.0000   1.0000   1.0017   1.0029   1.0187
     1.0798   0.9629   0.6463   0.6117   0.0001   0.0000   0.0000   0.0000
     0.0000   0.0000   0.0000   0.0000   0.0000   0.0000   0.0000   0.0000
     0.0000   0.0000   0.0000   0.0000   0.0000   0.0000   0.0000

          k = 0.0909-0.1660 0.0000 (186362 PWs)   bands (ev):

   -48.8203 -48.8192 -48.8125 -48.8114 -48.7097 -48.7080 -48.7020 -48.7003
   -48.4858 -48.4835 -48.4780 -48.4756 -48.4332 -48.4283 -48.4243 -48.4209
   -48.4070 -48.4022 -48.3982 -48.3953 -48.3821 -48.3791 -48.3742 -48.3720
   -48.3713 -48.3690 -48.3647 -48.3617  -5.2468  -4.9161  -4.3805  -4.0500
    -3.7277  -3.7035  -3.1479  -3.0478  -2.4888  -2.4828  -2.4126  -2.2817
    -2.1894  -2.1166  -2.0845  -1.8278  -1.7936  -1.6927  -1.5886  -1.5591
    -1.3525  -1.3455  -1.2535  -1.0915  -0.8890  -0.7181  -0.6223  -0.3528
    -0.2912  -0.1367   0.0275   0.0522   0.1700   0.3316   0.4854

     occupation numbers 
     1.0000   1.0000   1.0000   1.0000   1.0000   1.0000   1.0000   1.0000
     1.0000   1.0000   1.0000   1.0000   1.0000   1.0000   1.0000   1.0000
     1.0000   1.0000   1.0000   1.0000   1.0000   1.0000   1.0000   1.0000
     1.0000   1.0000   1.0000   1.0000   1.0000   1.0000   1.0000   1.0000
     1.0000   1.0000   1.0000   1.0000   1.0000   1.0000   1.0000   1.0037
     1.0326   1.0784   1.0816   0.1185   0.0567   0.0032   0.0001   0.0000
     0.0000   0.0000   0.0000   0.0000   0.0000   0.0000   0.0000   0.0000
     0.0000   0.0000   0.0000   0.0000   0.0000   0.0000   0.0000

          k = 0.0909-0.0769 0.0000 (186293 PWs)   bands (ev):

   -48.8203 -48.8192 -48.8125 -48.8114 -48.7097 -48.7080 -48.7020 -48.7003
   -48.4858 -48.4835 -48.4780 -48.4756 -48.4332 -48.4283 -48.4243 -48.4210
   -48.4067 -48.4024 -48.3981 -48.3954 -48.3821 -48.3791 -48.3742 -48.3720
   -48.3713 -48.3690 -48.3647 -48.3617  -5.3155  -4.9855  -4.4512  -3.8046
    -3.6630  -3.3239  -3.1234  -2.9051  -2.7713  -2.6153  -2.5686  -2.3417
    -2.3081  -2.1818  -1.9972  -1.8851  -1.8176  -1.6487  -1.5299  -1.4891
    -1.4297  -1.3570  -1.2964  -0.9751  -0.9402  -0.7629  -0.6972  -0.3859
    -0.2857  -0.1650  -0.0414   0.0895   0.1150   0.2556   0.4284

     occupation numbers 
     1.0000   1.0000   1.0000   1.0000   1.0000   1.0000   1.0000   1.0000
     1.0000   1.0000   1.0000   1.0000   1.0000   1.0000   1.0000   1.0000
     1.0000   1.0000   1.0000   1.0000   1.0000   1.0000   1.0000   1.0000
     1.0000   1.0000   1.0000   1.0000   1.0000   1.0000   1.0000   1.0000
     1.0000   1.0000   1.0000   1.0000   1.0000   1.0000   1.0000   1.0005
     1.0016   1.0372   0.8897   0.3145   0.0963   0.0007   0.0000   0.0000
     0.0000   0.0000   0.0000   0.0000   0.0000   0.0000   0.0000   0.0000
     0.0000   0.0000   0.0000   0.0000   0.0000   0.0000   0.0000

          k = 0.1818 0.0243 0.0000 (186409 PWs)   bands (ev):

   -48.8198 -48.8187 -48.8130 -48.8119 -48.7093 -48.7076 -48.7025 -48.7008
   -48.4854 -48.4830 -48.4784 -48.4761 -48.4327 -48.4278 -48.4248 -48.4214
   -48.4061 -48.4020 -48.3986 -48.3959 -48.3816 -48.3786 -48.3747 -48.3718
   -48.3716 -48.3686 -48.3652 -48.3622  -5.2536  -4.9225  -4.3858  -3.7329
    -3.3382  -3.2014  -3.0915  -3.0506  -2.9924  -2.8699  -2.7512  -2.4461
    -2.3249  -2.2677  -2.2099  -1.9037  -1.8633  -1.6701  -1.5035  -1.4084
    -1.3799  -1.0871  -1.0129  -0.8801  -0.8643  -0.8104  -0.7309  -0.5854
    -0.3123  -0.2197  -0.1666   0.0236   0.0417   0.1718   0.2678

     occupation numbers 
     1.0000   1.0000   1.0000   1.0000   1.0000   1.0000   1.0000   1.0000
     1.0000   1.0000   1.0000   1.0000   1.0000   1.0000   1.0000   1.0000
     1.0000   1.0000   1.0000   1.0000   1.0000   1.0000   1.0000   1.0000
     1.0000   1.0000   1.0000   1.0000   1.0000   1.0000   1.0000   1.0000
     1.0000   1.0000   1.0000   1.0000   1.0000   1.0000   1.0000   1.0000
     1.0009   1.0055   1.0221   0.4032   0.2251   0.0014   0.0000   0.0000
     0.0000   0.0000   0.0000   0.0000   0.0000   0.0000   0.0000   0.0000
     0.0000   0.0000   0.0000   0.0000   0.0000   0.0000   0.0000

          k = 0.1818 0.1134 0.0000 (186374 PWs)   bands (ev):

   -48.8198 -48.8187 -48.8130 -48.8119 -48.7093 -48.7076 -48.7025 -48.7008
   -48.4854 -48.4830 -48.4784 -48.4761 -48.4327 -48.4278 -48.4248 -48.4214
   -48.4063 -48.4019 -48.3986 -48.3959 -48.3816 -48.3786 -48.3747 -48.3718
   -48.3716 -48.3686 -48.3652 -48.3622  -5.2146  -4.8834  -4.3461  -3.7567
    -3.6829  -3.4031  -3.2365  -3.0068  -2.9012  -2.8402  -2.6200  -2.3470
    -2.2919  -2.2282  -2.1806  -1.7929  -1.6854  -1.5829  -1.4756  -1.3200
    -1.2378  -1.2075  -1.0903  -0.9962  -0.8579  -0.8419  -0.6132  -0.5332
    -0.4249  -0.2826  -0.1233   0.0752   0.0937   0.2202   0.2926

     occupation numbers 
     1.0000   1.0000   1.0000   1.0000   1.0000   1.0000   1.0000   1.0000
     1.0000   1.0000   1.0000   1.0000   1.0000   1.0000   1.0000   1.0000
     1.0000   1.0000   1.0000   1.0000   1.0000   1.0000   1.0000   1.0000
     1.0000   1.0000   1.0000   1.0000   1.0000   1.0000   1.0000   1.0000
     1.0000   1.0000   1.0000   1.0000   1.0000   1.0000   1.0000   1.0004
     1.0027   1.0149   1.0379   0.0558   0.0025   0.0000   0.0000   0.0000
     0.0000   0.0000   0.0000   0.0000   0.0000   0.0000   0.0000   0.0000
[...]
     atom   18 type  1   force =     0.00014786   -0.00014833   -0.00012286
     atom   19 type  1   force =     0.00002648    0.00003707    0.00003723
     atom   20 type  1   force =    -0.00012653    0.00014414   -0.00013744
     atom   21 type  1   force =    -0.00011643   -0.00029150    0.00033555
     atom   22 type  1   force =    -0.00010204   -0.00000267   -0.00006108
     atom   23 type  1   force =     0.00011063   -0.00000065    0.00004053
     atom   24 type  1   force =     0.00010431    0.00029728   -0.00035028
     atom   25 type  1   force =     0.00012267   -0.00014051    0.00014278
     atom   26 type  1   force =    -0.00001105   -0.00003794   -0.00001788
     atom   27 type  1   force =    -0.00015984    0.00014538    0.00009858
     atom   28 type  1   force =    -0.00013819    0.00003468   -0.00016245
     The non-local contrib.  to forces
     atom    1 type  1   force =     0.00042877   -0.01488786    0.03369191
     atom    2 type  1   force =    -0.00043237    0.01491184   -0.03369312
     atom    3 type  1   force =    -0.00014978   -0.01431710   -0.03205147
     atom    4 type  1   force =     0.00070279    0.00334651   -0.01052737
     atom    5 type  1   force =    -0.00127454   -0.00384435    0.00400622
     atom    6 type  1   force =     0.00136885    0.00136264    0.00110034
     atom    7 type  1   force =    -0.00069711   -0.00186216    0.00078472
     atom    8 type  1   force =     0.00003306    0.00122304    0.00418994
     atom    9 type  1   force =    -0.00004217   -0.00123548   -0.00424482
     atom   10 type  1   force =     0.00071678    0.00185626   -0.00076576
     atom   11 type  1   force =    -0.00136601   -0.00134608   -0.00109911
     atom   12 type  1   force =     0.00125382    0.00385270   -0.00399967
     atom   13 type  1   force =    -0.00069278   -0.00335809    0.01054063
     atom   14 type  1   force =     0.00014810    0.01431079    0.03204757
     atom   15 type  1   force =     0.00042770   -0.01488806    0.03369204
     atom   16 type  1   force =    -0.00042542    0.01491190   -0.03369370
     atom   17 type  1   force =    -0.00015050   -0.01431716   -0.03205440
     atom   18 type  1   force =     0.00070264    0.00334259   -0.01052933
     atom   19 type  1   force =    -0.00126966   -0.00384192    0.00400231
     atom   20 type  1   force =     0.00136195    0.00135955    0.00109990
     atom   21 type  1   force =    -0.00069981   -0.00186149    0.00078548
     atom   22 type  1   force =     0.00003296    0.00122421    0.00419497
     atom   23 type  1   force =    -0.00004224   -0.00123542   -0.00424197
     atom   24 type  1   force =     0.00071483    0.00185627   -0.00076563
     atom   25 type  1   force =    -0.00136264   -0.00134527   -0.00109941
     atom   26 type  1   force =     0.00125461    0.00385353   -0.00400047
     atom   27 type  1   force =    -0.00069295   -0.00335897    0.01053951
     atom   28 type  1   force =     0.00014791    0.01431098    0.03204665
     The ionic contribution  to forces
     atom    1 type  1   force =     0.00088238   -0.22873126   12.96451963
     atom    2 type  1   force =    -0.00090669    0.22903961  -12.96515291
     atom    3 type  1   force =     0.00166450   -0.33986529  -12.07542794
     atom    4 type  1   force =    -0.00019987    0.12387246   -9.77642482
     atom    5 type  1   force =     0.00578175    0.01552444   -7.33719334
     atom    6 type  1   force =    -0.00600157   -0.04505232   -5.45786548
     atom    7 type  1   force =     0.00194683    0.01615565   -3.35485479
     atom    8 type  1   force =    -0.00110587    0.01815336   -0.76297564
     atom    9 type  1   force =     0.00118601   -0.01815300    0.76172113
     atom   10 type  1   force =    -0.00202106   -0.01633533    3.35574212
     atom   11 type  1   force =     0.00601096    0.04538554    5.45780055
     atom   12 type  1   force =    -0.00572680   -0.01553788    7.33501802
     atom   13 type  1   force =     0.00010679   -0.12399053    9.77884527
     atom   14 type  1   force =    -0.00163773    0.33954800   12.07623102
     atom   15 type  1   force =     0.00086387   -0.22873312   12.96452335
     atom   16 type  1   force =    -0.00079454    0.22904620  -12.96515044
     atom   17 type  1   force =     0.00164950   -0.33985048  -12.07546680
     atom   18 type  1   force =    -0.00020702    0.12380524   -9.77643219
     atom   19 type  1   force =     0.00589011    0.01557172   -7.33717203
     atom   20 type  1   force =    -0.00613503   -0.04511367   -5.45785996
     atom   21 type  1   force =     0.00190313    0.01616485   -3.35483020
     atom   22 type  1   force =    -0.00111349    0.01816385   -0.76299636
     atom   23 type  1   force =     0.00118836   -0.01815046    0.76174752
     atom   24 type  1   force =    -0.00205486   -0.01634166    3.35576103
     atom   25 type  1   force =     0.00607773    0.04540319    5.45780745
     atom   26 type  1   force =    -0.00570879   -0.01552591    7.33502285
     atom   27 type  1   force =     0.00010294   -0.12400263    9.77883555
     atom   28 type  1   force =    -0.00164154    0.33954944   12.07622740
     The local contribution  to forces
     atom    1 type  1   force =    -0.00076929    0.22374661  -12.89370744
     atom    2 type  1   force =     0.00079752   -0.22408935   12.89451381
     atom    3 type  1   force =    -0.00120860    0.31814284   11.95857453
     atom    4 type  1   force =    -0.00000761   -0.11412967    9.63977736
     atom    5 type  1   force =    -0.00431188   -0.01078962    7.24345507
     atom    6 type  1   force =     0.00434487    0.03982704    5.38260046
     atom    7 type  1   force =    -0.00127732   -0.01278280    3.30892126
     atom    8 type  1   force =     0.00094973   -0.01927114    0.74948651
     atom    9 type  1   force =    -0.00101171    0.01927858   -0.74818644
     atom   10 type  1   force =     0.00132184    0.01297342   -3.30979832
     atom   11 type  1   force =    -0.00435833   -0.04016838   -5.38251789
     atom   12 type  1   force =     0.00428628    0.01078317   -7.24126819
     atom   13 type  1   force =     0.00007889    0.11427727   -9.64217978
     atom   14 type  1   force =     0.00118705   -0.31785522  -11.95939059
     atom   15 type  1   force =    -0.00075098    0.22374857  -12.89371101
     atom   16 type  1   force =     0.00068525   -0.22409552   12.89450805
     atom   17 type  1   force =    -0.00119416    0.31812915   11.95861645
     atom   18 type  1   force =    -0.00000201   -0.11406349    9.63978500
     atom   19 type  1   force =    -0.00441893   -0.01083666    7.24343340
     atom   20 type  1   force =     0.00447895    0.03988744    5.38259469
     atom   21 type  1   force =    -0.00123198   -0.01279195    3.30889568
     atom   22 type  1   force =     0.00095677   -0.01928233    0.74950565
     atom   23 type  1   force =    -0.00101392    0.01927635   -0.74821460
     atom   24 type  1   force =     0.00135626    0.01297939   -3.30981788
     atom   25 type  1   force =    -0.00442542   -0.04018573   -5.38252527
     atom   26 type  1   force =     0.00426848    0.01077093   -7.24127293
     atom   27 type  1   force =     0.00008239    0.11428963   -9.64216926
     atom   28 type  1   force =     0.00119094   -0.31785682  -11.95938645
     The core correction contribution to forces
     atom    1 type  1   force =     0.00000000    0.00000000    0.00000000
     atom    2 type  1   force =     0.00000000    0.00000000    0.00000000
     atom    3 type  1   force =     0.00000000    0.00000000    0.00000000
     atom    4 type  1   force =     0.00000000    0.00000000    0.00000000
     atom    5 type  1   force =     0.00000000    0.00000000    0.00000000
     atom    6 type  1   force =     0.00000000    0.00000000    0.00000000
     atom    7 type  1   force =     0.00000000    0.00000000    0.00000000
     atom    8 type  1   force =     0.00000000    0.00000000    0.00000000
     atom    9 type  1   force =     0.00000000    0.00000000    0.00000000
     atom   10 type  1   force =     0.00000000    0.00000000    0.00000000
     atom   11 type  1   force =     0.00000000    0.00000000    0.00000000
     atom   12 type  1   force =     0.00000000    0.00000000    0.00000000
     atom   13 type  1   force =     0.00000000    0.00000000    0.00000000
     atom   14 type  1   force =     0.00000000    0.00000000    0.00000000
     atom   15 type  1   force =     0.00000000    0.00000000    0.00000000
     atom   16 type  1   force =     0.00000000    0.00000000    0.00000000
     atom   17 type  1   force =     0.00000000    0.00000000    0.00000000
     atom   18 type  1   force =     0.00000000    0.00000000    0.00000000
     atom   19 type  1   force =     0.00000000    0.00000000    0.00000000
     atom   20 type  1   force =     0.00000000    0.00000000    0.00000000
     atom   21 type  1   force =     0.00000000    0.00000000    0.00000000
     atom   22 type  1   force =     0.00000000    0.00000000    0.00000000
     atom   23 type  1   force =     0.00000000    0.00000000    0.00000000
     atom   24 type  1   force =     0.00000000    0.00000000    0.00000000
     atom   25 type  1   force =     0.00000000    0.00000000    0.00000000
     atom   26 type  1   force =     0.00000000    0.00000000    0.00000000
     atom   27 type  1   force =     0.00000000    0.00000000    0.00000000
     atom   28 type  1   force =     0.00000000    0.00000000    0.00000000
     The Hubbard contrib.    to forces
     atom    1 type  1   force =     0.00000000    0.00000000    0.00000000
     atom    2 type  1   force =     0.00000000    0.00000000    0.00000000
     atom    3 type  1   force =     0.00000000    0.00000000    0.00000000
     atom    4 type  1   force =     0.00000000    0.00000000    0.00000000
     atom    5 type  1   force =     0.00000000    0.00000000    0.00000000
     atom    6 type  1   force =     0.00000000    0.00000000    0.00000000
     atom    7 type  1   force =     0.00000000    0.00000000    0.00000000
     atom    8 type  1   force =     0.00000000    0.00000000    0.00000000
     atom    9 type  1   force =     0.00000000    0.00000000    0.00000000
     atom   10 type  1   force =     0.00000000    0.00000000    0.00000000
     atom   11 type  1   force =     0.00000000    0.00000000    0.00000000
     atom   12 type  1   force =     0.00000000    0.00000000    0.00000000
     atom   13 type  1   force =     0.00000000    0.00000000    0.00000000
     atom   14 type  1   force =     0.00000000    0.00000000    0.00000000
     atom   15 type  1   force =     0.00000000    0.00000000    0.00000000
     atom   16 type  1   force =     0.00000000    0.00000000    0.00000000
     atom   17 type  1   force =     0.00000000    0.00000000    0.00000000
     atom   18 type  1   force =     0.00000000    0.00000000    0.00000000
     atom   19 type  1   force =     0.00000000    0.00000000    0.00000000
     atom   20 type  1   force =     0.00000000    0.00000000    0.00000000
     atom   21 type  1   force =     0.00000000    0.00000000    0.00000000
     atom   22 type  1   force =     0.00000000    0.00000000    0.00000000
     atom   23 type  1   force =     0.00000000    0.00000000    0.00000000
     atom   24 type  1   force =     0.00000000    0.00000000    0.00000000
     atom   25 type  1   force =     0.00000000    0.00000000    0.00000000
     atom   26 type  1   force =     0.00000000    0.00000000    0.00000000
     atom   27 type  1   force =     0.00000000    0.00000000    0.00000000
     atom   28 type  1   force =     0.00000000    0.00000000    0.00000000
     The SCF correction term to forces
     atom    1 type  1   force =    -0.00000082    0.00000078   -0.00000941
     atom    2 type  1   force =     0.00000085   -0.00000071    0.00000853
     atom    3 type  1   force =    -0.00000108    0.00000090    0.00000103
     atom    4 type  1   force =     0.00000013    0.00000002    0.00000248
     atom    5 type  1   force =     0.00000005   -0.00000012    0.00000074
     atom    6 type  1   force =    -0.00000008    0.00000005    0.00000042
     atom    7 type  1   force =     0.00000001    0.00000000    0.00000031
     atom    8 type  1   force =     0.00000003   -0.00000009    0.00000011
     atom    9 type  1   force =    -0.00000003    0.00000008    0.00000000
     atom   10 type  1   force =    -0.00000003    0.00000004   -0.00000020
     atom   11 type  1   force =     0.00000007   -0.00000004   -0.00000033
     atom   12 type  1   force =    -0.00000003    0.00000011   -0.00000070
     atom   13 type  1   force =    -0.00000012   -0.00000004   -0.00000225
     atom   14 type  1   force =     0.00000108   -0.00000089   -0.00000096
     atom   15 type  1   force =    -0.00000082    0.00000079   -0.00000942
     atom   16 type  1   force =     0.00000085   -0.00000071    0.00000850
     atom   17 type  1   force =    -0.00000108    0.00000091    0.00000100
     atom   18 type  1   force =     0.00000013    0.00000002    0.00000247
     atom   19 type  1   force =     0.00000005   -0.00000012    0.00000073
     atom   20 type  1   force =    -0.00000009    0.00000005    0.00000041
     atom   21 type  1   force =     0.00000000    0.00000000    0.00000030
     atom   22 type  1   force =     0.00000003   -0.00000009    0.00000010
     atom   23 type  1   force =    -0.00000002    0.00000008   -0.00000000
     atom   24 type  1   force =    -0.00000002    0.00000003   -0.00000019
     atom   25 type  1   force =     0.00000008   -0.00000004   -0.00000033
     atom   26 type  1   force =    -0.00000004    0.00000012   -0.00000072
     atom   27 type  1   force =    -0.00000012   -0.00000004   -0.00000225
     atom   28 type  1   force =     0.00000108   -0.00000089   -0.00000096

     Total force =     0.001303     Total SCF correction =     0.000019
     Energy error            =      4.0E-06 Ry
     Gradient error          =      3.5E-04 Ry/Bohr

     bfgs converged in  34 scf cycles and  33 bfgs steps
     (criteria: energy <  1.0E-05 Ry, force <  3.9E-04 Ry/Bohr)

     End of BFGS Geometry Optimization

     Final energy             =    -421.1381171324 Ry

     File ./Li/Lithium.bfgs deleted, as requested
Begin final coordinates

ATOMIC_POSITIONS (angstrom)
Li               0.2980153419       -0.1250032868       31.7032759734
Li              -0.2988555661        4.8963316573       20.0859086636
Li               0.8227465570        2.1619737710       20.6526609083
Li               1.0472690264        7.0183737722       21.7649587168
Li               1.6565685909        4.1944064901       22.6949320631
Li               0.1011582341        1.6794602152       23.5453596263
Li              -0.1379807199        6.3157089332       24.4358799475
Li               0.9871702245        3.7481494403       25.5626793854
Li               1.9887878303        1.0219373904       26.2291109457
Li               2.1220599791        5.8748496712       27.3564719225
Li              -0.1002750021        3.0908901236       28.2461388090
Li               1.3183197969        0.5761817193       29.0952228476
Li               0.9357735770        5.1729430670       30.0270825237
Li               2.1506289640        2.6088984357       31.1381970542
Li               3.2729581210       -0.1250048201       31.7032756762
Li               2.6760235181        4.8963195877       20.0859310693
Li               3.7976903306        2.1619562829       20.6526535029
Li               4.0222157290        7.0184088480       21.7649742637
Li               4.6314441596        4.1943776024       22.6949758999
Li               3.0761462187        1.6795007071       23.5453652505
Li               2.8369602807        6.3157089206       24.4358885125
Li               3.9621090206        3.7481474475       25.5626348044
Li               4.9637181585        1.0219346412       26.2291060434
Li               5.0970045508        5.8748547337       27.3564821114
Li               2.8746297254        3.0908802883       28.2461473967
Li               4.2932432896        0.5761750387       29.0952321776
Li               3.9107098908        5.1729452326       30.0270843901
Li               5.1255627977        2.6089011072       31.1382008931
End final coordinates



     Writing all to output data dir ./Li/Lithium.save/ :
     XML data file
     init_run     :     14.01s CPU     22.08s WALL (       1 calls)
     electrons    :  12242.70s CPU  15479.21s WALL (      34 calls)
     update_pot   :      2.24s CPU      2.74s WALL (      33 calls)
     forces       :    230.60s CPU    252.33s WALL (      34 calls)

     Called by init_run:
     wfcinit      :      2.39s CPU      3.33s WALL (       1 calls)
     wfcinit:wfcr :      2.27s CPU      3.21s WALL (      25 calls)
     potinit      :      0.87s CPU      0.93s WALL (       1 calls)
     hinit0       :      5.81s CPU     12.68s WALL (       1 calls)

     Called by electrons:
     c_bands      :   9260.96s CPU  11794.00s WALL (     636 calls)
     sum_band     :    680.25s CPU    952.95s WALL (     636 calls)
     v_of_rho     :     30.58s CPU     36.33s WALL (     637 calls)
     v_h          :      2.78s CPU      3.42s WALL (     637 calls)
     v_xc         :     27.79s CPU     32.90s WALL (     637 calls)
     newd         :     13.60s CPU     14.93s WALL (     637 calls)
     PAW_pot      :      5.13s CPU      7.03s WALL (     670 calls)
     mix_rho      :     87.69s CPU    113.84s WALL (     636 calls)

     Called by c_bands:
     init_us_2    :     54.76s CPU     60.68s WALL (   33500 calls)
     cegterg      :   8984.35s CPU  11194.55s WALL (   16535 calls)

     Called by sum_band:
     sum_band:wei :      1.23s CPU      1.45s WALL (     636 calls)
     sum_band:loo :    660.93s CPU    930.14s WALL (     636 calls)
     sum_band:buf :      6.67s CPU      7.32s WALL (   15900 calls)
     sum_band:ini :     24.17s CPU     25.47s WALL (   15900 calls)
     sum_band:cal :     81.19s CPU    100.29s WALL (   16725 calls)
     sum_band:bec :      1.54s CPU      1.71s WALL (   16725 calls)
     addusdens    :     13.63s CPU     14.44s WALL (     636 calls)
                                        0.00s GPU  (     636 calls)
     addusd:skk   :      2.76s CPU      2.85s WALL (     636 calls)
                                        0.00s GPU  (     636 calls)

     Called by *egterg:
     cdiaghg      :   2678.66s CPU   2778.87s WALL (  203473 calls)
     cegterg:over :    512.53s CPU    579.98s WALL (  188756 calls)
     cegterg:upda :    378.56s CPU    394.75s WALL (  188756 calls)
     cegterg:last :     77.84s CPU     79.35s WALL (   19491 calls)
     h_psi        :   4804.67s CPU   6779.30s WALL (  205316 calls)
     s_psi        :    287.74s CPU    300.25s WALL (  205316 calls)
     g_psi        :      4.96s CPU      5.29s WALL (  188756 calls)

     Called by h_psi:
     h_psi:calbec :    431.48s CPU    549.74s WALL (  205316 calls)
     vloc_psi     :   4050.66s CPU   5879.12s WALL (  205316 calls)
                                        0.00s GPU  (  205316 calls)
     add_vuspsi   :    302.32s CPU    328.05s WALL (  205316 calls)

     General routines
     calbec       :    527.32s CPU    666.85s WALL (  225441 calls)
     fft          :     29.01s CPU     42.82s WALL (    8347 calls)
     ffts         :     66.53s CPU     87.12s WALL (   71260 calls)
     fftw         :   4438.88s CPU   6454.74s WALL ( 8314298 calls)
     interpolate  :      3.45s CPU      4.07s WALL (     637 calls)

     Parallel routines

     PAW routines
     PAW_pot      :      5.13s CPU      7.03s WALL (     670 calls)

     Environ routines

     PWSCF        :      3h31m CPU      4h26m WALL


   This run was terminated on:  23:41:25   4Jan2025            

=------------------------------------------------------------------------------=
   JOB DONE.
=------------------------------------------------------------------------------=
