
     Program PWSCF v.7.4 starts on  5Jan2025 at 12:35:27 

     This program is part of the open-source Quantum ESPRESSO suite
     for quantum simulation of materials; please cite
         "P. Giannozzi et al., J. Phys.:Condens. Matter 21 395502 (2009);
         "P. Giannozzi et al., J. Phys.:Condens. Matter 29 465901 (2017);
         "P. Giannozzi et al., J. Chem. Phys. 152 154105 (2020);
          URL http://www.quantum-espresso.org", 
     in publications or presentations arising from this work. More details at
     http://www.quantum-espresso.org/quote

     Parallel version (MPI & OpenMP), running on     256 processor cores
     Number of MPI processes:               256
     Threads/MPI process:                     1

     MPI processes distributed on     2 nodes
     228021 MiB available memory on the printing compute node when the environment starts

     Reading input from espresso.pwi
Warning: card &CELL ignored
Warning: card    PRESS_CONV_THR   = 0.1 ignored
Warning: card    CELL_DOFREE      = 'ALL' ignored
Warning: card / ignored
Warning: card &FCP ignored
Warning: card / ignored
Warning: card &RISM ignored
Warning: card / ignored

     Current dimensions of program PWSCF are:
     Max number of different atomic species (ntypx) = 10
     Max number of k-points (npk) =  40000
     Max angular momentum in pseudopotentials (lmaxx) =  4

     IMPORTANT: XC functional enforced from input :
     Exchange-correlation= PBE
                           (   1   4   3   4   0   0   0)
     Any further DFT definition will be discarded
     Please, verify this is what you really want


     Reading input from environ.in:
     * using ionic solvent mode
     * setting boundary derivatives method to SSCS default
     * setting electrolyte-boundary derivatives method to SSCS default

Environ Warning (1001): card EOF ignored

     
     Found identity + (  0.0000  0.5000  0.0000) symmetry
     This is a supercell, fractional translations are disabled

     R & G space division:  proc/nbgrp/npool/nimage =     256
     Subspace diagonalization in iterative solution of the eigenvalue problem:
     a serial algorithm will be used


     Parallelization info
     --------------------
     sticks:   dense  smooth     PW     G-vecs:    dense   smooth      PW
     Min          41      16      4                24769     6230     846
     Max          42      17      5                24868     6321     923
     Sum       10733    4281   1153              6359029  1608267  224795

     Using Slab Decomposition



     bravais-lattice index     =            6
     lattice parameter (alat)  =      12.9830  a.u.
     unit-cell volume          =   16640.2915 (a.u.)^3
     number of atoms/cell      =           32
     number of atomic types    =            1
     number of electrons       =        96.00
     number of Kohn-Sham states=           72
     kinetic-energy cutoff     =      80.0000  Ry
     charge density cutoff     =     800.0000  Ry
     scf convergence threshold =      1.0E-14
     mixing beta               =       0.2000
     number of iterations used =            8  local-TF  mixing
     Exchange-correlation= PBE
                           (   1   4   3   4   0   0   0)

     ================================================================================

                                  Environ Setup Summary

     ================================================================================

     Please cite

          O. Andreussi, I. Dabo and N. Marzari, J. Chem. Phys. 136, 064102 (2012)
          F. Nattino, M. Truscott, N. Marzari, and O. Andreussi, J. Chem. Phys. 150, 041722 (2019)

     in publications or presentations arising from this work.

     ================================================================================

     Parameters
     ==========

     compensation onset threshold      =               0.1000E+00
     static permittivity               =                    89.90
     surface tension in input (dyn/cm) =                    37.30
     surface tension in internal units =               0.4792E-04

     Solvent Boundary
     ================

     solvent mode                      =                    ionic
     derivatives method                =                   lowmem
     electrolyte derivatives method    =                   lowmem
     numerical core for derivatives    =                      fft
     switching function adopted        =                     SCCS
     density limit for vacuum region   =               0.5000E-02
     density limit for bulk solvent    =               0.1000E-03
     soft-sphere radius mode           =                    bondi
     soft-sphere softness              =                     0.50
     alpha                             =                     1.32

     Electrostatic Setup
     ===================

     electrostatic problem to solve    =                    modpb
     numerical solver adopted          =                   newton
     type of auxiliary density adopted =                     none
     numerical core for poisson        =                      fft
     adopting a nested solver scheme
     inner solver                      =                       cg
     inner core                        =                      fft
     type of pbc corrections           =                parabolic
     numerical core for corrections    =                      1da

     ================================================================================


     >>>>> Grand-Canonical SCF is activated <<<<<
     Initial Total Charge  =     0.000000 e
     Target Fermi Energy   =    -1.404000 eV
     Thr. of Fermi Energy  =     0.001000 eV
     Wave-shift of Kerker  =     0.400000 bohr^-1
     Wave-shift of Hartree =     1.500000 bohr^-1
     Mixing Rate of Fermi  =     0.050000

     celldm(1)=  12.983009  celldm(2)=   0.000000  celldm(3)=   7.603873
     celldm(4)=   0.000000  celldm(5)=   0.000000  celldm(6)=   0.000000

     crystal axes: (cart. coord. in units of alat)
               a(1) = (   1.000000   0.000000   0.000000 )  
               a(2) = (   0.000000   1.000000   0.000000 )  
               a(3) = (   0.000000   0.000000   7.603873 )  

     reciprocal axes: (cart. coord. in units 2 pi/alat)
               b(1) = (  1.000000  0.000000  0.000000 )  
               b(2) = (  0.000000  1.000000  0.000000 )  
               b(3) = (  0.000000  0.000000  0.131512 )  


     PseudoPot. # 1 for Li read from file:
     /work/e89/e89/ba3g18/Repos/Pseudopotentials/Pslibrary/Li.pbe-sl-kjpaw_psl.1.0.0.UPF
     MD5 check sum: 3f4d2cafebb47c6c3aa8ed472e6f074d
     Pseudo is Projector augmented-wave, Zval =  3.0
     Generated using 'atomic' code by A. Dal Corso  v.7.4
     Shape of augmentation charge: PSQ
     Using radial grid of 1017 points,  4 beta functions with: 
                l(1) =   0
                l(2) =   0
                l(3) =   1
                l(4) =   1
     Q(r) pseudized with 0 coefficients 


     atomic species   valence    mass     pseudopotential
     Li                3.00     6.94000     Li( 1.00)

      8 Sym. Ops. (no inversion) found


                                    s                        frac. trans.

      isym =  1     identity                                     

 cryst.   s( 1) = (     1          0          0      )
                  (     0          1          0      )
                  (     0          0          1      )

 cart.    s( 1) = (  1.0000000  0.0000000  0.0000000 )
                  (  0.0000000  1.0000000  0.0000000 )
                  (  0.0000000  0.0000000  1.0000000 )


      isym =  2     180 deg rotation - cart. axis [0,0,1]        

 cryst.   s( 2) = (    -1          0          0      )
                  (     0         -1          0      )
                  (     0          0          1      )

 cart.    s( 2) = ( -1.0000000  0.0000000  0.0000000 )
                  (  0.0000000 -1.0000000  0.0000000 )
                  (  0.0000000  0.0000000  1.0000000 )


      isym =  3      90 deg rotation - cart. axis [0,0,-1]       

 cryst.   s( 3) = (     0         -1          0      )
                  (     1          0          0      )
                  (     0          0          1      )

 cart.    s( 3) = (  0.0000000  1.0000000  0.0000000 )
                  ( -1.0000000  0.0000000  0.0000000 )
                  (  0.0000000  0.0000000  1.0000000 )


      isym =  4      90 deg rotation - cart. axis [0,0,1]        

 cryst.   s( 4) = (     0          1          0      )
                  (    -1          0          0      )
                  (     0          0          1      )

 cart.    s( 4) = (  0.0000000 -1.0000000  0.0000000 )
                  (  1.0000000  0.0000000  0.0000000 )
                  (  0.0000000  0.0000000  1.0000000 )


      isym =  5     inv. 180 deg rotation - cart. axis [0,1,0]   

 cryst.   s( 5) = (     1          0          0      )
                  (     0         -1          0      )
                  (     0          0          1      )

 cart.    s( 5) = (  1.0000000  0.0000000  0.0000000 )
                  (  0.0000000 -1.0000000  0.0000000 )
                  (  0.0000000  0.0000000  1.0000000 )


      isym =  6     inv. 180 deg rotation - cart. axis [1,0,0]   

 cryst.   s( 6) = (    -1          0          0      )
                  (     0          1          0      )
                  (     0          0          1      )

 cart.    s( 6) = ( -1.0000000  0.0000000  0.0000000 )
                  (  0.0000000  1.0000000  0.0000000 )
                  (  0.0000000  0.0000000  1.0000000 )


      isym =  7     inv. 180 deg rotation - cart. axis [1,1,0]   

 cryst.   s( 7) = (     0         -1          0      )
                  (    -1          0          0      )
                  (     0          0          1      )

 cart.    s( 7) = (  0.0000000 -1.0000000  0.0000000 )
                  ( -1.0000000  0.0000000  0.0000000 )
                  (  0.0000000  0.0000000  1.0000000 )


      isym =  8     inv. 180 deg rotation - cart. axis [1,-1,0]  

 cryst.   s( 8) = (     0          1          0      )
                  (     1          0          0      )
                  (     0          0          1      )

 cart.    s( 8) = (  0.0000000  1.0000000  0.0000000 )
                  (  1.0000000  0.0000000  0.0000000 )
                  (  0.0000000  0.0000000  1.0000000 )


     point group C_4v (4mm) 
     there are  5 classes
     the character table:

       E     2C4   C2    2s_v  2s_d 
A_1    1.00  1.00  1.00  1.00  1.00
A_2    1.00  1.00  1.00 -1.00 -1.00
B_1    1.00 -1.00  1.00  1.00 -1.00
B_2    1.00 -1.00  1.00 -1.00  1.00
E      2.00  0.00 -2.00  0.00  0.00

     the symmetry operations in each class and the name of the first element:

     E        1
          identity                                               
     2C4      3    4
           90 deg rotation - cart. axis [0,0,-1]                 
     C2       2
          180 deg rotation - cart. axis [0,0,1]                  
     2s_v     5    6
          inv. 180 deg rotation - cart. axis [0,1,0]             
     2s_d     7    8
          inv. 180 deg rotation - cart. axis [1,1,0]             

   Cartesian axes

     site n.     atom                  positions (alat units)
         1        Li     tau(   1) = (  -0.0000000  -0.0000000   3.1751110  )
         2        Li     tau(   2) = (   0.2500001   0.2500001   2.9131637  )
         3        Li     tau(   3) = (  -0.0000000  -0.0000000   3.6770733  )
         4        Li     tau(   4) = (   0.2499999   0.2499999   3.4231153  )
         5        Li     tau(   5) = (  -0.0000000  -0.0000000   4.1807506  )
         6        Li     tau(   6) = (   0.2499996   0.2499996   3.9265567  )
         7        Li     tau(   7) = (  -0.0000000  -0.0000000   4.6909380  )
         8        Li     tau(   8) = (   0.2500002   0.2500002   4.4288525  )
         9        Li     tau(   9) = (  -0.0000000   0.5000000   3.1751133  )
        10        Li     tau(  10) = (   0.2500001   0.7499999   2.9131637  )
        11        Li     tau(  11) = (  -0.0000000   0.5000000   3.6770700  )
        12        Li     tau(  12) = (   0.2499999   0.7500001   3.4231153  )
        13        Li     tau(  13) = (  -0.0000000   0.5000000   4.1807588  )
        14        Li     tau(  14) = (   0.2499996   0.7500004   3.9265567  )
        15        Li     tau(  15) = (  -0.0000000   0.5000000   4.6909359  )
        16        Li     tau(  16) = (   0.2500002   0.7499998   4.4288525  )
        17        Li     tau(  17) = (   0.5000000  -0.0000000   3.1751133  )
        18        Li     tau(  18) = (   0.7499999   0.2500001   2.9131637  )
        19        Li     tau(  19) = (   0.5000000  -0.0000000   3.6770700  )
        20        Li     tau(  20) = (   0.7500001   0.2499999   3.4231153  )
        21        Li     tau(  21) = (   0.5000000  -0.0000000   4.1807588  )
        22        Li     tau(  22) = (   0.7500004   0.2499996   3.9265567  )
        23        Li     tau(  23) = (   0.5000000  -0.0000000   4.6909359  )
        24        Li     tau(  24) = (   0.7499998   0.2500002   4.4288525  )
        25        Li     tau(  25) = (   0.5000000   0.5000000   3.1751126  )
        26        Li     tau(  26) = (   0.7499999   0.7499999   2.9131637  )
        27        Li     tau(  27) = (   0.5000000   0.5000000   3.6770680  )
        28        Li     tau(  28) = (   0.7500001   0.7500001   3.4231153  )
        29        Li     tau(  29) = (   0.5000000   0.5000000   4.1807550  )
        30        Li     tau(  30) = (   0.7500004   0.7500004   3.9265567  )
        31        Li     tau(  31) = (   0.5000000   0.5000000   4.6909365  )
        32        Li     tau(  32) = (   0.7499998   0.7499998   4.4288525  )

   Crystallographic axes

     site n.     atom                  positions (cryst. coord.)
         1        Li     tau(   1) = ( -0.0000000 -0.0000000  0.4175650  )
         2        Li     tau(   2) = (  0.2500001  0.2500001  0.3831158  )
         3        Li     tau(   3) = ( -0.0000000 -0.0000000  0.4835790  )
         4        Li     tau(   4) = (  0.2499999  0.2499999  0.4501805  )
         5        Li     tau(   5) = ( -0.0000000 -0.0000000  0.5498186  )
         6        Li     tau(   6) = (  0.2499996  0.2499996  0.5163890  )
         7        Li     tau(   7) = ( -0.0000000 -0.0000000  0.6169143  )
         8        Li     tau(   8) = (  0.2500002  0.2500002  0.5824469  )
         9        Li     tau(   9) = ( -0.0000000  0.5000000  0.4175653  )
        10        Li     tau(  10) = (  0.2500001  0.7499999  0.3831158  )
        11        Li     tau(  11) = ( -0.0000000  0.5000000  0.4835786  )
        12        Li     tau(  12) = (  0.2499999  0.7500001  0.4501805  )
        13        Li     tau(  13) = ( -0.0000000  0.5000000  0.5498196  )
        14        Li     tau(  14) = (  0.2499996  0.7500004  0.5163890  )
        15        Li     tau(  15) = ( -0.0000000  0.5000000  0.6169140  )
        16        Li     tau(  16) = (  0.2500002  0.7499998  0.5824469  )
        17        Li     tau(  17) = (  0.5000000 -0.0000000  0.4175653  )
        18        Li     tau(  18) = (  0.7499999  0.2500001  0.3831158  )
        19        Li     tau(  19) = (  0.5000000 -0.0000000  0.4835786  )
        20        Li     tau(  20) = (  0.7500001  0.2499999  0.4501805  )
        21        Li     tau(  21) = (  0.5000000 -0.0000000  0.5498196  )
        22        Li     tau(  22) = (  0.7500004  0.2499996  0.5163890  )
        23        Li     tau(  23) = (  0.5000000 -0.0000000  0.6169140  )
        24        Li     tau(  24) = (  0.7499998  0.2500002  0.5824469  )
        25        Li     tau(  25) = (  0.5000000  0.5000000  0.4175652  )
        26        Li     tau(  26) = (  0.7499999  0.7499999  0.3831158  )
        27        Li     tau(  27) = (  0.5000000  0.5000000  0.4835783  )
        28        Li     tau(  28) = (  0.7500001  0.7500001  0.4501805  )
        29        Li     tau(  29) = (  0.5000000  0.5000000  0.5498191  )
        30        Li     tau(  30) = (  0.7500004  0.7500004  0.5163890  )
        31        Li     tau(  31) = (  0.5000000  0.5000000  0.6169141  )
        32        Li     tau(  32) = (  0.7499998  0.7499998  0.5824469  )

     number of k points=    21  Marzari-Vanderbilt smearing, width (Ry)=  0.0100
                       cart. coord. in units 2pi/alat
        k(    1) = (   0.0000000   0.0000000   0.0000000), wk =   0.0200000
        k(    2) = (   0.0000000   0.1000000   0.0000000), wk =   0.0800000
        k(    3) = (   0.0000000   0.2000000   0.0000000), wk =   0.0800000
        k(    4) = (   0.0000000   0.3000000   0.0000000), wk =   0.0800000
        k(    5) = (   0.0000000   0.4000000   0.0000000), wk =   0.0800000
        k(    6) = (   0.0000000  -0.5000000   0.0000000), wk =   0.0400000
        k(    7) = (   0.1000000   0.1000000   0.0000000), wk =   0.0800000
        k(    8) = (   0.1000000   0.2000000   0.0000000), wk =   0.1600000
        k(    9) = (   0.1000000   0.3000000   0.0000000), wk =   0.1600000
        k(   10) = (   0.1000000   0.4000000   0.0000000), wk =   0.1600000
        k(   11) = (   0.1000000  -0.5000000   0.0000000), wk =   0.0800000
        k(   12) = (   0.2000000   0.2000000   0.0000000), wk =   0.0800000
        k(   13) = (   0.2000000   0.3000000   0.0000000), wk =   0.1600000
        k(   14) = (   0.2000000   0.4000000   0.0000000), wk =   0.1600000
        k(   15) = (   0.2000000  -0.5000000   0.0000000), wk =   0.0800000
        k(   16) = (   0.3000000   0.3000000   0.0000000), wk =   0.0800000
        k(   17) = (   0.3000000   0.4000000   0.0000000), wk =   0.1600000
        k(   18) = (   0.3000000  -0.5000000   0.0000000), wk =   0.0800000
        k(   19) = (   0.4000000   0.4000000   0.0000000), wk =   0.0800000
        k(   20) = (   0.4000000  -0.5000000   0.0000000), wk =   0.0800000
        k(   21) = (  -0.5000000  -0.5000000   0.0000000), wk =   0.0200000

                       cryst. coord.
        k(    1) = (   0.0000000   0.0000000   0.0000000), wk =   0.0200000
        k(    2) = (   0.0000000   0.1000000   0.0000000), wk =   0.0800000
        k(    3) = (   0.0000000   0.2000000   0.0000000), wk =   0.0800000
        k(    4) = (   0.0000000   0.3000000   0.0000000), wk =   0.0800000
        k(    5) = (   0.0000000   0.4000000   0.0000000), wk =   0.0800000
        k(    6) = (   0.0000000  -0.5000000   0.0000000), wk =   0.0400000
        k(    7) = (   0.1000000   0.1000000   0.0000000), wk =   0.0800000
        k(    8) = (   0.1000000   0.2000000   0.0000000), wk =   0.1600000
        k(    9) = (   0.1000000   0.3000000   0.0000000), wk =   0.1600000
        k(   10) = (   0.1000000   0.4000000   0.0000000), wk =   0.1600000
        k(   11) = (   0.1000000  -0.5000000   0.0000000), wk =   0.0800000
        k(   12) = (   0.2000000   0.2000000   0.0000000), wk =   0.0800000
        k(   13) = (   0.2000000   0.3000000   0.0000000), wk =   0.1600000
        k(   14) = (   0.2000000   0.4000000   0.0000000), wk =   0.1600000
        k(   15) = (   0.2000000  -0.5000000   0.0000000), wk =   0.0800000
        k(   16) = (   0.3000000   0.3000000   0.0000000), wk =   0.0800000
        k(   17) = (   0.3000000   0.4000000   0.0000000), wk =   0.1600000
        k(   18) = (   0.3000000  -0.5000000   0.0000000), wk =   0.0800000
        k(   19) = (   0.4000000   0.4000000   0.0000000), wk =   0.0800000
        k(   20) = (   0.4000000  -0.5000000   0.0000000), wk =   0.0800000
        k(   21) = (  -0.5000000  -0.5000000   0.0000000), wk =   0.0200000

     Dense  grid:  6359029 G-vectors     FFT dimensions: ( 120, 120, 900)

     Smooth grid:  1608267 G-vectors     FFT dimensions: (  75,  75, 576)

     Dynamical RAM for                 wfc:       0.86 MB

     Dynamical RAM for     wfc (w. buffer):      18.97 MB

     Dynamical RAM for           str. fact:       0.38 MB

     Dynamical RAM for           local pot:       0.00 MB

     Dynamical RAM for          nlocal pot:       3.07 MB

     Dynamical RAM for                qrad:       0.65 MB

     Dynamical RAM for          rho,v,vnew:       2.46 MB

     Dynamical RAM for               rhoin:       0.82 MB

     Dynamical RAM for            rho*nmix:       6.07 MB

     Dynamical RAM for           G-vectors:       1.47 MB

     Dynamical RAM for          h,s,v(r/c):       3.80 MB

     Dynamical RAM for          <psi|beta>:       0.28 MB

     Dynamical RAM for                 psi:       3.45 MB

     Dynamical RAM for                hpsi:       3.45 MB

     Dynamical RAM for                spsi:       3.45 MB

     Dynamical RAM for      wfcinit/wfcrot:       1.84 MB

     Dynamical RAM for           addusdens:      28.45 MB

     Dynamical RAM for          addusforce:      52.18 MB

     Estimated static dynamical RAM per process >      30.77 MB

     Estimated max dynamical RAM per process >      97.03 MB

     Estimated total dynamical RAM >      22.26 GB

     Initial potential from superposition of free atoms

     starting charge      95.8525, renormalised to      96.0000

     negative rho (up, down):  2.907E-03 0.000E+00
     Starting wfcs are random
     Checking if some PAW data can be deallocated... 

     total cpu time spent up to now is       23.3 secs

     Self-consistent Calculation

     iteration #  1     ecut=    80.00 Ry     beta= 0.20
     Davidson diagonalization with overlap

---- Real-time Memory Report at c_bands before calling an iterative solver
           378 MiB given to the printing process from OS
             0 MiB allocation reported by mallinfo(arena+hblkhd)
        217305 MiB available memory on the node where the printing process lives
------------------
     c_bands:  1 eigenvalues not converged
     c_bands:  1 eigenvalues not converged
     c_bands:  1 eigenvalues not converged
     c_bands:  1 eigenvalues not converged
     c_bands:  2 eigenvalues not converged
     ethr =  1.00E-12,  avg # of iterations =118.6

     negative rho (up, down):  2.181E-03 0.000E+00

     total cpu time spent up to now is      217.2 secs

     total energy              =    -481.23831724 Ry
     estimated scf accuracy    <       0.11049437 Ry

     total charge of GC-SCF    =      -0.03179762 e
     the Fermi energy          =      -4.22953626 eV
                        (error :       2.82553626 eV)
     electrostatic embedding   =       0.00000000 Ry
     cavitation energy         =       0.01925806 Ry
     electrolyte free energy   =       0.00716218 Ry
     correction to one-el term =      -0.00000000 Ry

     iteration #  2     ecut=    80.00 Ry     beta= 0.20
     Davidson diagonalization with overlap

---- Real-time Memory Report at c_bands before calling an iterative solver
           378 MiB given to the printing process from OS
             0 MiB allocation reported by mallinfo(arena+hblkhd)
        214851 MiB available memory on the node where the printing process lives
------------------
     ethr =  1.00E-05,  avg # of iterations = 10.8

     negative rho (up, down):  1.718E-03 0.000E+00

     add environment contribution to local potential

     total cpu time spent up to now is      241.3 secs

     total energy              =    -481.32206446 Ry
     estimated scf accuracy    <       0.04582279 Ry

     total charge of GC-SCF    =      -0.04973153 e
     the Fermi energy          =      -2.78415477 eV
                        (error :       1.38015477 eV)
     electrostatic embedding   =      -0.00028815 Ry
     cavitation energy         =       0.01925806 Ry
     electrolyte free energy   =       0.00716218 Ry
     correction to one-el term =      -0.00000000 Ry

     iteration #  3     ecut=    80.00 Ry     beta= 0.20
     Davidson diagonalization with overlap

---- Real-time Memory Report at c_bands before calling an iterative solver
           378 MiB given to the printing process from OS
             0 MiB allocation reported by mallinfo(arena+hblkhd)
        214793 MiB available memory on the node where the printing process lives
------------------
     ethr =  1.00E-05,  avg # of iterations = 19.9

     negative rho (up, down):  1.399E-03 0.000E+00

     add environment contribution to local potential

     total cpu time spent up to now is      274.8 secs

     total energy              =    -481.22844061 Ry
     estimated scf accuracy    <       0.03785481 Ry

     total charge of GC-SCF    =      -0.16068276 e
     the Fermi energy          =      -2.78522924 eV
                        (error :       1.38122924 eV)
     electrostatic embedding   =      -0.02327937 Ry
     cavitation energy         =       0.01925806 Ry
     electrolyte free energy   =      -0.00228062 Ry
     correction to one-el term =       2.12237855 Ry

     iteration #  4     ecut=    80.00 Ry     beta= 0.20
     Davidson diagonalization with overlap

---- Real-time Memory Report at c_bands before calling an iterative solver
           378 MiB given to the printing process from OS
             0 MiB allocation reported by mallinfo(arena+hblkhd)
        214820 MiB available memory on the node where the printing process lives
------------------
     ethr =  1.00E-05,  avg # of iterations =  8.3

     negative rho (up, down):  1.123E-03 0.000E+00

     add environment contribution to local potential

     total cpu time spent up to now is      296.3 secs

     total energy              =    -481.22168616 Ry
     estimated scf accuracy    <       0.01128194 Ry

     total charge of GC-SCF    =      -0.30458465 e
     the Fermi energy          =      -3.02164813 eV
                        (error :       1.61764813 eV)
     electrostatic embedding   =      -0.03284650 Ry
     cavitation energy         =       0.01925806 Ry
     electrolyte free energy   =      -0.00291291 Ry
     correction to one-el term =       6.80913940 Ry

     iteration #  5     ecut=    80.00 Ry     beta= 0.20
     Davidson diagonalization with overlap

---- Real-time Memory Report at c_bands before calling an iterative solver
           378 MiB given to the printing process from OS
             0 MiB allocation reported by mallinfo(arena+hblkhd)
        214806 MiB available memory on the node where the printing process lives
------------------
     ethr =  1.00E-05,  avg # of iterations = 12.2

     negative rho (up, down):  9.486E-04 0.000E+00

     add environment contribution to local potential

     total cpu time spent up to now is      321.5 secs

     total energy              =    -481.19311588 Ry
     estimated scf accuracy    <       0.00425392 Ry

     total charge of GC-SCF    =      -0.60625881 e
     the Fermi energy          =      -2.47172613 eV
                        (error :       1.06772613 eV)
     electrostatic embedding   =      -0.04910472 Ry
     cavitation energy         =       0.01925806 Ry
     electrolyte free energy   =      -0.00025189 Ry
     correction to one-el term =      12.67497733 Ry

     iteration #  6     ecut=    80.00 Ry     beta= 0.20
     Davidson diagonalization with overlap

---- Real-time Memory Report at c_bands before calling an iterative solver
           378 MiB given to the printing process from OS
             0 MiB allocation reported by mallinfo(arena+hblkhd)
        214791 MiB available memory on the node where the printing process lives
------------------
     ethr =  4.40E-06,  avg # of iterations = 19.0

     negative rho (up, down):  8.241E-04 0.000E+00

     add environment contribution to local potential

     total cpu time spent up to now is      351.0 secs

     total energy              =    -481.26635472 Ry
     estimated scf accuracy    <       0.02314886 Ry

     total charge of GC-SCF    =      -0.78421040 e
     the Fermi energy          =      -1.86615913 eV
                        (error :       0.46215913 eV)
     electrostatic embedding   =      -0.11591833 Ry
     cavitation energy         =       0.01925806 Ry
     electrolyte free energy   =      -0.00219586 Ry
     correction to one-el term =      25.61722647 Ry

     iteration #  7     ecut=    80.00 Ry     beta= 0.20
     Davidson diagonalization with overlap

---- Real-time Memory Report at c_bands before calling an iterative solver
           378 MiB given to the printing process from OS
             0 MiB allocation reported by mallinfo(arena+hblkhd)
        214779 MiB available memory on the node where the printing process lives
------------------
     ethr =  4.40E-06,  avg # of iterations =  6.8

     negative rho (up, down):  7.295E-04 0.000E+00

     add environment contribution to local potential

     total cpu time spent up to now is      368.4 secs

     total energy              =    -481.27175621 Ry
     estimated scf accuracy    <       0.01595811 Ry

     total charge of GC-SCF    =      -0.94215105 e
     the Fermi energy          =      -1.94394264 eV
                        (error :       0.53994264 eV)
     electrostatic embedding   =      -0.17557016 Ry
     cavitation energy         =       0.01925806 Ry
     electrolyte free energy   =      -0.00223091 Ry
     correction to one-el term =      31.56671572 Ry

     iteration #  8     ecut=    80.00 Ry     beta= 0.20
     Davidson diagonalization with overlap

---- Real-time Memory Report at c_bands before calling an iterative solver
           378 MiB given to the printing process from OS
             0 MiB allocation reported by mallinfo(arena+hblkhd)
        214755 MiB available memory on the node where the printing process lives
------------------
     ethr =  4.40E-06,  avg # of iterations =  6.5

     negative rho (up, down):  6.474E-04 0.000E+00

     add environment contribution to local potential

     total cpu time spent up to now is      385.5 secs

     total energy              =    -481.29656542 Ry
     estimated scf accuracy    <       0.00850559 Ry

     total charge of GC-SCF    =      -1.11951681 e
     the Fermi energy          =      -2.00855157 eV
                        (error :       0.60455157 eV)
     electrostatic embedding   =      -0.23999009 Ry
     cavitation energy         =       0.01925806 Ry
     electrolyte free energy   =      -0.00239595 Ry
     correction to one-el term =      36.89646322 Ry

     iteration #  9     ecut=    80.00 Ry     beta= 0.20
     Davidson diagonalization with overlap

---- Real-time Memory Report at c_bands before calling an iterative solver
           378 MiB given to the printing process from OS
             0 MiB allocation reported by mallinfo(arena+hblkhd)
        214730 MiB available memory on the node where the printing process lives
------------------
     ethr =  4.40E-06,  avg # of iterations =  5.2

     negative rho (up, down):  5.841E-04 0.000E+00

     add environment contribution to local potential

     total cpu time spent up to now is      401.5 secs

     total energy              =    -481.27033976 Ry
     estimated scf accuracy    <       0.01145210 Ry

     total charge of GC-SCF    =      -1.43189859 e
     the Fermi energy          =      -1.94760472 eV
                        (error :       0.54360472 eV)
     electrostatic embedding   =      -0.31884407 Ry
     cavitation energy         =       0.01925806 Ry
     electrolyte free energy   =      -0.00323736 Ry
     correction to one-el term =      42.43577490 Ry

     iteration # 10     ecut=    80.00 Ry     beta= 0.20
     Davidson diagonalization with overlap

---- Real-time Memory Report at c_bands before calling an iterative solver
           378 MiB given to the printing process from OS
             0 MiB allocation reported by mallinfo(arena+hblkhd)
        214701 MiB available memory on the node where the printing process lives
------------------
     ethr =  4.40E-06,  avg # of iterations =  6.0

     negative rho (up, down):  5.261E-04 0.000E+00

     add environment contribution to local potential

     total cpu time spent up to now is      418.7 secs

     total energy              =    -481.29673109 Ry
     estimated scf accuracy    <       0.00727959 Ry

     total charge of GC-SCF    =      -1.84148819 e
     the Fermi energy          =      -1.98406365 eV
                        (error :       0.58006365 eV)
     electrostatic embedding   =      -0.48942753 Ry
     cavitation energy         =       0.01925806 Ry
     electrolyte free energy   =      -0.00441615 Ry
     correction to one-el term =      52.10699232 Ry

     iteration # 11     ecut=    80.00 Ry     beta= 0.20
     Davidson diagonalization with overlap

---- Real-time Memory Report at c_bands before calling an iterative solver
           378 MiB given to the printing process from OS
             0 MiB allocation reported by mallinfo(arena+hblkhd)
        214681 MiB available memory on the node where the printing process lives
------------------
     ethr =  4.40E-06,  avg # of iterations =  7.0

     negative rho (up, down):  4.884E-04 0.000E+00

     add environment contribution to local potential

     total cpu time spent up to now is      438.3 secs

     total energy              =    -481.30480708 Ry
     estimated scf accuracy    <       0.01139177 Ry

     total charge of GC-SCF    =      -2.48867722 e
     the Fermi energy          =      -1.89671513 eV
                        (error :       0.49271513 eV)
     electrostatic embedding   =      -0.75889174 Ry
     cavitation energy         =       0.01925806 Ry
     electrolyte free energy   =      -0.00753375 Ry
     correction to one-el term =      64.11723752 Ry

     iteration # 12     ecut=    80.00 Ry     beta= 0.20
     Davidson diagonalization with overlap

---- Real-time Memory Report at c_bands before calling an iterative solver
           378 MiB given to the printing process from OS
             0 MiB allocation reported by mallinfo(arena+hblkhd)
        214682 MiB available memory on the node where the printing process lives
------------------
     ethr =  4.40E-06,  avg # of iterations =  6.7

     negative rho (up, down):  4.810E-04 0.000E+00

     add environment contribution to local potential

     total cpu time spent up to now is      457.8 secs

     total energy              =    -481.60624717 Ry
     estimated scf accuracy    <       0.01458983 Ry

     total charge of GC-SCF    =      -1.84223713 e
     the Fermi energy          =      -1.82742787 eV
                        (error :       0.42342787 eV)
     electrostatic embedding   =      -1.31259221 Ry
     cavitation energy         =       0.01925806 Ry
     electrolyte free energy   =      -0.01558282 Ry
     correction to one-el term =      83.23396984 Ry

     iteration # 13     ecut=    80.00 Ry     beta= 0.20
     Davidson diagonalization with overlap

---- Real-time Memory Report at c_bands before calling an iterative solver
           378 MiB given to the printing process from OS
             0 MiB allocation reported by mallinfo(arena+hblkhd)
        214686 MiB available memory on the node where the printing process lives
------------------
     ethr =  4.40E-06,  avg # of iterations = 10.5

     negative rho (up, down):  5.345E-04 0.000E+00

     add environment contribution to local potential

     total cpu time spent up to now is      483.4 secs

     total energy              =    -481.32812281 Ry
     estimated scf accuracy    <       0.00105472 Ry

     total charge of GC-SCF    =      -2.34250725 e
     the Fermi energy          =      -2.14288725 eV
                        (error :       0.73888725 eV)
     electrostatic embedding   =      -0.77443540 Ry
     cavitation energy         =       0.01925806 Ry
     electrolyte free energy   =      -0.00669521 Ry
     correction to one-el term =      64.68743551 Ry

     iteration # 14     ecut=    80.00 Ry     beta= 0.20
     Davidson diagonalization with overlap

---- Real-time Memory Report at c_bands before calling an iterative solver
           378 MiB given to the printing process from OS
             0 MiB allocation reported by mallinfo(arena+hblkhd)
        214688 MiB available memory on the node where the printing process lives
------------------
     ethr =  1.07E-06,  avg # of iterations = 11.5

     negative rho (up, down):  4.873E-04 0.000E+00

     add environment contribution to local potential

     total cpu time spent up to now is      508.7 secs

     total energy              =    -481.43759504 Ry
     estimated scf accuracy    <       0.00349791 Ry

     total charge of GC-SCF    =      -2.18471063 e
     the Fermi energy          =      -1.87390274 eV
                        (error :       0.46990274 eV)
     electrostatic embedding   =      -1.17782293 Ry
     cavitation energy         =       0.01925806 Ry
     electrolyte free energy   =      -0.01349393 Ry
     correction to one-el term =      79.65008200 Ry

     iteration # 15     ecut=    80.00 Ry     beta= 0.20
     Davidson diagonalization with overlap

---- Real-time Memory Report at c_bands before calling an iterative solver
           378 MiB given to the printing process from OS
             0 MiB allocation reported by mallinfo(arena+hblkhd)
        214672 MiB available memory on the node where the printing process lives
------------------
     ethr =  1.07E-06,  avg # of iterations =  8.1

     negative rho (up, down):  4.148E-04 0.000E+00

     add environment contribution to local potential

     total cpu time spent up to now is      528.7 secs

     total energy              =    -481.37261704 Ry
     estimated scf accuracy    <       0.00176623 Ry

     total charge of GC-SCF    =      -2.35815625 e
     the Fermi energy          =      -1.97445239 eV
                        (error :       0.57045239 eV)
     electrostatic embedding   =      -1.04021863 Ry
     cavitation energy         =       0.01925806 Ry
     electrolyte free energy   =      -0.01089483 Ry
     correction to one-el term =      74.85389753 Ry

     iteration # 16     ecut=    80.00 Ry     beta= 0.20
     Davidson diagonalization with overlap

---- Real-time Memory Report at c_bands before calling an iterative solver
           378 MiB given to the printing process from OS
             0 MiB allocation reported by mallinfo(arena+hblkhd)
        214649 MiB available memory on the node where the printing process lives
------------------
     ethr =  1.07E-06,  avg # of iterations =  8.4

     negative rho (up, down):  3.726E-04 0.000E+00

     add environment contribution to local potential

     total cpu time spent up to now is      548.2 secs

     total energy              =    -481.40144543 Ry
     estimated scf accuracy    <       0.00105620 Ry

     total charge of GC-SCF    =      -2.42632575 e
     the Fermi energy          =      -2.03394615 eV
                        (error :       0.62994615 eV)
     electrostatic embedding   =      -1.19800292 Ry
     cavitation energy         =       0.01925806 Ry
     electrolyte free energy   =      -0.01276802 Ry
     correction to one-el term =      79.65979814 Ry

     iteration # 17     ecut=    80.00 Ry     beta= 0.20
     Davidson diagonalization with overlap

---- Real-time Memory Report at c_bands before calling an iterative solver
           378 MiB given to the printing process from OS
             0 MiB allocation reported by mallinfo(arena+hblkhd)
        214615 MiB available memory on the node where the printing process lives
------------------
     ethr =  1.07E-06,  avg # of iterations =  6.8

     negative rho (up, down):  3.739E-04 0.000E+00

     add environment contribution to local potential

     total cpu time spent up to now is      565.7 secs

     total energy              =    -481.37921255 Ry
     estimated scf accuracy    <       0.00045507 Ry

     total charge of GC-SCF    =      -3.21505331 e
     the Fermi energy          =      -2.07516393 eV
                        (error :       0.67116393 eV)
     electrostatic embedding   =      -1.26249276 Ry
     cavitation energy         =       0.01925806 Ry
     electrolyte free energy   =      -0.01359293 Ry
     correction to one-el term =      81.44716470 Ry

     iteration # 18     ecut=    80.00 Ry     beta= 0.20
     Davidson diagonalization with overlap

---- Real-time Memory Report at c_bands before calling an iterative solver
           378 MiB given to the printing process from OS
             0 MiB allocation reported by mallinfo(arena+hblkhd)
        214612 MiB available memory on the node where the printing process lives
------------------
     ethr =  4.59E-07,  avg # of iterations = 10.3

     negative rho (up, down):  3.526E-04 0.000E+00

     add environment contribution to local potential

     total cpu time spent up to now is      591.2 secs

     total energy              =    -481.42190324 Ry
     estimated scf accuracy    <       0.00022133 Ry

     total charge of GC-SCF    =      -3.74505865 e
     the Fermi energy          =      -1.93596467 eV
                        (error :       0.53196467 eV)
     electrostatic embedding   =      -2.10516354 Ry
     cavitation energy         =       0.01925806 Ry
     electrolyte free energy   =      -0.03065811 Ry
     correction to one-el term =     103.99969616 Ry

     iteration # 19     ecut=    80.00 Ry     beta= 0.20
     Davidson diagonalization with overlap

---- Real-time Memory Report at c_bands before calling an iterative solver
           378 MiB given to the printing process from OS
             0 MiB allocation reported by mallinfo(arena+hblkhd)
        214630 MiB available memory on the node where the printing process lives
------------------
     ethr =  2.22E-07,  avg # of iterations = 15.5

     negative rho (up, down):  3.707E-04 0.000E+00

     add environment contribution to local potential

     total cpu time spent up to now is      621.4 secs

     total energy              =    -481.44124785 Ry
     estimated scf accuracy    <       0.00165829 Ry

     total charge of GC-SCF    =      -4.08611516 e
     the Fermi energy          =      -1.64088102 eV
                        (error :       0.23688102 eV)
     electrostatic embedding   =      -2.76199082 Ry
     cavitation energy         =       0.01925806 Ry
     electrolyte free energy   =      -0.04916603 Ry
     correction to one-el term =     118.62742022 Ry

     iteration # 20     ecut=    80.00 Ry     beta= 0.20
     Davidson diagonalization with overlap

---- Real-time Memory Report at c_bands before calling an iterative solver
           378 MiB given to the printing process from OS
             0 MiB allocation reported by mallinfo(arena+hblkhd)
        214634 MiB available memory on the node where the printing process lives
------------------
     ethr =  2.22E-07,  avg # of iterations =  6.8

     negative rho (up, down):  3.605E-04 0.000E+00

     add environment contribution to local potential

     total cpu time spent up to now is      643.1 secs

     total energy              =    -481.47446175 Ry
     estimated scf accuracy    <       0.00052123 Ry

     total charge of GC-SCF    =      -3.98090866 e
     the Fermi energy          =      -1.60568913 eV
                        (error :       0.20168913 eV)
     electrostatic embedding   =      -3.25693743 Ry
     cavitation energy         =       0.01925806 Ry
     electrolyte free energy   =      -0.06345410 Ry
     correction to one-el term =     128.43006862 Ry

     iteration # 21     ecut=    80.00 Ry     beta= 0.20
     Davidson diagonalization with overlap

---- Real-time Memory Report at c_bands before calling an iterative solver
           378 MiB given to the printing process from OS
             0 MiB allocation reported by mallinfo(arena+hblkhd)
        214626 MiB available memory on the node where the printing process lives
------------------
     ethr =  2.22E-07,  avg # of iterations =  9.0

     negative rho (up, down):  3.297E-04 0.000E+00

     add environment contribution to local potential

     total cpu time spent up to now is      666.4 secs

     total energy              =    -481.45852924 Ry
     estimated scf accuracy    <       0.00013286 Ry

     total charge of GC-SCF    =      -4.29002391 e
     the Fermi energy          =      -1.68639044 eV
                        (error :       0.28239044 eV)
     electrostatic embedding   =      -3.10646566 Ry
     cavitation energy         =       0.01925806 Ry
     electrolyte free energy   =      -0.05840919 Ry
     correction to one-el term =     125.40929092 Ry

     iteration # 22     ecut=    80.00 Ry     beta= 0.20
     Davidson diagonalization with overlap

---- Real-time Memory Report at c_bands before calling an iterative solver
           378 MiB given to the printing process from OS
             0 MiB allocation reported by mallinfo(arena+hblkhd)
        214582 MiB available memory on the node where the printing process lives
------------------
     ethr =  1.32E-07,  avg # of iterations =  8.9

     negative rho (up, down):  3.028E-04 0.000E+00

     add environment contribution to local potential

     total cpu time spent up to now is      691.6 secs

     total energy              =    -481.48283976 Ry
     estimated scf accuracy    <       0.00019624 Ry

     total charge of GC-SCF    =      -4.14236345 e
     the Fermi energy          =      -1.57531472 eV
                        (error :       0.17131472 eV)
     electrostatic embedding   =      -3.56140830 Ry
     cavitation energy         =       0.01925806 Ry
     electrolyte free energy   =      -0.07342095 Ry
     correction to one-el term =     133.97424705 Ry

     iteration # 23     ecut=    80.00 Ry     beta= 0.20
     Davidson diagonalization with overlap

---- Real-time Memory Report at c_bands before calling an iterative solver
           378 MiB given to the printing process from OS
             0 MiB allocation reported by mallinfo(arena+hblkhd)
        214598 MiB available memory on the node where the printing process lives
------------------
     ethr =  1.32E-07,  avg # of iterations =  9.0

     negative rho (up, down):  3.644E-04 0.000E+00

     add environment contribution to local potential

     total cpu time spent up to now is      716.9 secs

     total energy              =    -481.47852993 Ry
     estimated scf accuracy    <       0.00052002 Ry

     total charge of GC-SCF    =      -4.76656540 e
     the Fermi energy          =      -1.60300195 eV
                        (error :       0.19900195 eV)
     electrostatic embedding   =      -3.29582316 Ry
     cavitation energy         =       0.01925806 Ry
     electrolyte free energy   =      -0.06581390 Ry
     correction to one-el term =     128.00434887 Ry

     iteration # 24     ecut=    80.00 Ry     beta= 0.20
     Davidson diagonalization with overlap

---- Real-time Memory Report at c_bands before calling an iterative solver
           378 MiB given to the printing process from OS
             0 MiB allocation reported by mallinfo(arena+hblkhd)
        214642 MiB available memory on the node where the printing process lives
------------------
     ethr =  1.32E-07,  avg # of iterations = 10.1

     negative rho (up, down):  2.903E-04 0.000E+00

     add environment contribution to local potential

     total cpu time spent up to now is      742.7 secs

     total energy              =    -481.48810425 Ry
     estimated scf accuracy    <       0.00003554 Ry

     total charge of GC-SCF    =      -4.50870486 e
     the Fermi energy          =      -1.47919924 eV
                        (error :       0.07519924 eV)
     electrostatic embedding   =      -4.23268596 Ry
     cavitation energy         =       0.01925806 Ry
     electrolyte free energy   =      -0.10184465 Ry
     correction to one-el term =     143.19561083 Ry

     iteration # 25     ecut=    80.00 Ry     beta= 0.20
     Davidson diagonalization with overlap

---- Real-time Memory Report at c_bands before calling an iterative solver
           378 MiB given to the printing process from OS
             0 MiB allocation reported by mallinfo(arena+hblkhd)
        214671 MiB available memory on the node where the printing process lives
------------------
     ethr =  3.54E-08,  avg # of iterations =  9.7

     negative rho (up, down):  2.676E-04 0.000E+00

     add environment contribution to local potential

     total cpu time spent up to now is      769.6 secs

     total energy              =    -481.49569451 Ry
     estimated scf accuracy    <       0.00003214 Ry

     total charge of GC-SCF    =      -5.03145566 e
     the Fermi energy          =      -1.55008942 eV
                        (error :       0.14608942 eV)
     electrostatic embedding   =      -3.82359264 Ry
     cavitation energy         =       0.01925806 Ry
     electrolyte free energy   =      -0.08505031 Ry
     correction to one-el term =     136.60338487 Ry

     iteration # 26     ecut=    80.00 Ry     beta= 0.20
     Davidson diagonalization with overlap

---- Real-time Memory Report at c_bands before calling an iterative solver
           378 MiB given to the printing process from OS
             0 MiB allocation reported by mallinfo(arena+hblkhd)
        214648 MiB available memory on the node where the printing process lives
------------------
     ethr =  3.18E-08,  avg # of iterations = 12.5

     negative rho (up, down):  2.654E-04 0.000E+00

     add environment contribution to local potential

     total cpu time spent up to now is      799.1 secs

     total energy              =    -481.47310129 Ry
     estimated scf accuracy    <       0.00004448 Ry

     total charge of GC-SCF    =      -4.94879901 e
     the Fermi energy          =      -1.35340832 eV
                        (error :       0.05059168 eV)
     electrostatic embedding   =      -4.65327172 Ry
     cavitation energy         =       0.01925806 Ry
     electrolyte free energy   =      -0.12535057 Ry
     correction to one-el term =     149.78369991 Ry

     iteration # 27     ecut=    80.00 Ry     beta= 0.20
     Davidson diagonalization with overlap

---- Real-time Memory Report at c_bands before calling an iterative solver
           378 MiB given to the printing process from OS
             0 MiB allocation reported by mallinfo(arena+hblkhd)
        214618 MiB available memory on the node where the printing process lives
------------------
     ethr =  3.18E-08,  avg # of iterations =  7.4

     negative rho (up, down):  2.639E-04 0.000E+00

     add environment contribution to local potential

     total cpu time spent up to now is      820.8 secs

     total energy              =    -481.48144829 Ry
     estimated scf accuracy    <       0.00002916 Ry

     total charge of GC-SCF    =      -4.71839432 e
     the Fermi energy          =      -1.39329490 eV
                        (error :       0.01070510 eV)
     electrostatic embedding   =      -4.51528815 Ry
     cavitation energy         =       0.01925806 Ry
     electrolyte free energy   =      -0.11661373 Ry
     correction to one-el term =     147.59537687 Ry

     iteration # 28     ecut=    80.00 Ry     beta= 0.20
     Davidson diagonalization with overlap

---- Real-time Memory Report at c_bands before calling an iterative solver
           378 MiB given to the printing process from OS
             0 MiB allocation reported by mallinfo(arena+hblkhd)
        214629 MiB available memory on the node where the printing process lives
------------------
     ethr =  2.89E-08,  avg # of iterations = 10.2

     negative rho (up, down):  2.439E-04 0.000E+00

     add environment contribution to local potential

     total cpu time spent up to now is      846.8 secs

     total energy              =    -481.47661648 Ry
     estimated scf accuracy    <       0.00001232 Ry

     total charge of GC-SCF    =      -4.67953960 e
     the Fermi energy          =      -1.49779323 eV
                        (error :       0.09379323 eV)
     electrostatic embedding   =      -4.12696704 Ry
     cavitation energy         =       0.01925806 Ry
     electrolyte free energy   =      -0.09831473 Ry
     correction to one-el term =     140.98416701 Ry

     iteration # 29     ecut=    80.00 Ry     beta= 0.20
     Davidson diagonalization with overlap

---- Real-time Memory Report at c_bands before calling an iterative solver
           378 MiB given to the printing process from OS
             0 MiB allocation reported by mallinfo(arena+hblkhd)
        214596 MiB available memory on the node where the printing process lives
------------------
     ethr =  1.22E-08,  avg # of iterations = 13.4

     negative rho (up, down):  2.385E-04 0.000E+00

     add environment contribution to local potential

     total cpu time spent up to now is      875.7 secs

     total energy              =    -481.47589809 Ry
     estimated scf accuracy    <       0.00001821 Ry

     total charge of GC-SCF    =      -4.92908897 e
     the Fermi energy          =      -1.52796619 eV
                        (error :       0.12396619 eV)
     electrostatic embedding   =      -4.02736328 Ry
     cavitation energy         =       0.01925806 Ry
     electrolyte free energy   =      -0.09541181 Ry
     correction to one-el term =     138.46022214 Ry

     iteration # 30     ecut=    80.00 Ry     beta= 0.20
     Davidson diagonalization with overlap

---- Real-time Memory Report at c_bands before calling an iterative solver
           378 MiB given to the printing process from OS
             0 MiB allocation reported by mallinfo(arena+hblkhd)
        214598 MiB available memory on the node where the printing process lives
------------------
     ethr =  1.22E-08,  avg # of iterations = 11.3

     negative rho (up, down):  2.341E-04 0.000E+00

     add environment contribution to local potential

     total cpu time spent up to now is      903.8 secs

     total energy              =    -481.47400787 Ry
     estimated scf accuracy    <       0.00000181 Ry

     total charge of GC-SCF    =      -4.96292771 e
     the Fermi energy          =      -1.42740062 eV
                        (error :       0.02340062 eV)
     electrostatic embedding   =      -4.42220902 Ry
     cavitation energy         =       0.01925806 Ry
     electrolyte free energy   =      -0.11450464 Ry
     correction to one-el term =     144.76049845 Ry

     iteration # 31     ecut=    80.00 Ry     beta= 0.20
     Davidson diagonalization with overlap

---- Real-time Memory Report at c_bands before calling an iterative solver
           378 MiB given to the printing process from OS
             0 MiB allocation reported by mallinfo(arena+hblkhd)
        214568 MiB available memory on the node where the printing process lives
------------------
     ethr =  1.79E-09,  avg # of iterations = 10.2

     negative rho (up, down):  2.301E-04 0.000E+00

     add environment contribution to local potential

     total cpu time spent up to now is      930.4 secs

     total energy              =    -481.47395624 Ry
     estimated scf accuracy    <       0.00000117 Ry

     total charge of GC-SCF    =      -4.97658754 e
     the Fermi energy          =      -1.41379907 eV
                        (error :       0.00979907 eV)
     electrostatic embedding   =      -4.46931836 Ry
     cavitation energy         =       0.01925806 Ry
     electrolyte free energy   =      -0.11762181 Ry
     correction to one-el term =     145.35110559 Ry

     iteration # 32     ecut=    80.00 Ry     beta= 0.20
     Davidson diagonalization with overlap

---- Real-time Memory Report at c_bands before calling an iterative solver
           378 MiB given to the printing process from OS
             0 MiB allocation reported by mallinfo(arena+hblkhd)
        214545 MiB available memory on the node where the printing process lives
------------------
     ethr =  1.15E-09,  avg # of iterations = 13.2

     negative rho (up, down):  2.276E-04 0.000E+00

     add environment contribution to local potential

     total cpu time spent up to now is      958.7 secs

     total energy              =    -481.47397930 Ry
     estimated scf accuracy    <       0.00000033 Ry

     total charge of GC-SCF    =      -4.98853169 e
     the Fermi energy          =      -1.41296556 eV
                        (error :       0.00896556 eV)
     electrostatic embedding   =      -4.47932978 Ry
     cavitation energy         =       0.01925806 Ry
     electrolyte free energy   =      -0.11890471 Ry
     correction to one-el term =     145.25328664 Ry

     iteration # 33     ecut=    80.00 Ry     beta= 0.20
     Davidson diagonalization with overlap

---- Real-time Memory Report at c_bands before calling an iterative solver
           378 MiB given to the printing process from OS
             0 MiB allocation reported by mallinfo(arena+hblkhd)
        214538 MiB available memory on the node where the printing process lives
------------------
     ethr =  3.24E-10,  avg # of iterations = 15.5

     negative rho (up, down):  2.267E-04 0.000E+00

     add environment contribution to local potential

     total cpu time spent up to now is      988.9 secs

     total energy              =    -481.47395206 Ry
     estimated scf accuracy    <       0.00000014 Ry

     total charge of GC-SCF    =      -4.98818395 e
     the Fermi energy          =      -1.40779636 eV
                        (error :       0.00379636 eV)
     electrostatic embedding   =      -4.49514056 Ry
     cavitation energy         =       0.01925806 Ry
     electrolyte free energy   =      -0.12011066 Ry
     correction to one-el term =     145.44734263 Ry

     iteration # 34     ecut=    80.00 Ry     beta= 0.20
     Davidson diagonalization with overlap

---- Real-time Memory Report at c_bands before calling an iterative solver
           378 MiB given to the printing process from OS
             0 MiB allocation reported by mallinfo(arena+hblkhd)
        214543 MiB available memory on the node where the printing process lives
------------------
     ethr =  1.40E-10,  avg # of iterations = 10.0

     negative rho (up, down):  2.247E-04 0.000E+00

     add environment contribution to local potential

     total cpu time spent up to now is     1013.6 secs

     total energy              =    -481.47395757 Ry
     estimated scf accuracy    <       0.00000011 Ry

     total charge of GC-SCF    =      -4.99622517 e
     the Fermi energy          =      -1.40824855 eV
                        (error :       0.00424855 eV)
     electrostatic embedding   =      -4.49301319 Ry
     cavitation energy         =       0.01925806 Ry
     electrolyte free energy   =      -0.12006807 Ry
     correction to one-el term =     145.38538643 Ry

     iteration # 35     ecut=    80.00 Ry     beta= 0.20
     Davidson diagonalization with overlap

---- Real-time Memory Report at c_bands before calling an iterative solver
           378 MiB given to the printing process from OS
             0 MiB allocation reported by mallinfo(arena+hblkhd)
        214527 MiB available memory on the node where the printing process lives
------------------
     ethr =  1.05E-10,  avg # of iterations = 14.0

     negative rho (up, down):  2.243E-04 0.000E+00

     add environment contribution to local potential

     total cpu time spent up to now is     1043.4 secs

     total energy              =    -481.47394060 Ry
     estimated scf accuracy    <       0.00000004 Ry

     total charge of GC-SCF    =      -5.00100411 e
     the Fermi energy          =      -1.40552035 eV
                        (error :       0.00152035 eV)
     electrostatic embedding   =      -4.50134959 Ry
     cavitation energy         =       0.01925806 Ry
     electrolyte free energy   =      -0.12089432 Ry
     correction to one-el term =     145.42834194 Ry

     iteration # 36     ecut=    80.00 Ry     beta= 0.20
     Davidson diagonalization with overlap

---- Real-time Memory Report at c_bands before calling an iterative solver
           378 MiB given to the printing process from OS
             0 MiB allocation reported by mallinfo(arena+hblkhd)
        214534 MiB available memory on the node where the printing process lives
------------------
     ethr =  3.80E-11,  avg # of iterations = 10.5

     negative rho (up, down):  2.239E-04 0.000E+00

     add environment contribution to local potential

     total cpu time spent up to now is     1070.2 secs

     total energy              =    -481.47392841 Ry
     estimated scf accuracy    <       0.00000002 Ry

     total charge of GC-SCF    =      -4.99969577 e
     the Fermi energy          =      -1.40379236 eV
                        (error :       0.00020764 eV)
     electrostatic embedding   =      -4.50757107 Ry
     cavitation energy         =       0.01925806 Ry
     electrolyte free energy   =      -0.12140113 Ry
     correction to one-el term =     145.49251453 Ry

     iteration # 37     ecut=    80.00 Ry     beta= 0.20
     Davidson diagonalization with overlap

---- Real-time Memory Report at c_bands before calling an iterative solver
           378 MiB given to the printing process from OS
             0 MiB allocation reported by mallinfo(arena+hblkhd)
        214523 MiB available memory on the node where the printing process lives
------------------
     ethr =  1.81E-11,  avg # of iterations = 10.7

     negative rho (up, down):  2.236E-04 0.000E+00

     add environment contribution to local potential

     total cpu time spent up to now is     1096.6 secs

     total energy              =    -481.47393572 Ry
     estimated scf accuracy    <          7.7E-09 Ry

     total charge of GC-SCF    =      -5.00128095 e
     the Fermi energy          =      -1.40493991 eV
                        (error :       0.00093991 eV)
     electrostatic embedding   =      -4.50435991 Ry
     cavitation energy         =       0.01925806 Ry
     electrolyte free energy   =      -0.12125377 Ry
     correction to one-el term =     145.41904772 Ry

     iteration # 38     ecut=    80.00 Ry     beta= 0.20
     Davidson diagonalization with overlap

---- Real-time Memory Report at c_bands before calling an iterative solver
           378 MiB given to the printing process from OS
             0 MiB allocation reported by mallinfo(arena+hblkhd)
        214528 MiB available memory on the node where the printing process lives
------------------
     ethr =  7.60E-12,  avg # of iterations = 10.4

     negative rho (up, down):  2.235E-04 0.000E+00

     add environment contribution to local potential

     total cpu time spent up to now is     1123.5 secs

     total energy              =    -481.47393078 Ry
     estimated scf accuracy    <          3.2E-09 Ry

     total charge of GC-SCF    =      -5.00168905 e
     the Fermi energy          =      -1.40415179 eV
                        (error :       0.00015179 eV)
     electrostatic embedding   =      -4.50645682 Ry
     cavitation energy         =       0.01925806 Ry
     electrolyte free energy   =      -0.12142367 Ry
     correction to one-el term =     145.44294273 Ry

     iteration # 39     ecut=    80.00 Ry     beta= 0.20
     Davidson diagonalization with overlap

---- Real-time Memory Report at c_bands before calling an iterative solver
           378 MiB given to the printing process from OS
             0 MiB allocation reported by mallinfo(arena+hblkhd)
        214528 MiB available memory on the node where the printing process lives
------------------
     ethr =  3.16E-12,  avg # of iterations = 12.7

     negative rho (up, down):  2.234E-04 0.000E+00

     add environment contribution to local potential

     total cpu time spent up to now is     1151.7 secs

     total energy              =    -481.47393035 Ry
     estimated scf accuracy    <          1.6E-09 Ry

     total charge of GC-SCF    =      -5.00193248 e
     the Fermi energy          =      -1.40411466 eV
                        (error :       0.00011466 eV)
     electrostatic embedding   =      -4.50690558 Ry
     cavitation energy         =       0.01925806 Ry
     electrolyte free energy   =      -0.12146665 Ry
     correction to one-el term =     145.44454481 Ry

     iteration # 40     ecut=    80.00 Ry     beta= 0.20
     Davidson diagonalization with overlap

---- Real-time Memory Report at c_bands before calling an iterative solver
           378 MiB given to the printing process from OS
             0 MiB allocation reported by mallinfo(arena+hblkhd)
        214459 MiB available memory on the node where the printing process lives
------------------
     ethr =  1.60E-12,  avg # of iterations =  7.7

     negative rho (up, down):  2.233E-04 0.000E+00

     add environment contribution to local potential

     total cpu time spent up to now is     1173.3 secs

     total energy              =    -481.47392939 Ry
     estimated scf accuracy    <          8.7E-10 Ry

     total charge of GC-SCF    =      -5.00190490 e
     the Fermi energy          =      -1.40396083 eV
                        (error :       0.00003917 eV)
     electrostatic embedding   =      -4.50732653 Ry
     cavitation energy         =       0.01925806 Ry
     electrolyte free energy   =      -0.12149335 Ry
     correction to one-el term =     145.45211408 Ry

     iteration # 41     ecut=    80.00 Ry     beta= 0.20
     Davidson diagonalization with overlap

---- Real-time Memory Report at c_bands before calling an iterative solver
           378 MiB given to the printing process from OS
             0 MiB allocation reported by mallinfo(arena+hblkhd)
        214459 MiB available memory on the node where the printing process lives
------------------
     ethr =  8.66E-13,  avg # of iterations =  9.0

     negative rho (up, down):  2.232E-04 0.000E+00

     add environment contribution to local potential

     total cpu time spent up to now is     1194.9 secs

     total energy              =    -481.47392945 Ry
     estimated scf accuracy    <          3.5E-10 Ry

     total charge of GC-SCF    =      -5.00171902 e
     the Fermi energy          =      -1.40397138 eV
                        (error :       0.00002862 eV)
     electrostatic embedding   =      -4.50728620 Ry
     cavitation energy         =       0.01925806 Ry
     electrolyte free energy   =      -0.12149036 Ry
     correction to one-el term =     145.45180383 Ry

     iteration # 42     ecut=    80.00 Ry     beta= 0.20
     Davidson diagonalization with overlap

---- Real-time Memory Report at c_bands before calling an iterative solver
           378 MiB given to the printing process from OS
             0 MiB allocation reported by mallinfo(arena+hblkhd)
        214457 MiB available memory on the node where the printing process lives
------------------
     ethr =  3.46E-13,  avg # of iterations = 10.2

     negative rho (up, down):  2.232E-04 0.000E+00

     add environment contribution to local potential

     total cpu time spent up to now is     1221.4 secs

     total energy              =    -481.47392972 Ry
     estimated scf accuracy    <          1.6E-10 Ry

     total charge of GC-SCF    =      -5.00164919 e
     the Fermi energy          =      -1.40401463 eV
                        (error :       0.00001463 eV)
     electrostatic embedding   =      -4.50707886 Ry
     cavitation energy         =       0.01925806 Ry
     electrolyte free energy   =      -0.12147063 Ry
     correction to one-el term =     145.45061496 Ry

     iteration # 43     ecut=    80.00 Ry     beta= 0.20
     Davidson diagonalization with overlap

---- Real-time Memory Report at c_bands before calling an iterative solver
           378 MiB given to the printing process from OS
             0 MiB allocation reported by mallinfo(arena+hblkhd)
        214454 MiB available memory on the node where the printing process lives
------------------
     ethr =  1.59E-13,  avg # of iterations = 10.2

     negative rho (up, down):  2.232E-04 0.000E+00

     add environment contribution to local potential

     total cpu time spent up to now is     1246.6 secs

     total energy              =    -481.47392983 Ry
     estimated scf accuracy    <          1.1E-10 Ry

     total charge of GC-SCF    =      -5.00145999 e
     the Fermi energy          =      -1.40403132 eV
                        (error :       0.00003132 eV)
     electrostatic embedding   =      -4.50701891 Ry
     cavitation energy         =       0.01925806 Ry
     electrolyte free energy   =      -0.12146328 Ry
     correction to one-el term =     145.45073142 Ry

     iteration # 44     ecut=    80.00 Ry     beta= 0.20
     Davidson diagonalization with overlap

---- Real-time Memory Report at c_bands before calling an iterative solver
           378 MiB given to the printing process from OS
             0 MiB allocation reported by mallinfo(arena+hblkhd)
        214461 MiB available memory on the node where the printing process lives
------------------
     ethr =  1.10E-13,  avg # of iterations =  8.5

     negative rho (up, down):  2.232E-04 0.000E+00

     add environment contribution to local potential

     total cpu time spent up to now is     1272.4 secs

     total energy              =    -481.47393039 Ry
     estimated scf accuracy    <          7.6E-11 Ry

     total charge of GC-SCF    =      -5.00145275 e
     the Fermi energy          =      -1.40410399 eV
                        (error :       0.00010399 eV)
     electrostatic embedding   =      -4.50672639 Ry
     cavitation energy         =       0.01925806 Ry
     electrolyte free energy   =      -0.12144283 Ry
     correction to one-el term =     145.44658031 Ry

     iteration # 45     ecut=    80.00 Ry     beta= 0.20
     Davidson diagonalization with overlap

---- Real-time Memory Report at c_bands before calling an iterative solver
           378 MiB given to the printing process from OS
             0 MiB allocation reported by mallinfo(arena+hblkhd)
        214429 MiB available memory on the node where the printing process lives
------------------
     ethr =  1.00E-13,  avg # of iterations =  7.5

     negative rho (up, down):  2.231E-04 0.000E+00

     add environment contribution to local potential

     total cpu time spent up to now is     1291.8 secs

     total energy              =    -481.47393043 Ry
     estimated scf accuracy    <          9.0E-11 Ry

     total charge of GC-SCF    =      -5.00148553 e
     the Fermi energy          =      -1.40410779 eV
                        (error :       0.00010779 eV)
     electrostatic embedding   =      -4.50670193 Ry
     cavitation energy         =       0.01925806 Ry
     electrolyte free energy   =      -0.12144199 Ry
     correction to one-el term =     145.44595790 Ry

     iteration # 46     ecut=    80.00 Ry     beta= 0.20
     Davidson diagonalization with overlap

---- Real-time Memory Report at c_bands before calling an iterative solver
           378 MiB given to the printing process from OS
             0 MiB allocation reported by mallinfo(arena+hblkhd)
        214478 MiB available memory on the node where the printing process lives
------------------
     ethr =  1.00E-13,  avg # of iterations =  7.6

     negative rho (up, down):  2.231E-04 0.000E+00

     add environment contribution to local potential

     total cpu time spent up to now is     1312.1 secs

     total energy              =    -481.47393037 Ry
     estimated scf accuracy    <          7.9E-11 Ry

     total charge of GC-SCF    =      -5.00150213 e
     the Fermi energy          =      -1.40409928 eV
                        (error :       0.00009928 eV)
     electrostatic embedding   =      -4.50674192 Ry
     cavitation energy         =       0.01925806 Ry
     electrolyte free energy   =      -0.12144548 Ry
     correction to one-el term =     145.44628599 Ry

     iteration # 47     ecut=    80.00 Ry     beta= 0.20
     Davidson diagonalization with overlap

---- Real-time Memory Report at c_bands before calling an iterative solver
           378 MiB given to the printing process from OS
             0 MiB allocation reported by mallinfo(arena+hblkhd)
        214470 MiB available memory on the node where the printing process lives
------------------
     ethr =  1.00E-13,  avg # of iterations =  4.7

     negative rho (up, down):  2.231E-04 0.000E+00

     add environment contribution to local potential

     total cpu time spent up to now is     1328.8 secs

     total energy              =    -481.47393034 Ry
     estimated scf accuracy    <          6.2E-11 Ry

     total charge of GC-SCF    =      -5.00154299 e
     the Fermi energy          =      -1.40409641 eV
                        (error :       0.00009641 eV)
     electrostatic embedding   =      -4.50676411 Ry
     cavitation energy         =       0.01925806 Ry
     electrolyte free energy   =      -0.12144726 Ry
     correction to one-el term =     145.44652458 Ry

     iteration # 48     ecut=    80.00 Ry     beta= 0.20
     Davidson diagonalization with overlap

---- Real-time Memory Report at c_bands before calling an iterative solver
           378 MiB given to the printing process from OS
             0 MiB allocation reported by mallinfo(arena+hblkhd)
        214480 MiB available memory on the node where the printing process lives
------------------
     ethr =  1.00E-13,  avg # of iterations =  7.8

     negative rho (up, down):  2.231E-04 0.000E+00

     add environment contribution to local potential

     total cpu time spent up to now is     1349.5 secs

     total energy              =    -481.47393026 Ry
     estimated scf accuracy    <          5.4E-11 Ry

     total charge of GC-SCF    =      -5.00173135 e
     the Fermi energy          =      -1.40408299 eV
                        (error :       0.00008299 eV)
     electrostatic embedding   =      -4.50681267 Ry
     cavitation energy         =       0.01925806 Ry
     electrolyte free energy   =      -0.12145162 Ry
     correction to one-el term =     145.44692789 Ry

     iteration # 49     ecut=    80.00 Ry     beta= 0.20
     Davidson diagonalization with overlap

---- Real-time Memory Report at c_bands before calling an iterative solver
           378 MiB given to the printing process from OS
             0 MiB allocation reported by mallinfo(arena+hblkhd)
        214484 MiB available memory on the node where the printing process lives
------------------
     ethr =  1.00E-13,  avg # of iterations = 11.2

     negative rho (up, down):  2.231E-04 0.000E+00

     add environment contribution to local potential

     total cpu time spent up to now is     1377.0 secs

     total energy              =    -481.47392981 Ry
     estimated scf accuracy    <          1.9E-11 Ry

     total charge of GC-SCF    =      -5.00181830 e
     the Fermi energy          =      -1.40402333 eV
                        (error :       0.00002333 eV)
     electrostatic embedding   =      -4.50704569 Ry
     cavitation energy         =       0.01925806 Ry
     electrolyte free energy   =      -0.12147175 Ry
     correction to one-el term =     145.44916943 Ry

     iteration # 50     ecut=    80.00 Ry     beta= 0.20
     Davidson diagonalization with overlap

---- Real-time Memory Report at c_bands before calling an iterative solver
           378 MiB given to the printing process from OS
             0 MiB allocation reported by mallinfo(arena+hblkhd)
        214470 MiB available memory on the node where the printing process lives
------------------
     ethr =  1.00E-13,  avg # of iterations =  8.1

     negative rho (up, down):  2.231E-04 0.000E+00

     add environment contribution to local potential

     total cpu time spent up to now is     1399.0 secs

     total energy              =    -481.47392959 Ry
     estimated scf accuracy    <          1.2E-11 Ry

     total charge of GC-SCF    =      -5.00176594 e
     the Fermi energy          =      -1.40399469 eV
                        (error :       0.00000531 eV)
     electrostatic embedding   =      -4.50716418 Ry
     cavitation energy         =       0.01925806 Ry
     electrolyte free energy   =      -0.12148110 Ry
     correction to one-el term =     145.45055470 Ry

     iteration # 51     ecut=    80.00 Ry     beta= 0.20
     Davidson diagonalization with overlap

---- Real-time Memory Report at c_bands before calling an iterative solver
           378 MiB given to the printing process from OS
             0 MiB allocation reported by mallinfo(arena+hblkhd)
        214436 MiB available memory on the node where the printing process lives
------------------
     ethr =  1.00E-13,  avg # of iterations =  8.7

     negative rho (up, down):  2.231E-04 0.000E+00

     add environment contribution to local potential

     total cpu time spent up to now is     1421.4 secs

     total energy              =    -481.47392971 Ry
     estimated scf accuracy    <          6.0E-12 Ry

     total charge of GC-SCF    =      -5.00177636 e
     the Fermi energy          =      -1.40401053 eV
                        (error :       0.00001053 eV)
     electrostatic embedding   =      -4.50710654 Ry
     cavitation energy         =       0.01925806 Ry
     electrolyte free energy   =      -0.12147553 Ry
     correction to one-el term =     145.45018900 Ry

     iteration # 52     ecut=    80.00 Ry     beta= 0.20
     Davidson diagonalization with overlap

---- Real-time Memory Report at c_bands before calling an iterative solver
           378 MiB given to the printing process from OS
             0 MiB allocation reported by mallinfo(arena+hblkhd)
        214450 MiB available memory on the node where the printing process lives
------------------
     ethr =  1.00E-13,  avg # of iterations =  4.6

     negative rho (up, down):  2.231E-04 0.000E+00

     add environment contribution to local potential

     total cpu time spent up to now is     1437.8 secs

     total energy              =    -481.47392968 Ry
     estimated scf accuracy    <          4.1E-12 Ry

     total charge of GC-SCF    =      -5.00180882 e
     the Fermi energy          =      -1.40400715 eV
                        (error :       0.00000715 eV)
     electrostatic embedding   =      -4.50712422 Ry
     cavitation energy         =       0.01925806 Ry
     electrolyte free energy   =      -0.12147666 Ry
     correction to one-el term =     145.45043695 Ry

     iteration # 53     ecut=    80.00 Ry     beta= 0.20
     Davidson diagonalization with overlap

---- Real-time Memory Report at c_bands before calling an iterative solver
           378 MiB given to the printing process from OS
             0 MiB allocation reported by mallinfo(arena+hblkhd)
        214444 MiB available memory on the node where the printing process lives
------------------
     ethr =  1.00E-13,  avg # of iterations =  5.4

     negative rho (up, down):  2.230E-04 0.000E+00

     add environment contribution to local potential

     total cpu time spent up to now is     1456.3 secs

     total energy              =    -481.47392960 Ry
     estimated scf accuracy    <          2.9E-12 Ry

     total charge of GC-SCF    =      -5.00180133 e
     the Fermi energy          =      -1.40399818 eV
                        (error :       0.00000182 eV)
     electrostatic embedding   =      -4.50716608 Ry
     cavitation energy         =       0.01925806 Ry
     electrolyte free energy   =      -0.12148013 Ry
     correction to one-el term =     145.45081088 Ry

     iteration # 54     ecut=    80.00 Ry     beta= 0.20
     Davidson diagonalization with overlap

---- Real-time Memory Report at c_bands before calling an iterative solver
           378 MiB given to the printing process from OS
             0 MiB allocation reported by mallinfo(arena+hblkhd)
        214425 MiB available memory on the node where the printing process lives
------------------
     ethr =  1.00E-13,  avg # of iterations =  4.1

     negative rho (up, down):  2.230E-04 0.000E+00

     add environment contribution to local potential

[...]
     atom   15 type  1   force =     0.00000000    0.00000000    0.00007344
     atom   16 type  1   force =    -0.00000030    0.00000030   -0.00042112
     atom   17 type  1   force =     0.00000000    0.00000000    0.00042444
     atom   18 type  1   force =    -0.00000003    0.00000003   -0.00009227
     atom   19 type  1   force =     0.00000000    0.00000000    0.00000957
     atom   20 type  1   force =     0.00000025   -0.00000025   -0.00028191
     atom   21 type  1   force =     0.00000000    0.00000000    0.00025760
     atom   22 type  1   force =    -0.00000053    0.00000053    0.00002941
     atom   23 type  1   force =     0.00000000    0.00000000    0.00007344
     atom   24 type  1   force =     0.00000030   -0.00000030   -0.00042112
     atom   25 type  1   force =     0.00000000    0.00000000    0.00042475
     atom   26 type  1   force =    -0.00000003   -0.00000003   -0.00009227
     atom   27 type  1   force =     0.00000000    0.00000000    0.00001005
     atom   28 type  1   force =     0.00000025    0.00000025   -0.00028191
     atom   29 type  1   force =     0.00000000    0.00000000    0.00025893
     atom   30 type  1   force =    -0.00000053   -0.00000053    0.00002941
     atom   31 type  1   force =     0.00000000    0.00000000    0.00007312
     atom   32 type  1   force =     0.00000030    0.00000030   -0.00042112
     The non-local contrib.  to forces
     atom    1 type  1   force =     0.00000000    0.00000000   -0.00193982
     atom    2 type  1   force =     0.00000004    0.00000004   -0.03336764
     atom    3 type  1   force =     0.00000000    0.00000000    0.00369491
     atom    4 type  1   force =    -0.00000042   -0.00000042    0.00000320
     atom    5 type  1   force =     0.00000000    0.00000000   -0.00001158
     atom    6 type  1   force =     0.00000089    0.00000089   -0.00363781
     atom    7 type  1   force =     0.00000000    0.00000000    0.03334698
     atom    8 type  1   force =    -0.00000049   -0.00000049    0.00191178
     atom    9 type  1   force =     0.00000000    0.00000000   -0.00194024
     atom   10 type  1   force =     0.00000004   -0.00000004   -0.03336764
     atom   11 type  1   force =     0.00000000    0.00000000    0.00369806
     atom   12 type  1   force =    -0.00000042    0.00000042    0.00000320
     atom   13 type  1   force =     0.00000000    0.00000000   -0.00001452
     atom   14 type  1   force =     0.00000089   -0.00000089   -0.00363781
     atom   15 type  1   force =     0.00000000    0.00000000    0.03334914
     atom   16 type  1   force =    -0.00000049    0.00000049    0.00191178
     atom   17 type  1   force =     0.00000000    0.00000000   -0.00194024
     atom   18 type  1   force =    -0.00000004    0.00000004   -0.03336764
     atom   19 type  1   force =     0.00000000    0.00000000    0.00369806
     atom   20 type  1   force =     0.00000042   -0.00000042    0.00000320
     atom   21 type  1   force =     0.00000000    0.00000000   -0.00001452
     atom   22 type  1   force =    -0.00000089    0.00000089   -0.00363781
     atom   23 type  1   force =     0.00000000    0.00000000    0.03334914
     atom   24 type  1   force =     0.00000049   -0.00000049    0.00191178
     atom   25 type  1   force =     0.00000000    0.00000000   -0.00194056
     atom   26 type  1   force =    -0.00000004   -0.00000004   -0.03336764
     atom   27 type  1   force =     0.00000000    0.00000000    0.00369735
     atom   28 type  1   force =     0.00000042    0.00000042    0.00000320
     atom   29 type  1   force =     0.00000000    0.00000000   -0.00001418
     atom   30 type  1   force =    -0.00000089   -0.00000089   -0.00363781
     atom   31 type  1   force =     0.00000000    0.00000000    0.03334799
     atom   32 type  1   force =     0.00000049    0.00000049    0.00191178
     The ionic contribution  to forces
     atom    1 type  1   force =    -0.00000001   -0.00000001   -9.85218329
     atom    2 type  1   force =     0.00000021    0.00000021  -13.49109991
     atom    3 type  1   force =    -0.00000001   -0.00000001   -1.96240208
     atom    4 type  1   force =    -0.00000630   -0.00000630   -5.93418921
     atom    5 type  1   force =    -0.00000000   -0.00000000    5.93474660
     atom    6 type  1   force =     0.00001634    0.00001634    1.96322079
     atom    7 type  1   force =    -0.00000001   -0.00000001   13.49029686
     atom    8 type  1   force =    -0.00000821   -0.00000821    9.85157375
     atom    9 type  1   force =    -0.00000001    0.00000001   -9.85216149
     atom   10 type  1   force =     0.00000021   -0.00000021  -13.49109988
     atom   11 type  1   force =    -0.00000001    0.00000001   -1.96241807
     atom   12 type  1   force =    -0.00000630    0.00000631   -5.93418923
     atom   13 type  1   force =    -0.00000000   -0.00000000    5.93481949
     atom   14 type  1   force =     0.00001634   -0.00001634    1.96322079
     atom   15 type  1   force =    -0.00000001    0.00000001   13.49029318
     atom   16 type  1   force =    -0.00000821    0.00000822    9.85157377
     atom   17 type  1   force =     0.00000001   -0.00000001   -9.85216149
     atom   18 type  1   force =    -0.00000021    0.00000021  -13.49109988
     atom   19 type  1   force =     0.00000001   -0.00000001   -1.96241807
     atom   20 type  1   force =     0.00000631   -0.00000630   -5.93418923
     atom   21 type  1   force =    -0.00000000   -0.00000000    5.93481949
     atom   22 type  1   force =    -0.00001634    0.00001634    1.96322079
     atom   23 type  1   force =     0.00000001   -0.00000001   13.49029318
     atom   24 type  1   force =     0.00000822   -0.00000821    9.85157377
     atom   25 type  1   force =     0.00000001    0.00000001   -9.85217145
     atom   26 type  1   force =    -0.00000021   -0.00000021  -13.49109986
     atom   27 type  1   force =     0.00000001    0.00000001   -1.96243744
     atom   28 type  1   force =     0.00000631    0.00000631   -5.93418923
     atom   29 type  1   force =    -0.00000000   -0.00000000    5.93476610
     atom   30 type  1   force =    -0.00001634   -0.00001634    1.96322078
     atom   31 type  1   force =     0.00000001    0.00000001   13.49029669
     atom   32 type  1   force =     0.00000822    0.00000822    9.85157379
     The local contribution  to forces
     atom    1 type  1   force =     0.00000407    0.00000407    9.67461292
     atom    2 type  1   force =     0.00000443    0.00000443   13.31006398
     atom    3 type  1   force =     0.00000407    0.00000407    1.92357805
     atom    4 type  1   force =     0.00001115    0.00001115    5.82706168
     atom    5 type  1   force =     0.00000407    0.00000407   -5.82726692
     atom    6 type  1   force =    -0.00001222   -0.00001222   -1.92410102
     atom    7 type  1   force =     0.00000349    0.00000349  -13.30886467
     atom    8 type  1   force =     0.00001282    0.00001282   -9.67359340
     atom    9 type  1   force =     0.00000407    0.00000499    9.67459158
     atom   10 type  1   force =     0.00000443    0.00000499   13.31006279
     atom   11 type  1   force =     0.00000407    0.00000441    1.92359171
     atom   12 type  1   force =     0.00001115   -0.00000175    5.82706228
     atom   13 type  1   force =     0.00000407    0.00000383   -5.82733798
     atom   14 type  1   force =    -0.00001222    0.00002104   -1.92410102
     atom   15 type  1   force =     0.00000349    0.00000442  -13.30886136
     atom   16 type  1   force =     0.00001282   -0.00000400   -9.67359400
     atom   17 type  1   force =     0.00000499    0.00000407    9.67459158
     atom   18 type  1   force =     0.00000499    0.00000443   13.31006279
     atom   19 type  1   force =     0.00000441    0.00000407    1.92359171
     atom   20 type  1   force =    -0.00000175    0.00001115    5.82706228
     atom   21 type  1   force =     0.00000383    0.00000407   -5.82733798
     atom   22 type  1   force =     0.00002104   -0.00001222   -1.92410102
     atom   23 type  1   force =     0.00000442    0.00000349  -13.30886136
     atom   24 type  1   force =    -0.00000400    0.00001282   -9.67359400
     atom   25 type  1   force =     0.00000499    0.00000499    9.67460195
     atom   26 type  1   force =     0.00000499    0.00000499   13.31006219
     atom   27 type  1   force =     0.00000441    0.00000441    1.92361173
     atom   28 type  1   force =    -0.00000175   -0.00000175    5.82706228
     atom   29 type  1   force =     0.00000383    0.00000383   -5.82728463
     atom   30 type  1   force =     0.00002104    0.00002104   -1.92410102
     atom   31 type  1   force =     0.00000442    0.00000442  -13.30886414
     atom   32 type  1   force =    -0.00000400   -0.00000400   -9.67359400
     The core correction contribution to forces
     atom    1 type  1   force =     0.00000000    0.00000000    0.00000000
     atom    2 type  1   force =     0.00000000    0.00000000    0.00000000
     atom    3 type  1   force =     0.00000000    0.00000000    0.00000000
     atom    4 type  1   force =     0.00000000    0.00000000    0.00000000
     atom    5 type  1   force =     0.00000000    0.00000000    0.00000000
     atom    6 type  1   force =     0.00000000    0.00000000    0.00000000
     atom    7 type  1   force =     0.00000000    0.00000000    0.00000000
     atom    8 type  1   force =     0.00000000    0.00000000    0.00000000
     atom    9 type  1   force =     0.00000000    0.00000000    0.00000000
     atom   10 type  1   force =     0.00000000    0.00000000    0.00000000
     atom   11 type  1   force =     0.00000000    0.00000000    0.00000000
     atom   12 type  1   force =     0.00000000    0.00000000    0.00000000
     atom   13 type  1   force =     0.00000000    0.00000000    0.00000000
     atom   14 type  1   force =     0.00000000    0.00000000    0.00000000
     atom   15 type  1   force =     0.00000000    0.00000000    0.00000000
     atom   16 type  1   force =     0.00000000    0.00000000    0.00000000
     atom   17 type  1   force =     0.00000000    0.00000000    0.00000000
     atom   18 type  1   force =     0.00000000    0.00000000    0.00000000
     atom   19 type  1   force =     0.00000000    0.00000000    0.00000000
     atom   20 type  1   force =     0.00000000    0.00000000    0.00000000
     atom   21 type  1   force =     0.00000000    0.00000000    0.00000000
     atom   22 type  1   force =     0.00000000    0.00000000    0.00000000
     atom   23 type  1   force =     0.00000000    0.00000000    0.00000000
     atom   24 type  1   force =     0.00000000    0.00000000    0.00000000
     atom   25 type  1   force =     0.00000000    0.00000000    0.00000000
     atom   26 type  1   force =     0.00000000    0.00000000    0.00000000
     atom   27 type  1   force =     0.00000000    0.00000000    0.00000000
     atom   28 type  1   force =     0.00000000    0.00000000    0.00000000
     atom   29 type  1   force =     0.00000000    0.00000000    0.00000000
     atom   30 type  1   force =     0.00000000    0.00000000    0.00000000
     atom   31 type  1   force =     0.00000000    0.00000000    0.00000000
     atom   32 type  1   force =     0.00000000    0.00000000    0.00000000
     The Hubbard contrib.    to forces
     atom    1 type  1   force =     0.00000000    0.00000000    0.00000000
     atom    2 type  1   force =     0.00000000    0.00000000    0.00000000
     atom    3 type  1   force =     0.00000000    0.00000000    0.00000000
     atom    4 type  1   force =     0.00000000    0.00000000    0.00000000
     atom    5 type  1   force =     0.00000000    0.00000000    0.00000000
     atom    6 type  1   force =     0.00000000    0.00000000    0.00000000
     atom    7 type  1   force =     0.00000000    0.00000000    0.00000000
     atom    8 type  1   force =     0.00000000    0.00000000    0.00000000
     atom    9 type  1   force =     0.00000000    0.00000000    0.00000000
     atom   10 type  1   force =     0.00000000    0.00000000    0.00000000
     atom   11 type  1   force =     0.00000000    0.00000000    0.00000000
     atom   12 type  1   force =     0.00000000    0.00000000    0.00000000
     atom   13 type  1   force =     0.00000000    0.00000000    0.00000000
     atom   14 type  1   force =     0.00000000    0.00000000    0.00000000
     atom   15 type  1   force =     0.00000000    0.00000000    0.00000000
     atom   16 type  1   force =     0.00000000    0.00000000    0.00000000
     atom   17 type  1   force =     0.00000000    0.00000000    0.00000000
     atom   18 type  1   force =     0.00000000    0.00000000    0.00000000
     atom   19 type  1   force =     0.00000000    0.00000000    0.00000000
     atom   20 type  1   force =     0.00000000    0.00000000    0.00000000
     atom   21 type  1   force =     0.00000000    0.00000000    0.00000000
     atom   22 type  1   force =     0.00000000    0.00000000    0.00000000
     atom   23 type  1   force =     0.00000000    0.00000000    0.00000000
     atom   24 type  1   force =     0.00000000    0.00000000    0.00000000
     atom   25 type  1   force =     0.00000000    0.00000000    0.00000000
     atom   26 type  1   force =     0.00000000    0.00000000    0.00000000
     atom   27 type  1   force =     0.00000000    0.00000000    0.00000000
     atom   28 type  1   force =     0.00000000    0.00000000    0.00000000
     atom   29 type  1   force =     0.00000000    0.00000000    0.00000000
     atom   30 type  1   force =     0.00000000    0.00000000    0.00000000
     atom   31 type  1   force =     0.00000000    0.00000000    0.00000000
     atom   32 type  1   force =     0.00000000    0.00000000    0.00000000
     The SCF correction term to forces
     atom    1 type  1   force =     0.00000000    0.00000000    0.00000004
     atom    2 type  1   force =    -0.00000000   -0.00000000    0.00000007
     atom    3 type  1   force =     0.00000000    0.00000000    0.00000005
     atom    4 type  1   force =    -0.00000000   -0.00000000    0.00000003
     atom    5 type  1   force =     0.00000000    0.00000000    0.00000005
     atom    6 type  1   force =    -0.00000000   -0.00000000    0.00000008
     atom    7 type  1   force =     0.00000000    0.00000000   -0.00000007
     atom    8 type  1   force =     0.00000000    0.00000000    0.00000000
     atom    9 type  1   force =     0.00000000   -0.00000000    0.00000004
     atom   10 type  1   force =    -0.00000000    0.00000000    0.00000007
     atom   11 type  1   force =     0.00000000    0.00000000    0.00000005
     atom   12 type  1   force =    -0.00000000    0.00000000    0.00000003
     atom   13 type  1   force =     0.00000000    0.00000000    0.00000006
     atom   14 type  1   force =    -0.00000000    0.00000000    0.00000008
     atom   15 type  1   force =    -0.00000000    0.00000000   -0.00000007
     atom   16 type  1   force =     0.00000000   -0.00000000    0.00000000
     atom   17 type  1   force =     0.00000000    0.00000000    0.00000004
     atom   18 type  1   force =     0.00000000   -0.00000000    0.00000007
     atom   19 type  1   force =    -0.00000000   -0.00000000    0.00000005
     atom   20 type  1   force =     0.00000000   -0.00000000    0.00000003
     atom   21 type  1   force =     0.00000000    0.00000000    0.00000006
     atom   22 type  1   force =     0.00000000   -0.00000000    0.00000008
     atom   23 type  1   force =     0.00000000   -0.00000000   -0.00000007
     atom   24 type  1   force =    -0.00000000    0.00000000    0.00000000
     atom   25 type  1   force =     0.00000000   -0.00000000    0.00000004
     atom   26 type  1   force =     0.00000000    0.00000000    0.00000007
     atom   27 type  1   force =    -0.00000000   -0.00000000    0.00000005
     atom   28 type  1   force =     0.00000000    0.00000000    0.00000003
     atom   29 type  1   force =    -0.00000000   -0.00000000    0.00000006
     atom   30 type  1   force =     0.00000000    0.00000000    0.00000008
     atom   31 type  1   force =     0.00000000   -0.00000000   -0.00000007
     atom   32 type  1   force =    -0.00000000   -0.00000000    0.00000000

     Total force =     0.001441     Total SCF correction =     0.000000

     Writing all to output data dir ./Li/Lithium.save/ :
     XML data file
     init_run     :     13.74s CPU     23.11s WALL (       1 calls)
     electrons    :   1266.31s CPU   1577.92s WALL (       1 calls)
     forces       :      9.02s CPU      9.83s WALL (       1 calls)

     Called by init_run:
     wfcinit      :      2.49s CPU      3.39s WALL (       1 calls)
     wfcinit:wfcr :      2.35s CPU      3.24s WALL (      21 calls)
     potinit      :      0.70s CPU      0.75s WALL (       1 calls)
     hinit0       :      2.54s CPU      2.79s WALL (       1 calls)

     Called by electrons:
     c_bands      :    939.01s CPU   1174.48s WALL (      63 calls)
     sum_band     :     71.59s CPU     98.04s WALL (      63 calls)
     v_of_rho     :      3.25s CPU      3.92s WALL (      64 calls)
     v_h          :      0.31s CPU      0.37s WALL (      64 calls)
     v_xc         :      2.95s CPU      3.54s WALL (      64 calls)
     newd         :      2.89s CPU      2.99s WALL (      64 calls)
     PAW_pot      :      0.54s CPU      0.70s WALL (      64 calls)
     mix_rho      :     10.20s CPU     12.92s WALL (      63 calls)

     Called by c_bands:
     init_us_2    :      8.47s CPU      8.86s WALL (    2688 calls)
     cegterg      :    927.41s CPU   1161.52s WALL (    1475 calls)

     Called by sum_band:
     sum_band:wei :      0.09s CPU      0.11s WALL (      63 calls)
     sum_band:loo :     67.96s CPU     94.13s WALL (      63 calls)
     sum_band:buf :      0.90s CPU      0.98s WALL (    1323 calls)
     sum_band:ini :      4.12s CPU      4.14s WALL (    1323 calls)
     sum_band:cal :      9.81s CPU     11.68s WALL (    1323 calls)
     sum_band:bec :      0.20s CPU      0.23s WALL (    1323 calls)
     addusdens    :      2.91s CPU      2.95s WALL (      63 calls)
                                        0.00s GPU  (      63 calls)
     addusd:skk   :      0.72s CPU      0.72s WALL (      63 calls)
                                        0.00s GPU  (      63 calls)

     Called by *egterg:
     cdiaghg      :    240.26s CPU    250.02s WALL (   15021 calls)
     cegterg:over :     54.39s CPU     60.51s WALL (   13657 calls)
     cegterg:upda :     33.90s CPU     35.07s WALL (   13657 calls)
     cegterg:last :     14.81s CPU     14.96s WALL (    1997 calls)
     h_psi        :    523.87s CPU    737.13s WALL (   15153 calls)
     s_psi        :     36.90s CPU     37.65s WALL (   15153 calls)
     g_psi        :      0.64s CPU      0.67s WALL (   13657 calls)

     Called by h_psi:
     h_psi:calbec :     53.23s CPU     64.61s WALL (   15153 calls)
     vloc_psi     :    428.16s CPU    627.98s WALL (   15153 calls)
                                        0.00s GPU  (   15153 calls)
     add_vuspsi   :     40.12s CPU     41.91s WALL (   15153 calls)

     General routines
     calbec       :     63.52s CPU     76.83s WALL (   16560 calls)
     fft          :      3.64s CPU      4.47s WALL (     832 calls)
     ffts         :      8.21s CPU     10.31s WALL (    7753 calls)
     fftw         :    464.86s CPU    682.51s WALL (  864280 calls)
     interpolate  :      0.88s CPU      0.98s WALL (      64 calls)

     Parallel routines

     PAW routines
     PAW_pot      :      0.54s CPU      0.70s WALL (      64 calls)
     PAW_symme    :      0.01s CPU      0.02s WALL (     127 calls)

     Environ routines

     PWSCF        :  21m29.18s CPU  26m51.12s WALL


   This run was terminated on:  13: 2:18   5Jan2025            

=------------------------------------------------------------------------------=
   JOB DONE.
=------------------------------------------------------------------------------=
