
     Program PWSCF v.7.4 starts on 26Dec2024 at  2:17:33 

     This program is part of the open-source Quantum ESPRESSO suite
     for quantum simulation of materials; please cite
         "P. Giannozzi et al., J. Phys.:Condens. Matter 21 395502 (2009);
         "P. Giannozzi et al., J. Phys.:Condens. Matter 29 465901 (2017);
         "P. Giannozzi et al., J. Chem. Phys. 152 154105 (2020);
          URL http://www.quantum-espresso.org", 
     in publications or presentations arising from this work. More details at
     http://www.quantum-espresso.org/quote

     Parallel version (MPI & OpenMP), running on     192 processor cores
     Number of MPI processes:               192
     Threads/MPI process:                     1

     MPI processes distributed on     1 nodes
     657208 MiB available memory on the printing compute node when the environment starts
 
     Reading input from espresso.pwi
Warning: card &CELL ignored
Warning: card    PRESS_CONV_THR   = 0.1 ignored
Warning: card    CELL_DOFREE      = 'ALL' ignored
Warning: card / ignored
Warning: card &FCP ignored
Warning: card / ignored
Warning: card &RISM ignored
Warning: card / ignored

     Current dimensions of program PWSCF are:
     Max number of different atomic species (ntypx) = 10
     Max number of k-points (npk) =  40000
     Max angular momentum in pseudopotentials (lmaxx) =  4

     IMPORTANT: XC functional enforced from input :
     Exchange-correlation= PBE
                           (   1   4   3   4   0   0   0)
     Any further DFT definition will be discarded
     Please, verify this is what you really want

 
     Reading input from environ.in:
     * using ionic solvent mode
     * setting boundary derivatives method to SSCS default
     * setting electrolyte-boundary derivatives method to SSCS default

Environ Warning (1001): card EOF ignored

     
     Found identity + ( -0.5000 -0.5000  0.0000) symmetry
     This is a supercell, fractional translations are disabled
 
     R & G space division:  proc/nbgrp/npool/nimage =     192
     Subspace diagonalization in iterative solution of the eigenvalue problem:
     a serial algorithm will be used

 
     Parallelization info
     --------------------
     sticks:   dense  smooth     PW     G-vecs:    dense   smooth      PW
     Min          96      38     10                56184    14194    1882
     Max          97      39     11                56261    14243    1918
     Sum       18577    7447   1945             10795351  2731157  365513
 
     Using Slab Decomposition
 


     bravais-lattice index     =            4
     lattice parameter (alat)  =      18.3607  a.u.
     unit-cell volume          =   28251.3759 (a.u.)^3
     number of atoms/cell      =           48
     number of atomic types    =            1
     number of electrons       =       144.00
     number of Kohn-Sham states=          108
     kinetic-energy cutoff     =      80.0000  Ry
     charge density cutoff     =     800.0000  Ry
     scf convergence threshold =      1.0E-14
     mixing beta               =       0.2000
     number of iterations used =            8  local-TF  mixing
     Exchange-correlation= PBE
                           (   1   4   3   4   0   0   0)

     ================================================================================
 
                                  Environ Setup Summary

     ================================================================================
 
     Please cite

          O. Andreussi, I. Dabo and N. Marzari, J. Chem. Phys. 136, 064102 (2012)
          F. Nattino, M. Truscott, N. Marzari, and O. Andreussi, J. Chem. Phys. 150, 041722 (2019)

     in publications or presentations arising from this work.

     ================================================================================
 
     Parameters
     ==========

     compensation onset threshold      =               0.1000E+00
     static permittivity               =                    89.90
     surface tension in input (dyn/cm) =                    37.30
     surface tension in internal units =               0.4792E-04

     Solvent Boundary
     ================

     solvent mode                      =                    ionic
     derivatives method                =                   lowmem
     electrolyte derivatives method    =                   lowmem
     numerical core for derivatives    =                      fft
     switching function adopted        =                     SCCS
     density limit for vacuum region   =               0.5000E-02
     density limit for bulk solvent    =               0.1000E-03
     soft-sphere radius mode           =                    bondi
     soft-sphere softness              =                     0.50
     alpha                             =                     1.32

     Electrostatic Setup
     ===================

     electrostatic problem to solve    =                    modpb
     numerical solver adopted          =                   newton
     type of auxiliary density adopted =                     none
     numerical core for poisson        =                      fft
     adopting a nested solver scheme
     inner solver                      =                       cg
     inner core                        =                      fft
     type of pbc corrections           =                parabolic
     numerical core for corrections    =                      1da

     ================================================================================
 

     celldm(1)=  18.360747  celldm(2)=   0.000000  celldm(3)=   5.270332
     celldm(4)=   0.000000  celldm(5)=   0.000000  celldm(6)=   0.000000

     crystal axes: (cart. coord. in units of alat)
               a(1) = (   1.000000   0.000000   0.000000 )  
               a(2) = (  -0.500000   0.866025   0.000000 )  
               a(3) = (   0.000000   0.000000   5.270332 )  

     reciprocal axes: (cart. coord. in units 2 pi/alat)
               b(1) = (  1.000000  0.577350  0.000000 )  
               b(2) = (  0.000000  1.154701  0.000000 )  
               b(3) = (  0.000000  0.000000  0.189741 )  


     PseudoPot. # 1 for Li read from file:
     /home/ba3g18/Repos/Pseudopotentials/pslibrary.1.0.0/pbe/PSEUDOPOTENTIALS/Li.pbe-sl-kjpaw_psl.1.0.0.UPF
     MD5 check sum: 3f4d2cafebb47c6c3aa8ed472e6f074d
     Pseudo is Projector augmented-wave, Zval =  3.0
     Generated using 'atomic' code by A. Dal Corso  v.7.4
     Shape of augmentation charge: PSQ
     Using radial grid of 1017 points,  4 beta functions with: 
                l(1) =   0
                l(2) =   0
                l(3) =   1
                l(4) =   1
     Q(r) pseudized with 0 coefficients 


     atomic species   valence    mass     pseudopotential
     Li                3.00     6.94000     Li( 1.00)

      2 Sym. Ops. (no inversion) found


                                    s                        frac. trans.

      isym =  1     identity                                     

 cryst.   s( 1) = (     1          0          0      )
                  (     0          1          0      )
                  (     0          0          1      )

 cart.    s( 1) = (  1.0000000  0.0000000  0.0000000 )
                  (  0.0000000  1.0000000  0.0000000 )
                  (  0.0000000  0.0000000  1.0000000 )


      isym =  2     inv. 180 deg rotation - cart. axis [1,0,0]   

 cryst.   s( 2) = (    -1          0          0      )
                  (     1          1          0      )
                  (     0          0          1      )

 cart.    s( 2) = ( -1.0000000  0.0000000  0.0000000 )
                  (  0.0000000  1.0000000  0.0000000 )
                  (  0.0000000  0.0000000  1.0000000 )


     point group C_s (m)    
     there are  2 classes
     the character table:

       E     s    
A'     1.00  1.00
A''    1.00 -1.00

     the symmetry operations in each class and the name of the first element:

     E        1
          identity                                               
     s        2
          inv. 180 deg rotation - cart. axis [1,0,0]             

   Cartesian axes

     site n.     atom                  positions (alat units)
         1        Li     tau(   1) = (  -0.0000000   0.0000008   2.5800986  )
         2        Li     tau(   2) = (   0.2500002   0.1443435   2.1910453  )
         3        Li     tau(   3) = (   0.5000000   0.2886790   2.3752607  )
         4        Li     tau(   4) = (   0.0000000   0.0000050   2.2671989  )
         5        Li     tau(   5) = (   0.2500001   0.1443400   2.4856510  )
         6        Li     tau(   6) = (   0.5000000   0.2886804   2.0668100  )
         7        Li     tau(   7) = (   0.0000000  -0.0000069   3.2035214  )
         8        Li     tau(   8) = (   0.2500000   0.1443353   2.7846820  )
         9        Li     tau(   9) = (   0.5000000   0.2886697   3.0031325  )
        10        Li     tau(  10) = (  -0.0000000  -0.0000041   2.8950708  )
        11        Li     tau(  11) = (   0.2500002   0.1443322   3.0792883  )
        12        Li     tau(  12) = (   0.5000000   0.2886741   2.6902328  )
        13        Li     tau(  13) = (   0.2499999   0.4330137   2.5800988  )
        14        Li     tau(  14) = (   0.5000000   0.5773555   2.1910441  )
        15        Li     tau(  15) = (   0.7499999   0.7216919   2.3752608  )
        16        Li     tau(  16) = (   0.2499998   0.4330182   2.2671991  )
        17        Li     tau(  17) = (   0.5000000   0.5773525   2.4856502  )
        18        Li     tau(  18) = (   0.7499992   0.7216950   2.0668102  )
        19        Li     tau(  19) = (   0.2499993   0.4330078   3.2035216  )
        20        Li     tau(  20) = (   0.5000000   0.5773478   2.7846811  )
        21        Li     tau(  21) = (   0.7499998   0.7216829   3.0031327  )
        22        Li     tau(  22) = (   0.2499999   0.4330089   2.8950709  )
        23        Li     tau(  23) = (   0.5000000   0.5773442   3.0792870  )
        24        Li     tau(  24) = (   0.7499999   0.7216871   2.6902330  )
        25        Li     tau(  25) = (   0.5000000   0.0000006   2.5800987  )
        26        Li     tau(  26) = (   0.7499998   0.1443435   2.1910453  )
        27        Li     tau(  27) = (   1.0000000   0.2886789   2.3752608  )
        28        Li     tau(  28) = (   0.5000000   0.0000048   2.2671990  )
        29        Li     tau(  29) = (   0.7499999   0.1443400   2.4856510  )
        30        Li     tau(  30) = (   1.0000000   0.2886796   2.0668101  )
        31        Li     tau(  31) = (   0.5000000  -0.0000076   3.2035215  )
        32        Li     tau(  32) = (   0.7499999   0.1443353   2.7846820  )
        33        Li     tau(  33) = (   1.0000000   0.2886695   3.0031326  )
        34        Li     tau(  34) = (   0.5000000  -0.0000042   2.8950709  )
        35        Li     tau(  35) = (   0.7499998   0.1443322   3.0792883  )
        36        Li     tau(  36) = (   1.0000000   0.2886740   2.6902329  )
        37        Li     tau(  37) = (   0.7500001   0.4330137   2.5800988  )
        38        Li     tau(  38) = (   1.0000000   0.5773558   2.1910427  )
        39        Li     tau(  39) = (   1.2500001   0.7216919   2.3752608  )
        40        Li     tau(  40) = (   0.7500002   0.4330182   2.2671991  )
        41        Li     tau(  41) = (   1.0000000   0.5773526   2.4856491  )
        42        Li     tau(  42) = (   1.2500008   0.7216951   2.0668102  )
        43        Li     tau(  43) = (   0.7500007   0.4330078   3.2035216  )
        44        Li     tau(  44) = (   1.0000000   0.5773479   2.7846801  )
        45        Li     tau(  45) = (   1.2500002   0.7216829   3.0031327  )
        46        Li     tau(  46) = (   0.7500001   0.4330089   2.8950709  )
        47        Li     tau(  47) = (   1.0000000   0.5773444   3.0792857  )
        48        Li     tau(  48) = (   1.2500001   0.7216871   2.6902330  )

   Crystallographic axes

     site n.     atom                  positions (cryst. coord.)
         1        Li     tau(   1) = (  0.0000005  0.0000009  0.4895515  )
         2        Li     tau(   2) = (  0.3333370  0.1666736  0.4157320  )
         3        Li     tau(   3) = (  0.6666689  0.3333378  0.4506853  )
         4        Li     tau(   4) = (  0.0000029  0.0000058  0.4301815  )
         5        Li     tau(   5) = (  0.3333348  0.1666695  0.4716309  )
         6        Li     tau(   6) = (  0.6666697  0.3333394  0.3921594  )
         7        Li     tau(   7) = ( -0.0000040 -0.0000079  0.6078406  )
         8        Li     tau(   8) = (  0.3333321  0.1666640  0.5283694  )
         9        Li     tau(   9) = (  0.6666635  0.3333271  0.5698185  )
        10        Li     tau(  10) = ( -0.0000024 -0.0000047  0.5493147  )
        11        Li     tau(  11) = (  0.3333304  0.1666605  0.5842684  )
        12        Li     tau(  12) = (  0.6666661  0.3333322  0.5104485  )
        13        Li     tau(  13) = (  0.5000005  0.5000012  0.4895515  )
        14        Li     tau(  14) = (  0.8333364  0.6666727  0.4157317  )
        15        Li     tau(  15) = (  1.1666689  0.8333381  0.4506853  )
        16        Li     tau(  16) = (  0.5000030  0.5000064  0.4301815  )
        17        Li     tau(  17) = (  0.8333346  0.6666693  0.4716307  )
        18        Li     tau(  18) = (  1.1666701  0.8333417  0.3921594  )
        19        Li     tau(  19) = (  0.4999965  0.4999944  0.6078406  )
        20        Li     tau(  20) = (  0.8333319  0.6666638  0.5283692  )
        21        Li     tau(  21) = (  1.1666636  0.8333276  0.5698186  )
        22        Li     tau(  22) = (  0.4999977  0.4999956  0.5493148  )
        23        Li     tau(  23) = (  0.8333298  0.6666596  0.5842682  )
        24        Li     tau(  24) = (  1.1666661  0.8333325  0.5104485  )
        25        Li     tau(  25) = (  0.5000004  0.0000007  0.4895515  )
        26        Li     tau(  26) = (  0.8333366  0.1666736  0.4157320  )
        27        Li     tau(  27) = (  1.1666688  0.3333376  0.4506853  )
        28        Li     tau(  28) = (  0.5000028  0.0000056  0.4301815  )
        29        Li     tau(  29) = (  0.8333347  0.1666695  0.4716309  )
        30        Li     tau(  30) = (  1.1666692  0.3333384  0.3921594  )
        31        Li     tau(  31) = (  0.4999956 -0.0000088  0.6078406  )
        32        Li     tau(  32) = (  0.8333320  0.1666640  0.5283694  )
        33        Li     tau(  33) = (  1.1666634  0.3333268  0.5698185  )
        34        Li     tau(  34) = (  0.4999976 -0.0000048  0.5493148  )
        35        Li     tau(  35) = (  0.8333300  0.1666605  0.5842684  )
        36        Li     tau(  36) = (  1.1666660  0.3333321  0.5104485  )
        37        Li     tau(  37) = (  1.0000007  0.5000012  0.4895515  )
        38        Li     tau(  38) = (  1.3333365  0.6666730  0.4157315  )
        39        Li     tau(  39) = (  1.6666691  0.8333381  0.4506853  )
        40        Li     tau(  40) = (  1.0000034  0.5000064  0.4301815  )
        41        Li     tau(  41) = (  1.3333347  0.6666693  0.4716305  )
        42        Li     tau(  42) = (  1.6666716  0.8333417  0.3921594  )
        43        Li     tau(  43) = (  0.9999979  0.4999944  0.6078406  )
        44        Li     tau(  44) = (  1.3333319  0.6666639  0.5283691  )
        45        Li     tau(  45) = (  1.6666640  0.8333276  0.5698186  )
        46        Li     tau(  46) = (  0.9999979  0.4999956  0.5493148  )
        47        Li     tau(  47) = (  1.3333299  0.6666599  0.5842679  )
        48        Li     tau(  48) = (  1.6666664  0.8333325  0.5104485  )

     number of k points=    16  Marzari-Vanderbilt smearing, width (Ry)=  0.0100
                       cart. coord. in units 2pi/alat
        k(    1) = (   0.0000000   0.0000000   0.0000000), wk =   0.0408163
        k(    2) = (   0.0000000   0.1649572   0.0000000), wk =   0.0816327
        k(    3) = (   0.0000000   0.3299144   0.0000000), wk =   0.0816327
        k(    4) = (   0.0000000   0.4948717   0.0000000), wk =   0.0816327
        k(    5) = (   0.1428571   0.2474358   0.0000000), wk =   0.1632653
        k(    6) = (   0.1428571   0.4123930   0.0000000), wk =   0.1632653
        k(    7) = (   0.1428571   0.5773503   0.0000000), wk =   0.0816327
        k(    8) = (   0.2857143   0.4948717   0.0000000), wk =   0.1632653
        k(    9) = (  -0.1428571   0.0824786   0.0000000), wk =   0.1632653
        k(   10) = (  -0.2857143   0.1649572   0.0000000), wk =   0.1632653
        k(   11) = (  -0.4285714   0.2474358   0.0000000), wk =   0.1632653
        k(   12) = (   0.2857143   0.0000000   0.0000000), wk =   0.0816327
        k(   13) = (  -0.2857143   0.3299144   0.0000000), wk =   0.1632653
        k(   14) = (   0.4285714   0.0824786   0.0000000), wk =   0.1632653
        k(   15) = (  -0.4285714   0.4123930   0.0000000), wk =   0.1632653
        k(   16) = (   0.5714286   0.0000000   0.0000000), wk =   0.0816327

                       cryst. coord.
        k(    1) = (   0.0000000   0.0000000   0.0000000), wk =   0.0408163
        k(    2) = (   0.0000000   0.1428571   0.0000000), wk =   0.0816327
        k(    3) = (   0.0000000   0.2857143   0.0000000), wk =   0.0816327
        k(    4) = (   0.0000000   0.4285714   0.0000000), wk =   0.0816327
        k(    5) = (   0.1428571   0.1428571   0.0000000), wk =   0.1632653
        k(    6) = (   0.1428571   0.2857143   0.0000000), wk =   0.1632653
        k(    7) = (   0.1428571   0.4285714   0.0000000), wk =   0.0816327
        k(    8) = (   0.2857143   0.2857143   0.0000000), wk =   0.1632653
        k(    9) = (  -0.1428571   0.1428571   0.0000000), wk =   0.1632653
        k(   10) = (  -0.2857143   0.2857143   0.0000000), wk =   0.1632653
        k(   11) = (  -0.4285714   0.4285714   0.0000000), wk =   0.1632653
        k(   12) = (   0.2857143  -0.1428571   0.0000000), wk =   0.0816327
        k(   13) = (  -0.2857143   0.4285714   0.0000000), wk =   0.1632653
        k(   14) = (   0.4285714  -0.1428571   0.0000000), wk =   0.1632653
        k(   15) = (  -0.4285714   0.5714286   0.0000000), wk =   0.1632653
        k(   16) = (   0.5714286  -0.2857143   0.0000000), wk =   0.0816327

     Dense  grid: 10795351 G-vectors     FFT dimensions: ( 180, 180, 900)

     Smooth grid:  2731157 G-vectors     FFT dimensions: ( 108, 108, 576)

     Dynamical RAM for                 wfc:       2.93 MB

     Dynamical RAM for     wfc (w. buffer):      49.78 MB

     Dynamical RAM for           str. fact:       0.86 MB

     Dynamical RAM for           local pot:       0.00 MB

     Dynamical RAM for          nlocal pot:      10.41 MB

     Dynamical RAM for                qrad:       0.65 MB

     Dynamical RAM for          rho,v,vnew:       6.28 MB

     Dynamical RAM for               rhoin:       2.09 MB

     Dynamical RAM for            rho*nmix:      13.73 MB

     Dynamical RAM for           G-vectors:       3.33 MB

     Dynamical RAM for          h,s,v(r/c):       2.14 MB

     Dynamical RAM for          <psi|beta>:       0.63 MB

     Dynamical RAM for                 psi:       5.86 MB

     Dynamical RAM for                hpsi:       5.86 MB

     Dynamical RAM for                spsi:       5.86 MB

     Dynamical RAM for      wfcinit/wfcrot:       6.12 MB

     Dynamical RAM for           addusdens:      78.08 MB

     Dynamical RAM for          addusforce:     159.21 MB

     Estimated static dynamical RAM per process >      81.30 MB

     Estimated max dynamical RAM per process >     254.24 MB

     Estimated total dynamical RAM >      47.67 GB

     Initial potential from superposition of free atoms

     starting charge     143.7788, renormalised to     144.0000

     negative rho (up, down):  4.885E-03 0.000E+00
     Starting wfcs are random
     Checking if some PAW data can be deallocated... 

     total cpu time spent up to now is       18.4 secs

     Self-consistent Calculation

     iteration #  1     ecut=    80.00 Ry     beta= 0.20
     Davidson diagonalization with overlap

---- Real-time Memory Report at c_bands before calling an iterative solver
          1208 MiB given to the printing process from OS
             0 MiB allocation reported by mallinfo(arena+hblkhd)
        617399 MiB available memory on the node where the printing process lives
------------------
     ethr =  1.00E-02,  avg # of iterations = 12.4

     negative rho (up, down):  1.361E-04 0.000E+00

     total cpu time spent up to now is       59.3 secs

     total energy              =    -719.04460412 Ry
     estimated scf accuracy    <       6.60591468 Ry
     electrostatic embedding   =       0.00000000 Ry
     cavitation energy         =       0.03769706 Ry
     electrolyte free energy   =       0.01215974 Ry
     correction to one-el term =       0.00000000 Ry

     iteration #  2     ecut=    80.00 Ry     beta= 0.20
     Davidson diagonalization with overlap

---- Real-time Memory Report at c_bands before calling an iterative solver
          1208 MiB given to the printing process from OS
             0 MiB allocation reported by mallinfo(arena+hblkhd)
        609484 MiB available memory on the node where the printing process lives
------------------
     ethr =  4.59E-03,  avg # of iterations =  4.9

     negative rho (up, down):  2.464E-07 0.000E+00

     total cpu time spent up to now is       75.5 secs

     total energy              =    -720.24181525 Ry
     estimated scf accuracy    <       3.08199273 Ry
     electrostatic embedding   =       0.00000000 Ry
     cavitation energy         =       0.03769706 Ry
     electrolyte free energy   =       0.01215974 Ry
     correction to one-el term =       0.00000000 Ry

     iteration #  3     ecut=    80.00 Ry     beta= 0.20
     Davidson diagonalization with overlap

---- Real-time Memory Report at c_bands before calling an iterative solver
          1208 MiB given to the printing process from OS
             0 MiB allocation reported by mallinfo(arena+hblkhd)
        607086 MiB available memory on the node where the printing process lives
------------------
     ethr =  2.14E-03,  avg # of iterations =  4.9

     negative rho (up, down):  4.440E-08 0.000E+00

     total cpu time spent up to now is       91.7 secs

     total energy              =    -721.22854637 Ry
     estimated scf accuracy    <       0.41996211 Ry
     electrostatic embedding   =       0.00000000 Ry
     cavitation energy         =       0.03769706 Ry
     electrolyte free energy   =       0.01215974 Ry
     correction to one-el term =       0.00000000 Ry

     iteration #  4     ecut=    80.00 Ry     beta= 0.20
     Davidson diagonalization with overlap

---- Real-time Memory Report at c_bands before calling an iterative solver
          1208 MiB given to the printing process from OS
             0 MiB allocation reported by mallinfo(arena+hblkhd)
        604962 MiB available memory on the node where the printing process lives
------------------
     ethr =  2.92E-04,  avg # of iterations = 13.5

     negative rho (up, down):  1.311E-08 0.000E+00

     total cpu time spent up to now is      123.5 secs

     total energy              =    -721.73383403 Ry
     estimated scf accuracy    <       0.35488638 Ry
     electrostatic embedding   =       0.00000000 Ry
     cavitation energy         =       0.03769706 Ry
     electrolyte free energy   =       0.01215974 Ry
     correction to one-el term =       0.00000000 Ry

     iteration #  5     ecut=    80.00 Ry     beta= 0.20
     Davidson diagonalization with overlap

---- Real-time Memory Report at c_bands before calling an iterative solver
          1208 MiB given to the printing process from OS
             0 MiB allocation reported by mallinfo(arena+hblkhd)
        604330 MiB available memory on the node where the printing process lives
------------------
     ethr =  2.46E-04,  avg # of iterations =  2.2

     total cpu time spent up to now is      134.6 secs

     total energy              =    -721.69345551 Ry
     estimated scf accuracy    <       0.61578380 Ry
     electrostatic embedding   =       0.00000000 Ry
     cavitation energy         =       0.03769706 Ry
     electrolyte free energy   =       0.01215974 Ry
     correction to one-el term =       0.00000000 Ry

     iteration #  6     ecut=    80.00 Ry     beta= 0.20
     Davidson diagonalization with overlap

---- Real-time Memory Report at c_bands before calling an iterative solver
          1208 MiB given to the printing process from OS
             0 MiB allocation reported by mallinfo(arena+hblkhd)
        604291 MiB available memory on the node where the printing process lives
------------------
     ethr =  2.46E-04,  avg # of iterations =  1.8

     total cpu time spent up to now is      145.8 secs

     total energy              =    -721.69967989 Ry
     estimated scf accuracy    <       0.19881076 Ry
     electrostatic embedding   =       0.00000000 Ry
     cavitation energy         =       0.03769706 Ry
     electrolyte free energy   =       0.01215974 Ry
     correction to one-el term =       0.00000000 Ry

     iteration #  7     ecut=    80.00 Ry     beta= 0.20
     Davidson diagonalization with overlap

---- Real-time Memory Report at c_bands before calling an iterative solver
          1208 MiB given to the printing process from OS
             0 MiB allocation reported by mallinfo(arena+hblkhd)
        604241 MiB available memory on the node where the printing process lives
------------------
     ethr =  1.38E-04,  avg # of iterations =  3.2

     total cpu time spent up to now is      157.7 secs

     total energy              =    -721.68391534 Ry
     estimated scf accuracy    <       0.13471224 Ry
     electrostatic embedding   =       0.00000000 Ry
     cavitation energy         =       0.03769706 Ry
     electrolyte free energy   =       0.01215974 Ry
     correction to one-el term =       0.00000000 Ry

     iteration #  8     ecut=    80.00 Ry     beta= 0.20
     Davidson diagonalization with overlap

---- Real-time Memory Report at c_bands before calling an iterative solver
          1208 MiB given to the printing process from OS
             0 MiB allocation reported by mallinfo(arena+hblkhd)
        604222 MiB available memory on the node where the printing process lives
------------------
     ethr =  9.36E-05,  avg # of iterations =  2.9

     negative rho (up, down):  1.945E-08 0.000E+00

     total cpu time spent up to now is      169.7 secs

     total energy              =    -721.69983298 Ry
     estimated scf accuracy    <       0.20490438 Ry
     electrostatic embedding   =       0.00000000 Ry
     cavitation energy         =       0.03769706 Ry
     electrolyte free energy   =       0.01215974 Ry
     correction to one-el term =       0.00000000 Ry

     iteration #  9     ecut=    80.00 Ry     beta= 0.20
     Davidson diagonalization with overlap

---- Real-time Memory Report at c_bands before calling an iterative solver
          1208 MiB given to the printing process from OS
             0 MiB allocation reported by mallinfo(arena+hblkhd)
        604198 MiB available memory on the node where the printing process lives
------------------
     ethr =  9.36E-05,  avg # of iterations =  1.0

     negative rho (up, down):  1.616E-03 0.000E+00

     total cpu time spent up to now is      180.2 secs

     total energy              =    -721.68097138 Ry
     estimated scf accuracy    <       0.28757651 Ry
     electrostatic embedding   =       0.00000000 Ry
     cavitation energy         =       0.03769706 Ry
     electrolyte free energy   =       0.01215974 Ry
     correction to one-el term =       0.00000000 Ry

     iteration # 10     ecut=    80.00 Ry     beta= 0.20
     Davidson diagonalization with overlap

---- Real-time Memory Report at c_bands before calling an iterative solver
          1208 MiB given to the printing process from OS
             0 MiB allocation reported by mallinfo(arena+hblkhd)
        604171 MiB available memory on the node where the printing process lives
------------------
     ethr =  9.36E-05,  avg # of iterations =  1.2

     negative rho (up, down):  1.473E-02 0.000E+00

     total cpu time spent up to now is      190.7 secs

     total energy              =    -721.68678611 Ry
     estimated scf accuracy    <       0.15825639 Ry
     electrostatic embedding   =       0.00000000 Ry
     cavitation energy         =       0.03769706 Ry
     electrolyte free energy   =       0.01215974 Ry
     correction to one-el term =       0.00000000 Ry

     iteration # 11     ecut=    80.00 Ry     beta= 0.20
     Davidson diagonalization with overlap

---- Real-time Memory Report at c_bands before calling an iterative solver
          1230 MiB given to the printing process from OS
             0 MiB allocation reported by mallinfo(arena+hblkhd)
        604160 MiB available memory on the node where the printing process lives
------------------
     ethr =  9.36E-05,  avg # of iterations =  1.0

     negative rho (up, down):  1.113E-01 0.000E+00

     total cpu time spent up to now is      201.1 secs

     total energy              =    -721.66964716 Ry
     estimated scf accuracy    <       0.16013560 Ry
     electrostatic embedding   =       0.00000000 Ry
     cavitation energy         =       0.03769706 Ry
     electrolyte free energy   =       0.01215974 Ry
     correction to one-el term =       0.00000000 Ry

     iteration # 12     ecut=    80.00 Ry     beta= 0.20
     Davidson diagonalization with overlap

---- Real-time Memory Report at c_bands before calling an iterative solver
          1263 MiB given to the printing process from OS
             0 MiB allocation reported by mallinfo(arena+hblkhd)
        604148 MiB available memory on the node where the printing process lives
------------------
     ethr =  9.36E-05,  avg # of iterations =  8.8

     negative rho (up, down):  1.152E-01 0.000E+00

     add environment contribution to local potential

     total cpu time spent up to now is      223.1 secs

     total energy              =    -721.67085459 Ry
     estimated scf accuracy    <       0.04670405 Ry
     electrostatic embedding   =       0.00000000 Ry
     cavitation energy         =       0.03769706 Ry
     electrolyte free energy   =       0.01215974 Ry
     correction to one-el term =       0.00000000 Ry

     iteration # 13     ecut=    80.00 Ry     beta= 0.20
     Davidson diagonalization with overlap

---- Real-time Memory Report at c_bands before calling an iterative solver
          1297 MiB given to the printing process from OS
             0 MiB allocation reported by mallinfo(arena+hblkhd)
        606291 MiB available memory on the node where the printing process lives
------------------
     c_bands:  1 eigenvalues not converged
     c_bands:  4 eigenvalues not converged
     c_bands:  1 eigenvalues not converged
     c_bands:  5 eigenvalues not converged
     c_bands:  3 eigenvalues not converged
     c_bands:  4 eigenvalues not converged
     c_bands:  1 eigenvalues not converged
     c_bands:  4 eigenvalues not converged
     c_bands:  1 eigenvalues not converged
     c_bands:  5 eigenvalues not converged
     c_bands:  3 eigenvalues not converged
     c_bands:  3 eigenvalues not converged
     ethr =  3.24E-05,  avg # of iterations = 20.6

     negative rho (up, down):  7.153E-02 0.000E+00

     add environment contribution to local potential

     total cpu time spent up to now is      260.6 secs

     total energy              =    -721.70916922 Ry
     estimated scf accuracy    <       0.03190735 Ry
     electrostatic embedding   =      -0.04647632 Ry
     cavitation energy         =       0.03769706 Ry
     electrolyte free energy   =      -0.00137790 Ry
     correction to one-el term =      -1.98726100 Ry

     iteration # 14     ecut=    80.00 Ry     beta= 0.20
     Davidson diagonalization with overlap

---- Real-time Memory Report at c_bands before calling an iterative solver
          1351 MiB given to the printing process from OS
             0 MiB allocation reported by mallinfo(arena+hblkhd)
        602646 MiB available memory on the node where the printing process lives
------------------
     ethr =  2.22E-05,  avg # of iterations =  7.2

     negative rho (up, down):  1.023E-01 0.000E+00

     add environment contribution to local potential

     total cpu time spent up to now is      281.9 secs

     total energy              =    -721.71978942 Ry
     estimated scf accuracy    <       0.05498581 Ry
     electrostatic embedding   =      -0.04565056 Ry
     cavitation energy         =       0.03769706 Ry
     electrolyte free energy   =      -0.00224449 Ry
     correction to one-el term =      -1.25646415 Ry

     iteration # 15     ecut=    80.00 Ry     beta= 0.20
     Davidson diagonalization with overlap

---- Real-time Memory Report at c_bands before calling an iterative solver
          1384 MiB given to the printing process from OS
             0 MiB allocation reported by mallinfo(arena+hblkhd)
        602559 MiB available memory on the node where the printing process lives
------------------
     ethr =  2.22E-05,  avg # of iterations =  7.4

     negative rho (up, down):  1.228E-01 0.000E+00

     total cpu time spent up to now is      296.9 secs

     total energy              =    -721.70912517 Ry
     estimated scf accuracy    <       0.18639584 Ry
     electrostatic embedding   =      -0.04613429 Ry
     cavitation energy         =       0.03769706 Ry
     electrolyte free energy   =      -0.00303450 Ry
     correction to one-el term =       2.19542308 Ry

     iteration # 16     ecut=    80.00 Ry     beta= 0.20
     Davidson diagonalization with overlap

---- Real-time Memory Report at c_bands before calling an iterative solver
          1417 MiB given to the printing process from OS
             0 MiB allocation reported by mallinfo(arena+hblkhd)
        602535 MiB available memory on the node where the printing process lives
------------------
     ethr =  2.22E-05,  avg # of iterations =  6.4

     negative rho (up, down):  1.204E-01 0.000E+00

     add environment contribution to local potential

     total cpu time spent up to now is      317.5 secs

     total energy              =    -721.71407820 Ry
     estimated scf accuracy    <       0.01611718 Ry
     electrostatic embedding   =      -0.04774513 Ry
     cavitation energy         =       0.03769706 Ry
     electrolyte free energy   =      -0.00303450 Ry
     correction to one-el term =       2.19864475 Ry

     iteration # 17     ecut=    80.00 Ry     beta= 0.20
     Davidson diagonalization with overlap

---- Real-time Memory Report at c_bands before calling an iterative solver
          1445 MiB given to the printing process from OS
             0 MiB allocation reported by mallinfo(arena+hblkhd)
        602521 MiB available memory on the node where the printing process lives
------------------
     ethr =  1.12E-05,  avg # of iterations =  2.7

     negative rho (up, down):  9.407E-02 0.000E+00

     add environment contribution to local potential

     total cpu time spent up to now is      336.9 secs

     total energy              =    -721.71413083 Ry
     estimated scf accuracy    <       0.01623772 Ry
     electrostatic embedding   =      -0.05002683 Ry
     cavitation energy         =       0.03769706 Ry
     electrolyte free energy   =      -0.00223236 Ry
     correction to one-el term =       2.13911541 Ry

     iteration # 18     ecut=    80.00 Ry     beta= 0.20
     Davidson diagonalization with overlap

---- Real-time Memory Report at c_bands before calling an iterative solver
          1470 MiB given to the printing process from OS
             0 MiB allocation reported by mallinfo(arena+hblkhd)
        602504 MiB available memory on the node where the printing process lives
------------------
     c_bands:  2 eigenvalues not converged
     ethr =  1.12E-05,  avg # of iterations =  8.8

     negative rho (up, down):  1.005E-01 0.000E+00

     add environment contribution to local potential

     total cpu time spent up to now is      360.9 secs

     total energy              =    -721.71832312 Ry
     estimated scf accuracy    <       0.03479672 Ry
     electrostatic embedding   =      -0.05196364 Ry
     cavitation energy         =       0.03769706 Ry
     electrolyte free energy   =      -0.00239870 Ry
     correction to one-el term =       4.93983779 Ry

     iteration # 19     ecut=    80.00 Ry     beta= 0.20
     Davidson diagonalization with overlap

---- Real-time Memory Report at c_bands before calling an iterative solver
          1494 MiB given to the printing process from OS
             0 MiB allocation reported by mallinfo(arena+hblkhd)
        602490 MiB available memory on the node where the printing process lives
------------------
     ethr =  1.12E-05,  avg # of iterations =  3.1

     negative rho (up, down):  7.699E-02 0.000E+00

     add environment contribution to local potential

     total cpu time spent up to now is      380.1 secs

     total energy              =    -721.71684478 Ry
     estimated scf accuracy    <       0.05540267 Ry
     electrostatic embedding   =      -0.05360404 Ry
     cavitation energy         =       0.03769706 Ry
     electrolyte free energy   =      -0.00247301 Ry
     correction to one-el term =       5.74483220 Ry

     iteration # 20     ecut=    80.00 Ry     beta= 0.20
     Davidson diagonalization with overlap

---- Real-time Memory Report at c_bands before calling an iterative solver
          1518 MiB given to the printing process from OS
             0 MiB allocation reported by mallinfo(arena+hblkhd)
        602478 MiB available memory on the node where the printing process lives
------------------
     ethr =  1.12E-05,  avg # of iterations =  6.5

     negative rho (up, down):  6.311E-02 0.000E+00

     add environment contribution to local potential

     total cpu time spent up to now is      401.4 secs

     total energy              =    -721.71817173 Ry
     estimated scf accuracy    <       0.03385619 Ry
     electrostatic embedding   =      -0.05422129 Ry
     cavitation energy         =       0.03769706 Ry
     electrolyte free energy   =      -0.00221853 Ry
     correction to one-el term =       6.43098608 Ry

     iteration # 21     ecut=    80.00 Ry     beta= 0.20
     Davidson diagonalization with overlap

---- Real-time Memory Report at c_bands before calling an iterative solver
          1541 MiB given to the printing process from OS
             0 MiB allocation reported by mallinfo(arena+hblkhd)
        602389 MiB available memory on the node where the printing process lives
------------------
     ethr =  1.12E-05,  avg # of iterations =  8.2

     negative rho (up, down):  6.807E-02 0.000E+00

     add environment contribution to local potential

     total cpu time spent up to now is      424.1 secs

     total energy              =    -721.71410583 Ry
     estimated scf accuracy    <       0.03454645 Ry
     electrostatic embedding   =      -0.05212161 Ry
     cavitation energy         =       0.03769706 Ry
     electrolyte free energy   =      -0.00225917 Ry
     correction to one-el term =       7.15158891 Ry

     iteration # 22     ecut=    80.00 Ry     beta= 0.20
     Davidson diagonalization with overlap

---- Real-time Memory Report at c_bands before calling an iterative solver
          1561 MiB given to the printing process from OS
             0 MiB allocation reported by mallinfo(arena+hblkhd)
        602380 MiB available memory on the node where the printing process lives
------------------
     ethr =  1.12E-05,  avg # of iterations =  9.6

     negative rho (up, down):  4.680E-02 0.000E+00

     add environment contribution to local potential

     total cpu time spent up to now is      448.2 secs

     total energy              =    -721.71725192 Ry
     estimated scf accuracy    <       0.00315481 Ry
     electrostatic embedding   =      -0.04836338 Ry
     cavitation energy         =       0.03769706 Ry
     electrolyte free energy   =      -0.00164576 Ry
     correction to one-el term =       7.66825209 Ry

     iteration # 23     ecut=    80.00 Ry     beta= 0.20
     Davidson diagonalization with overlap

---- Real-time Memory Report at c_bands before calling an iterative solver
          1582 MiB given to the printing process from OS
             0 MiB allocation reported by mallinfo(arena+hblkhd)
        602370 MiB available memory on the node where the printing process lives
------------------
     ethr =  2.19E-06,  avg # of iterations =  8.7

     negative rho (up, down):  3.508E-02 0.000E+00

     add environment contribution to local potential

     total cpu time spent up to now is      472.6 secs

     total energy              =    -721.71739047 Ry
     estimated scf accuracy    <       0.00045301 Ry
     electrostatic embedding   =      -0.04794583 Ry
     cavitation energy         =       0.03769706 Ry
     electrolyte free energy   =      -0.00171901 Ry
     correction to one-el term =       8.16995026 Ry

     iteration # 24     ecut=    80.00 Ry     beta= 0.20
     Davidson diagonalization with overlap

---- Real-time Memory Report at c_bands before calling an iterative solver
          1601 MiB given to the printing process from OS
             0 MiB allocation reported by mallinfo(arena+hblkhd)
        602363 MiB available memory on the node where the printing process lives
------------------
     ethr =  3.15E-07,  avg # of iterations =  7.0

     negative rho (up, down):  9.152E-03 0.000E+00

     add environment contribution to local potential

     total cpu time spent up to now is      494.0 secs

     total energy              =    -721.71747308 Ry
     estimated scf accuracy    <       0.00013219 Ry
     electrostatic embedding   =      -0.04757916 Ry
     cavitation energy         =       0.03769706 Ry
     electrolyte free energy   =      -0.00176303 Ry
     correction to one-el term =       8.16596651 Ry

     iteration # 25     ecut=    80.00 Ry     beta= 0.20
     Davidson diagonalization with overlap

---- Real-time Memory Report at c_bands before calling an iterative solver
          1622 MiB given to the printing process from OS
             0 MiB allocation reported by mallinfo(arena+hblkhd)
        602350 MiB available memory on the node where the printing process lives
------------------
     c_bands:  1 eigenvalues not converged
     c_bands:  1 eigenvalues not converged
     c_bands:  1 eigenvalues not converged
     c_bands:  1 eigenvalues not converged
     ethr =  9.18E-08,  avg # of iterations = 13.0

     negative rho (up, down):  7.622E-03 0.000E+00

     add environment contribution to local potential

     total cpu time spent up to now is      521.3 secs

     total energy              =    -721.71754599 Ry
     estimated scf accuracy    <       0.00002168 Ry
     electrostatic embedding   =      -0.04732878 Ry
     cavitation energy         =       0.03769706 Ry
     electrolyte free energy   =      -0.00173392 Ry
     correction to one-el term =       8.32156594 Ry

     iteration # 26     ecut=    80.00 Ry     beta= 0.20
     Davidson diagonalization with overlap

---- Real-time Memory Report at c_bands before calling an iterative solver
          1640 MiB given to the printing process from OS
             0 MiB allocation reported by mallinfo(arena+hblkhd)
        602337 MiB available memory on the node where the printing process lives
------------------
     c_bands:  1 eigenvalues not converged
     c_bands:  1 eigenvalues not converged
     c_bands:  1 eigenvalues not converged
     c_bands:  1 eigenvalues not converged
     ethr =  1.51E-08,  avg # of iterations =  9.1

     negative rho (up, down):  3.736E-03 0.000E+00

     add environment contribution to local potential

     total cpu time spent up to now is      546.3 secs

     total energy              =    -721.71755713 Ry
     estimated scf accuracy    <       0.00000884 Ry
     electrostatic embedding   =      -0.04736579 Ry
     cavitation energy         =       0.03769706 Ry
     electrolyte free energy   =      -0.00173461 Ry
     correction to one-el term =       8.36714207 Ry

     iteration # 27     ecut=    80.00 Ry     beta= 0.20
     Davidson diagonalization with overlap

---- Real-time Memory Report at c_bands before calling an iterative solver
          1661 MiB given to the printing process from OS
             0 MiB allocation reported by mallinfo(arena+hblkhd)
        602315 MiB available memory on the node where the printing process lives
------------------
     c_bands:  1 eigenvalues not converged
     c_bands:  1 eigenvalues not converged
     ethr =  6.14E-09,  avg # of iterations =  8.6

     negative rho (up, down):  2.156E-03 0.000E+00

     add environment contribution to local potential

     total cpu time spent up to now is      569.2 secs

     total energy              =    -721.71755845 Ry
     estimated scf accuracy    <       0.00000321 Ry
     electrostatic embedding   =      -0.04739774 Ry
     cavitation energy         =       0.03769706 Ry
     electrolyte free energy   =      -0.00173592 Ry
     correction to one-el term =       8.39229903 Ry

     iteration # 28     ecut=    80.00 Ry     beta= 0.20
     Davidson diagonalization with overlap

---- Real-time Memory Report at c_bands before calling an iterative solver
          1674 MiB given to the printing process from OS
             0 MiB allocation reported by mallinfo(arena+hblkhd)
        602310 MiB available memory on the node where the printing process lives
------------------
     c_bands:  2 eigenvalues not converged
     c_bands:  1 eigenvalues not converged
     c_bands:  2 eigenvalues not converged
     c_bands:  1 eigenvalues not converged
     ethr =  2.23E-09,  avg # of iterations = 12.0

     negative rho (up, down):  1.655E-03 0.000E+00

     add environment contribution to local potential

     total cpu time spent up to now is      595.0 secs

     total energy              =    -721.71756146 Ry
     estimated scf accuracy    <       0.00000143 Ry
     electrostatic embedding   =      -0.04743216 Ry
     cavitation energy         =       0.03769706 Ry
     electrolyte free energy   =      -0.00173645 Ry
     correction to one-el term =       8.40156132 Ry

     iteration # 29     ecut=    80.00 Ry     beta= 0.20
     Davidson diagonalization with overlap

---- Real-time Memory Report at c_bands before calling an iterative solver
          1691 MiB given to the printing process from OS
             0 MiB allocation reported by mallinfo(arena+hblkhd)
        602307 MiB available memory on the node where the printing process lives
------------------
     ethr =  9.94E-10,  avg # of iterations =  6.1

     negative rho (up, down):  1.190E-03 0.000E+00

     add environment contribution to local potential

     total cpu time spent up to now is      618.3 secs

     total energy              =    -721.71755901 Ry
     estimated scf accuracy    <       0.00000049 Ry
     electrostatic embedding   =      -0.04739543 Ry
     cavitation energy         =       0.03769706 Ry
     electrolyte free energy   =      -0.00173916 Ry
     correction to one-el term =       8.36731829 Ry

     iteration # 30     ecut=    80.00 Ry     beta= 0.20
     Davidson diagonalization with overlap

---- Real-time Memory Report at c_bands before calling an iterative solver
          1713 MiB given to the printing process from OS
             0 MiB allocation reported by mallinfo(arena+hblkhd)
        602273 MiB available memory on the node where the printing process lives
------------------
     ethr =  3.40E-10,  avg # of iterations =  4.3

     negative rho (up, down):  6.439E-04 0.000E+00

     add environment contribution to local potential

     total cpu time spent up to now is      640.9 secs

     total energy              =    -721.71755810 Ry
     estimated scf accuracy    <       0.00000024 Ry
     electrostatic embedding   =      -0.04738646 Ry
     cavitation energy         =       0.03769706 Ry
     electrolyte free energy   =      -0.00173732 Ry
     correction to one-el term =       8.36108798 Ry

     iteration # 31     ecut=    80.00 Ry     beta= 0.20
     Davidson diagonalization with overlap

---- Real-time Memory Report at c_bands before calling an iterative solver
          1729 MiB given to the printing process from OS
             0 MiB allocation reported by mallinfo(arena+hblkhd)
        602267 MiB available memory on the node where the printing process lives
------------------
     c_bands:  1 eigenvalues not converged
     c_bands:  1 eigenvalues not converged
     ethr =  1.68E-10,  avg # of iterations =  9.3

     negative rho (up, down):  6.223E-04 0.000E+00

     add environment contribution to local potential

     total cpu time spent up to now is      664.6 secs

     total energy              =    -721.71755816 Ry
     estimated scf accuracy    <       0.00000012 Ry
     electrostatic embedding   =      -0.04736388 Ry
     cavitation energy         =       0.03769706 Ry
     electrolyte free energy   =      -0.00173517 Ry
     correction to one-el term =       8.35794318 Ry

     iteration # 32     ecut=    80.00 Ry     beta= 0.20
     Davidson diagonalization with overlap

---- Real-time Memory Report at c_bands before calling an iterative solver
          1746 MiB given to the printing process from OS
             0 MiB allocation reported by mallinfo(arena+hblkhd)
        602257 MiB available memory on the node where the printing process lives
------------------
     ethr =  8.26E-11,  avg # of iterations =  4.2

     negative rho (up, down):  6.079E-04 0.000E+00

     add environment contribution to local potential

     total cpu time spent up to now is      684.3 secs

     total energy              =    -721.71755811 Ry
     estimated scf accuracy    <       0.00000011 Ry
     electrostatic embedding   =      -0.04736014 Ry
     cavitation energy         =       0.03769706 Ry
     electrolyte free energy   =      -0.00173544 Ry
     correction to one-el term =       8.35361005 Ry

     iteration # 33     ecut=    80.00 Ry     beta= 0.20
     Davidson diagonalization with overlap

---- Real-time Memory Report at c_bands before calling an iterative solver
          1762 MiB given to the printing process from OS
             0 MiB allocation reported by mallinfo(arena+hblkhd)
        602257 MiB available memory on the node where the printing process lives
------------------
     ethr =  7.32E-11,  avg # of iterations =  2.0

     negative rho (up, down):  5.755E-04 0.000E+00

     add environment contribution to local potential

     total cpu time spent up to now is      702.9 secs

     total energy              =    -721.71755782 Ry
     estimated scf accuracy    <       0.00000009 Ry
     electrostatic embedding   =      -0.04735929 Ry
     cavitation energy         =       0.03769706 Ry
     electrolyte free energy   =      -0.00173573 Ry
     correction to one-el term =       8.35079206 Ry

     iteration # 34     ecut=    80.00 Ry     beta= 0.20
     Davidson diagonalization with overlap

---- Real-time Memory Report at c_bands before calling an iterative solver
          1770 MiB given to the printing process from OS
             0 MiB allocation reported by mallinfo(arena+hblkhd)
        602251 MiB available memory on the node where the printing process lives
------------------
     ethr =  6.21E-11,  avg # of iterations =  5.0

     negative rho (up, down):  5.919E-04 0.000E+00

     add environment contribution to local potential

     total cpu time spent up to now is      723.7 secs

     total energy              =    -721.71755770 Ry
     estimated scf accuracy    <       0.00000003 Ry
     electrostatic embedding   =      -0.04735834 Ry
     cavitation energy         =       0.03769706 Ry
     electrolyte free energy   =      -0.00173571 Ry
     correction to one-el term =       8.34021117 Ry

     iteration # 35     ecut=    80.00 Ry     beta= 0.20
     Davidson diagonalization with overlap

---- Real-time Memory Report at c_bands before calling an iterative solver
          1783 MiB given to the printing process from OS
             0 MiB allocation reported by mallinfo(arena+hblkhd)
        602244 MiB available memory on the node where the printing process lives
------------------
     ethr =  2.04E-11,  avg # of iterations =  4.4

     negative rho (up, down):  5.851E-04 0.000E+00

     add environment contribution to local potential

     total cpu time spent up to now is      745.9 secs

     total energy              =    -721.71755802 Ry
     estimated scf accuracy    <       0.00000002 Ry
     electrostatic embedding   =      -0.04736170 Ry
     cavitation energy         =       0.03769706 Ry
     electrolyte free energy   =      -0.00173539 Ry
     correction to one-el term =       8.34021853 Ry

     iteration # 36     ecut=    80.00 Ry     beta= 0.20
     Davidson diagonalization with overlap

---- Real-time Memory Report at c_bands before calling an iterative solver
          1790 MiB given to the printing process from OS
             0 MiB allocation reported by mallinfo(arena+hblkhd)
        602237 MiB available memory on the node where the printing process lives
------------------
     ethr =  1.34E-11,  avg # of iterations =  3.0

     negative rho (up, down):  5.691E-04 0.000E+00

     add environment contribution to local potential

     total cpu time spent up to now is      764.9 secs

     total energy              =    -721.71755808 Ry
     estimated scf accuracy    <       0.00000001 Ry
     electrostatic embedding   =      -0.04736570 Ry
     cavitation energy         =       0.03769706 Ry
     electrolyte free energy   =      -0.00173558 Ry
     correction to one-el term =       8.34022743 Ry

     iteration # 37     ecut=    80.00 Ry     beta= 0.20
     Davidson diagonalization with overlap

---- Real-time Memory Report at c_bands before calling an iterative solver
          1800 MiB given to the printing process from OS
             0 MiB allocation reported by mallinfo(arena+hblkhd)
        602232 MiB available memory on the node where the printing process lives
------------------
     ethr =  9.60E-12,  avg # of iterations =  3.3

     negative rho (up, down):  5.570E-04 0.000E+00

     add environment contribution to local potential

     total cpu time spent up to now is      784.1 secs

     total energy              =    -721.71755808 Ry
     estimated scf accuracy    <          8.9E-09 Ry
     electrostatic embedding   =      -0.04736671 Ry
     cavitation energy         =       0.03769706 Ry
     electrolyte free energy   =      -0.00173572 Ry
     correction to one-el term =       8.33963192 Ry

     iteration # 38     ecut=    80.00 Ry     beta= 0.20
     Davidson diagonalization with overlap

---- Real-time Memory Report at c_bands before calling an iterative solver
          1809 MiB given to the printing process from OS
             0 MiB allocation reported by mallinfo(arena+hblkhd)
        602224 MiB available memory on the node where the printing process lives
------------------
     ethr =  6.21E-12,  avg # of iterations =  2.0

     negative rho (up, down):  5.501E-04 0.000E+00

     add environment contribution to local potential

     total cpu time spent up to now is      802.8 secs

     total energy              =    -721.71755809 Ry
     estimated scf accuracy    <          6.4E-09 Ry
     electrostatic embedding   =      -0.04736777 Ry
     cavitation energy         =       0.03769706 Ry
     electrolyte free energy   =      -0.00173580 Ry
     correction to one-el term =       8.33933362 Ry

     iteration # 39     ecut=    80.00 Ry     beta= 0.20
     Davidson diagonalization with overlap

---- Real-time Memory Report at c_bands before calling an iterative solver
          1819 MiB given to the printing process from OS
             0 MiB allocation reported by mallinfo(arena+hblkhd)
        602223 MiB available memory on the node where the printing process lives
------------------
     ethr =  4.48E-12,  avg # of iterations =  3.9

     negative rho (up, down):  5.624E-04 0.000E+00

     add environment contribution to local potential

     total cpu time spent up to now is      822.5 secs

     total energy              =    -721.71755809 Ry
     estimated scf accuracy    <          3.2E-09 Ry
     electrostatic embedding   =      -0.04736725 Ry
     cavitation energy         =       0.03769706 Ry
     electrolyte free energy   =      -0.00173598 Ry
     correction to one-el term =       8.34015717 Ry

     iteration # 40     ecut=    80.00 Ry     beta= 0.20
     Davidson diagonalization with overlap

---- Real-time Memory Report at c_bands before calling an iterative solver
          1832 MiB given to the printing process from OS
             0 MiB allocation reported by mallinfo(arena+hblkhd)
        602217 MiB available memory on the node where the printing process lives
------------------
     ethr =  2.22E-12,  avg # of iterations =  2.0

     negative rho (up, down):  5.673E-04 0.000E+00

     add environment contribution to local potential

     total cpu time spent up to now is      841.2 secs

     total energy              =    -721.71755807 Ry
     estimated scf accuracy    <          2.1E-09 Ry
     electrostatic embedding   =      -0.04736675 Ry
     cavitation energy         =       0.03769706 Ry
     electrolyte free energy   =      -0.00173601 Ry
     correction to one-el term =       8.34181895 Ry

     iteration # 41     ecut=    80.00 Ry     beta= 0.20
     Davidson diagonalization with overlap

---- Real-time Memory Report at c_bands before calling an iterative solver
          1842 MiB given to the printing process from OS
             0 MiB allocation reported by mallinfo(arena+hblkhd)
        602204 MiB available memory on the node where the printing process lives
------------------
     ethr =  1.44E-12,  avg # of iterations =  2.0

     negative rho (up, down):  5.660E-04 0.000E+00

     add environment contribution to local potential

     total cpu time spent up to now is      859.6 secs

     total energy              =    -721.71755807 Ry
     estimated scf accuracy    <          1.6E-09 Ry
     electrostatic embedding   =      -0.04736704 Ry
     cavitation energy         =       0.03769706 Ry
     electrolyte free energy   =      -0.00173603 Ry
     correction to one-el term =       8.34231563 Ry

     iteration # 42     ecut=    80.00 Ry     beta= 0.20
     Davidson diagonalization with overlap

---- Real-time Memory Report at c_bands before calling an iterative solver
          1852 MiB given to the printing process from OS
             0 MiB allocation reported by mallinfo(arena+hblkhd)
        602204 MiB available memory on the node where the printing process lives
------------------
     ethr =  1.13E-12,  avg # of iterations =  3.0

     negative rho (up, down):  5.655E-04 0.000E+00

     add environment contribution to local potential

     total cpu time spent up to now is      879.1 secs

     total energy              =    -721.71755808 Ry
     estimated scf accuracy    <          1.0E-09 Ry
     electrostatic embedding   =      -0.04736704 Ry
     cavitation energy         =       0.03769706 Ry
     electrolyte free energy   =      -0.00173609 Ry
     correction to one-el term =       8.34249429 Ry

     iteration # 43     ecut=    80.00 Ry     beta= 0.20
     Davidson diagonalization with overlap

---- Real-time Memory Report at c_bands before calling an iterative solver
          1860 MiB given to the printing process from OS
             0 MiB allocation reported by mallinfo(arena+hblkhd)
        602196 MiB available memory on the node where the printing process lives
------------------
     ethr =  7.02E-13,  avg # of iterations =  3.3

     negative rho (up, down):  5.635E-04 0.000E+00

     add environment contribution to local potential

     total cpu time spent up to now is      898.3 secs

     total energy              =    -721.71755812 Ry
     estimated scf accuracy    <          7.8E-10 Ry
     electrostatic embedding   =      -0.04736668 Ry
     cavitation energy         =       0.03769706 Ry
     electrolyte free energy   =      -0.00173608 Ry
     correction to one-el term =       8.34263986 Ry

     iteration # 44     ecut=    80.00 Ry     beta= 0.20
     Davidson diagonalization with overlap

---- Real-time Memory Report at c_bands before calling an iterative solver
          1866 MiB given to the printing process from OS
             0 MiB allocation reported by mallinfo(arena+hblkhd)
        602187 MiB available memory on the node where the printing process lives
------------------
     ethr =  5.41E-13,  avg # of iterations =  3.0

     negative rho (up, down):  5.620E-04 0.000E+00

     add environment contribution to local potential

     total cpu time spent up to now is      917.9 secs

     total energy              =    -721.71755813 Ry
     estimated scf accuracy    <          2.4E-10 Ry
     electrostatic embedding   =      -0.04736593 Ry
     cavitation energy         =       0.03769706 Ry
     electrolyte free energy   =      -0.00173599 Ry
     correction to one-el term =       8.34242301 Ry

     iteration # 45     ecut=    80.00 Ry     beta= 0.20
     Davidson diagonalization with overlap

---- Real-time Memory Report at c_bands before calling an iterative solver
          1874 MiB given to the printing process from OS
             0 MiB allocation reported by mallinfo(arena+hblkhd)
        602183 MiB available memory on the node where the printing process lives
------------------
     ethr =  1.69E-13,  avg # of iterations =  4.6

     negative rho (up, down):  5.615E-04 0.000E+00

     add environment contribution to local potential

     total cpu time spent up to now is      941.4 secs

     total energy              =    -721.71755813 Ry
     estimated scf accuracy    <          1.9E-10 Ry
     electrostatic embedding   =      -0.04736580 Ry
     cavitation energy         =       0.03769706 Ry
     electrolyte free energy   =      -0.00173599 Ry
     correction to one-el term =       8.34220427 Ry

     iteration # 46     ecut=    80.00 Ry     beta= 0.20
     Davidson diagonalization with overlap

---- Real-time Memory Report at c_bands before calling an iterative solver
          1886 MiB given to the printing process from OS
             0 MiB allocation reported by mallinfo(arena+hblkhd)
        602126 MiB available memory on the node where the printing process lives
------------------
     ethr =  1.35E-13,  avg # of iterations =  2.0

     negative rho (up, down):  5.615E-04 0.000E+00

     add environment contribution to local potential

     total cpu time spent up to now is      960.0 secs

     total energy              =    -721.71755811 Ry
     estimated scf accuracy    <          1.5E-10 Ry
     electrostatic embedding   =      -0.04736571 Ry
     cavitation energy         =       0.03769706 Ry
     electrolyte free energy   =      -0.00173598 Ry
     correction to one-el term =       8.34209863 Ry

     iteration # 47     ecut=    80.00 Ry     beta= 0.20
     Davidson diagonalization with overlap

---- Real-time Memory Report at c_bands before calling an iterative solver
          1892 MiB given to the printing process from OS
             0 MiB allocation reported by mallinfo(arena+hblkhd)
        602156 MiB available memory on the node where the printing process lives
------------------
     ethr =  1.07E-13,  avg # of iterations =  3.1

     negative rho (up, down):  5.615E-04 0.000E+00

     add environment contribution to local potential

     total cpu time spent up to now is      978.8 secs

     total energy              =    -721.71755811 Ry
     estimated scf accuracy    <          1.1E-10 Ry
     electrostatic embedding   =      -0.04736565 Ry
     cavitation energy         =       0.03769706 Ry
     electrolyte free energy   =      -0.00173599 Ry
     correction to one-el term =       8.34197940 Ry

     iteration # 48     ecut=    80.00 Ry     beta= 0.20
     Davidson diagonalization with overlap

---- Real-time Memory Report at c_bands before calling an iterative solver
          1899 MiB given to the printing process from OS
             0 MiB allocation reported by mallinfo(arena+hblkhd)
        602155 MiB available memory on the node where the printing process lives
------------------
     ethr =  1.00E-13,  avg # of iterations =  2.0

     negative rho (up, down):  5.615E-04 0.000E+00

     add environment contribution to local potential

     total cpu time spent up to now is      997.2 secs

     total energy              =    -721.71755811 Ry
     estimated scf accuracy    <          8.4E-11 Ry
     electrostatic embedding   =      -0.04736581 Ry
     cavitation energy         =       0.03769706 Ry
     electrolyte free energy   =      -0.00173599 Ry
     correction to one-el term =       8.34198891 Ry

     iteration # 49     ecut=    80.00 Ry     beta= 0.20
     Davidson diagonalization with overlap

---- Real-time Memory Report at c_bands before calling an iterative solver
          1905 MiB given to the printing process from OS
             0 MiB allocation reported by mallinfo(arena+hblkhd)
        602148 MiB available memory on the node where the printing process lives
------------------
     ethr =  1.00E-13,  avg # of iterations =  2.0

     negative rho (up, down):  5.613E-04 0.000E+00

     add environment contribution to local potential

     total cpu time spent up to now is     1015.4 secs

     total energy              =    -721.71755812 Ry
     estimated scf accuracy    <          5.8E-11 Ry
     electrostatic embedding   =      -0.04736597 Ry
     cavitation energy         =       0.03769706 Ry
     electrolyte free energy   =      -0.00173599 Ry
     correction to one-el term =       8.34202954 Ry

     iteration # 50     ecut=    80.00 Ry     beta= 0.20
     Davidson diagonalization with overlap

---- Real-time Memory Report at c_bands before calling an iterative solver
          1912 MiB given to the printing process from OS
             0 MiB allocation reported by mallinfo(arena+hblkhd)
        602146 MiB available memory on the node where the printing process lives
------------------
     ethr =  1.00E-13,  avg # of iterations =  2.0

     negative rho (up, down):  5.603E-04 0.000E+00

     add environment contribution to local potential

     total cpu time spent up to now is     1033.9 secs

     total energy              =    -721.71755812 Ry
     estimated scf accuracy    <          3.3E-11 Ry
     electrostatic embedding   =      -0.04736607 Ry
     cavitation energy         =       0.03769706 Ry
     electrolyte free energy   =      -0.00173598 Ry
     correction to one-el term =       8.34218535 Ry

     iteration # 51     ecut=    80.00 Ry     beta= 0.20
     Davidson diagonalization with overlap

---- Real-time Memory Report at c_bands before calling an iterative solver
          1916 MiB given to the printing process from OS
             0 MiB allocation reported by mallinfo(arena+hblkhd)
        602141 MiB available memory on the node where the printing process lives
------------------
     ethr =  1.00E-13,  avg # of iterations =  2.0

     negative rho (up, down):  5.600E-04 0.000E+00

     add environment contribution to local potential

     total cpu time spent up to now is     1052.4 secs

     total energy              =    -721.71755812 Ry
     estimated scf accuracy    <          2.3E-11 Ry
     electrostatic embedding   =      -0.04736609 Ry
     cavitation energy         =       0.03769706 Ry
     electrolyte free energy   =      -0.00173597 Ry
     correction to one-el term =       8.34218792 Ry

     iteration # 52     ecut=    80.00 Ry     beta= 0.20
     Davidson diagonalization with overlap

---- Real-time Memory Report at c_bands before calling an iterative solver
          1924 MiB given to the printing process from OS
             0 MiB allocation reported by mallinfo(arena+hblkhd)
        602135 MiB available memory on the node where the printing process lives
------------------
     ethr =  1.00E-13,  avg # of iterations =  2.0

     negative rho (up, down):  5.603E-04 0.000E+00

     add environment contribution to local potential

     total cpu time spent up to now is     1070.5 secs

     total energy              =    -721.71755812 Ry
     estimated scf accuracy    <          2.0E-11 Ry
     electrostatic embedding   =      -0.04736608 Ry
     cavitation energy         =       0.03769706 Ry
     electrolyte free energy   =      -0.00173597 Ry
     correction to one-el term =       8.34220217 Ry

     iteration # 53     ecut=    80.00 Ry     beta= 0.20
     Davidson diagonalization with overlap

---- Real-time Memory Report at c_bands before calling an iterative solver
          1930 MiB given to the printing process from OS
             0 MiB allocation reported by mallinfo(arena+hblkhd)
        602134 MiB available memory on the node where the printing process lives
------------------
     ethr =  1.00E-13,  avg # of iterations =  1.1

     negative rho (up, down):  5.613E-04 0.000E+00

     add environment contribution to local potential

     total cpu time spent up to now is     1087.9 secs

     total energy              =    -721.71755812 Ry
     estimated scf accuracy    <          1.7E-11 Ry
     electrostatic embedding   =      -0.04736609 Ry
     cavitation energy         =       0.03769706 Ry
     electrolyte free energy   =      -0.00173596 Ry
     correction to one-el term =       8.34224190 Ry

     iteration # 54     ecut=    80.00 Ry     beta= 0.20
     Davidson diagonalization with overlap

---- Real-time Memory Report at c_bands before calling an iterative solver
          1937 MiB given to the printing process from OS
             0 MiB allocation reported by mallinfo(arena+hblkhd)
        602131 MiB available memory on the node where the printing process lives
------------------
     ethr =  1.00E-13,  avg # of iterations =  2.1

     negative rho (up, down):  5.613E-04 0.000E+00

     add environment contribution to local potential

     total cpu time spent up to now is     1106.0 secs

     total energy              =    -721.71755812 Ry
     estimated scf accuracy    <          8.6E-12 Ry
     electrostatic embedding   =      -0.04736614 Ry
     cavitation energy         =       0.03769706 Ry
     electrolyte free energy   =      -0.00173596 Ry
     correction to one-el term =       8.34223777 Ry

     iteration # 55     ecut=    80.00 Ry     beta= 0.20
     Davidson diagonalization with overlap

---- Real-time Memory Report at c_bands before calling an iterative solver
          1941 MiB given to the printing process from OS
             0 MiB allocation reported by mallinfo(arena+hblkhd)
        602129 MiB available memory on the node where the printing process lives
------------------
     ethr =  1.00E-13,  avg # of iterations =  1.0

     negative rho (up, down):  5.608E-04 0.000E+00

     add environment contribution to local potential

     total cpu time spent up to now is     1123.3 secs

     total energy              =    -721.71755812 Ry
     estimated scf accuracy    <          6.8E-12 Ry
     electrostatic embedding   =      -0.04736613 Ry
     cavitation energy         =       0.03769706 Ry
     electrolyte free energy   =      -0.00173596 Ry
     correction to one-el term =       8.34221651 Ry

     iteration # 56     ecut=    80.00 Ry     beta= 0.20
     Davidson diagonalization with overlap

---- Real-time Memory Report at c_bands before calling an iterative solver
          1944 MiB given to the printing process from OS
             0 MiB allocation reported by mallinfo(arena+hblkhd)
        602123 MiB available memory on the node where the printing process lives
------------------
     ethr =  1.00E-13,  avg # of iterations =  1.6

     negative rho (up, down):  5.604E-04 0.000E+00

     add environment contribution to local potential

     total cpu time spent up to now is     1141.3 secs

     total energy              =    -721.71755812 Ry
     estimated scf accuracy    <          5.5E-12 Ry
     electrostatic embedding   =      -0.04736613 Ry
     cavitation energy         =       0.03769706 Ry
     electrolyte free energy   =      -0.00173596 Ry
     correction to one-el term =       8.34221701 Ry

     iteration # 57     ecut=    80.00 Ry     beta= 0.20
     Davidson diagonalization with overlap

---- Real-time Memory Report at c_bands before calling an iterative solver
          1949 MiB given to the printing process from OS
             0 MiB allocation reported by mallinfo(arena+hblkhd)
        602112 MiB available memory on the node where the printing process lives
------------------
     ethr =  1.00E-13,  avg # of iterations =  2.1

     negative rho (up, down):  5.604E-04 0.000E+00

     add environment contribution to local potential

     total cpu time spent up to now is     1159.5 secs

     total energy              =    -721.71755812 Ry
     estimated scf accuracy    <          4.3E-12 Ry
     electrostatic embedding   =      -0.04736609 Ry
     cavitation energy         =       0.03769706 Ry
     electrolyte free energy   =      -0.00173596 Ry
     correction to one-el term =       8.34220704 Ry

     iteration # 58     ecut=    80.00 Ry     beta= 0.20
     Davidson diagonalization with overlap

---- Real-time Memory Report at c_bands before calling an iterative solver
          1951 MiB given to the printing process from OS
             0 MiB allocation reported by mallinfo(arena+hblkhd)
        602117 MiB available memory on the node where the printing process lives
------------------
     ethr =  1.00E-13,  avg # of iterations =  1.0

     negative rho (up, down):  5.607E-04 0.000E+00

     add environment contribution to local potential

     total cpu time spent up to now is     1176.6 secs

     total energy              =    -721.71755812 Ry
     estimated scf accuracy    <          4.1E-12 Ry
     electrostatic embedding   =      -0.04736608 Ry
     cavitation energy         =       0.03769706 Ry
     electrolyte free energy   =      -0.00173596 Ry
     correction to one-el term =       8.34220293 Ry

     iteration # 59     ecut=    80.00 Ry     beta= 0.20
     Davidson diagonalization with overlap

---- Real-time Memory Report at c_bands before calling an iterative solver
          1956 MiB given to the printing process from OS
             0 MiB allocation reported by mallinfo(arena+hblkhd)
        602116 MiB available memory on the node where the printing process lives
------------------
     ethr =  1.00E-13,  avg # of iterations =  1.0

     negative rho (up, down):  5.610E-04 0.000E+00

     add environment contribution to local potential

     total cpu time spent up to now is     1193.7 secs

     total energy              =    -721.71755812 Ry
     estimated scf accuracy    <          3.5E-12 Ry
     electrostatic embedding   =      -0.04736604 Ry
     cavitation energy         =       0.03769706 Ry
     electrolyte free energy   =      -0.00173596 Ry
     correction to one-el term =       8.34219126 Ry

     iteration # 60     ecut=    80.00 Ry     beta= 0.20
     Davidson diagonalization with overlap

---- Real-time Memory Report at c_bands before calling an iterative solver
          1958 MiB given to the printing process from OS
             0 MiB allocation reported by mallinfo(arena+hblkhd)
        602114 MiB available memory on the node where the printing process lives
------------------
     ethr =  1.00E-13,  avg # of iterations =  1.8

     negative rho (up, down):  5.610E-04 0.000E+00

     add environment contribution to local potential

     total cpu time spent up to now is     1211.6 secs

     total energy              =    -721.71755812 Ry
     estimated scf accuracy    <          2.9E-12 Ry
     electrostatic embedding   =      -0.04736604 Ry
     cavitation energy         =       0.03769706 Ry
     electrolyte free energy   =      -0.00173597 Ry
     correction to one-el term =       8.34218609 Ry

     iteration # 61     ecut=    80.00 Ry     beta= 0.20
     Davidson diagonalization with overlap

---- Real-time Memory Report at c_bands before calling an iterative solver
          1962 MiB given to the printing process from OS
             0 MiB allocation reported by mallinfo(arena+hblkhd)
        602113 MiB available memory on the node where the printing process lives
------------------
     ethr =  1.00E-13,  avg # of iterations =  1.0

     negative rho (up, down):  5.608E-04 0.000E+00

     add environment contribution to local potential

     total cpu time spent up to now is     1228.9 secs

     total energy              =    -721.71755812 Ry
     estimated scf accuracy    <          2.6E-12 Ry
     electrostatic embedding   =      -0.04736603 Ry
     cavitation energy         =       0.03769706 Ry
     electrolyte free energy   =      -0.00173597 Ry
     correction to one-el term =       8.34217663 Ry

     iteration # 62     ecut=    80.00 Ry     beta= 0.20
     Davidson diagonalization with overlap

---- Real-time Memory Report at c_bands before calling an iterative solver
          1968 MiB given to the printing process from OS
             0 MiB allocation reported by mallinfo(arena+hblkhd)
        602107 MiB available memory on the node where the printing process lives
------------------
     ethr =  1.00E-13,  avg # of iterations =  1.0

     negative rho (up, down):  5.609E-04 0.000E+00

     add environment contribution to local potential

     total cpu time spent up to now is     1246.0 secs

     total energy              =    -721.71755812 Ry
     estimated scf accuracy    <          2.1E-12 Ry
     electrostatic embedding   =      -0.04736600 Ry
     cavitation energy         =       0.03769706 Ry
     electrolyte free energy   =      -0.00173597 Ry
     correction to one-el term =       8.34215666 Ry

     iteration # 63     ecut=    80.00 Ry     beta= 0.20
     Davidson diagonalization with overlap

---- Real-time Memory Report at c_bands before calling an iterative solver
          1969 MiB given to the printing process from OS
             0 MiB allocation reported by mallinfo(arena+hblkhd)
        602106 MiB available memory on the node where the printing process lives
------------------
     ethr =  1.00E-13,  avg # of iterations =  1.0

     negative rho (up, down):  5.609E-04 0.000E+00

     add environment contribution to local potential

     total cpu time spent up to now is     1263.2 secs

     total energy              =    -721.71755812 Ry
     estimated scf accuracy    <          1.8E-12 Ry
     electrostatic embedding   =      -0.04736601 Ry
     cavitation energy         =       0.03769706 Ry
     electrolyte free energy   =      -0.00173597 Ry
     correction to one-el term =       8.34216249 Ry

     iteration # 64     ecut=    80.00 Ry     beta= 0.20
     Davidson diagonalization with overlap

---- Real-time Memory Report at c_bands before calling an iterative solver
          1974 MiB given to the printing process from OS
             0 MiB allocation reported by mallinfo(arena+hblkhd)
        602103 MiB available memory on the node where the printing process lives
------------------
     ethr =  1.00E-13,  avg # of iterations =  1.0

     negative rho (up, down):  5.609E-04 0.000E+00

     add environment contribution to local potential

     total cpu time spent up to now is     1280.3 secs

     total energy              =    -721.71755812 Ry
     estimated scf accuracy    <          1.6E-12 Ry
     electrostatic embedding   =      -0.04736601 Ry
     cavitation energy         =       0.03769706 Ry
     electrolyte free energy   =      -0.00173597 Ry
[...]
     atom   30 type  1   force =     0.00000006    0.00000529  -12.40433096
     atom   31 type  1   force =     0.00000000    0.00000645   12.40433040
     atom   32 type  1   force =    -0.00000077    0.00000158    3.44232911
     atom   33 type  1   force =     0.00000003   -0.00000023    8.61669918
     atom   34 type  1   force =    -0.00000000    0.00000428    5.96336851
     atom   35 type  1   force =    -0.00000198    0.00000391   10.34545452
     atom   36 type  1   force =     0.00000005    0.00000071    1.26953065
     atom   37 type  1   force =    -0.00000016   -0.00000059   -1.26952970
     atom   38 type  1   force =     0.00000005   -0.00000259  -10.34546942
     atom   39 type  1   force =    -0.00000178   -0.00000330   -5.96336779
     atom   40 type  1   force =     0.00000071   -0.00000027   -8.61669973
     atom   41 type  1   force =     0.00000004   -0.00000110   -3.44234137
     atom   42 type  1   force =    -0.00000283   -0.00000503  -12.40432979
     atom   43 type  1   force =    -0.00000248   -0.00000366   12.40433175
     atom   44 type  1   force =     0.00000003   -0.00000038    3.44228276
     atom   45 type  1   force =     0.00000069    0.00000275    8.61669814
     atom   46 type  1   force =    -0.00000150   -0.00000180    5.96336998
     atom   47 type  1   force =     0.00000002   -0.00000142   10.34539872
     atom   48 type  1   force =    -0.00000032   -0.00000013    1.26953196
     The local contribution  to forces
     atom    1 type  1   force =     0.00000058   -0.00000005    1.27164647
     atom    2 type  1   force =    -0.00000034   -0.00000362   10.37505924
     atom    3 type  1   force =     0.00000196   -0.00000106    5.95452889
     atom    4 type  1   force =    -0.00000058    0.00000237    8.61119520
     atom    5 type  1   force =     0.00000105   -0.00000120    3.43897513
     atom    6 type  1   force =    -0.00000329   -0.00000304   12.51309473
     atom    7 type  1   force =    -0.00000000   -0.00000328  -12.51309127
     atom    8 type  1   force =     0.00000115   -0.00000136   -3.43900555
     atom    9 type  1   force =     0.00000196   -0.00000034   -8.61119818
     atom   10 type  1   force =     0.00000058   -0.00000236   -5.95452592
     atom   11 type  1   force =    -0.00000009   -0.00000403  -10.37509638
     atom   12 type  1   force =     0.00000138   -0.00000037   -1.27164292
     atom   13 type  1   force =     0.00000208    0.00000097    1.27164325
     atom   14 type  1   force =     0.00000312    0.00000514   10.37508145
     atom   15 type  1   force =     0.00000174    0.00000344    5.95452678
     atom   16 type  1   force =     0.00000307    0.00000073    8.61119778
     atom   17 type  1   force =     0.00000196    0.00000189    3.43899452
     atom   18 type  1   force =     0.00000052    0.00000802   12.51309234
     atom   19 type  1   force =    -0.00000048    0.00000508  -12.51309443
     atom   20 type  1   force =     0.00000254    0.00000161   -3.43898463
     atom   21 type  1   force =     0.00000437   -0.00000296   -8.61119561
     atom   22 type  1   force =     0.00000041    0.00000218   -5.95452883
     atom   23 type  1   force =     0.00000254    0.00000415  -10.37506907
     atom   24 type  1   force =     0.00000298    0.00000038   -1.27164555
     atom   25 type  1   force =     0.00000254   -0.00000028    1.27164505
     atom   26 type  1   force =     0.00000426   -0.00000245   10.37505016
     atom   27 type  1   force =     0.00000392   -0.00000313    5.95452758
     atom   28 type  1   force =     0.00000312    0.00000352    8.61119671
     atom   29 type  1   force =     0.00000287   -0.00000120    3.43897029
     atom   30 type  1   force =     0.00000862   -0.00000660   12.51309327
     atom   31 type  1   force =     0.00000256   -0.00000642  -12.51309270
     atom   32 type  1   force =     0.00000277   -0.00000136   -3.43900857
     atom   33 type  1   force =     0.00000333    0.00000041   -8.61119681
     atom   34 type  1   force =     0.00000254   -0.00000420   -5.95452715
     atom   35 type  1   force =     0.00000402   -0.00000345  -10.37509880
     atom   36 type  1   force =     0.00000392   -0.00000082   -1.27164421
     atom   37 type  1   force =     0.00000242    0.00000039    1.27164325
     atom   38 type  1   force =     0.00000276    0.00000237   10.37511313
     atom   39 type  1   force =     0.00000552    0.00000286    5.95452618
     atom   40 type  1   force =     0.00000142   -0.00000043    8.61119717
     atom   41 type  1   force =     0.00000334    0.00000083    3.43901945
     atom   42 type  1   force =     0.00000679    0.00000160   12.51309175
     atom   43 type  1   force =     0.00000501    0.00000449  -12.51309383
     atom   44 type  1   force =     0.00000334    0.00000074   -3.43896055
     atom   45 type  1   force =     0.00000287   -0.00000296   -8.61119561
     atom   46 type  1   force =     0.00000351    0.00000218   -5.95452822
     atom   47 type  1   force =     0.00000334    0.00000180  -10.37503963
     atom   48 type  1   force =     0.00000370   -0.00000020   -1.27164555
     The core correction contribution to forces
     atom    1 type  1   force =     0.00000000    0.00000000    0.00000000
     atom    2 type  1   force =     0.00000000    0.00000000    0.00000000
     atom    3 type  1   force =     0.00000000    0.00000000    0.00000000
     atom    4 type  1   force =     0.00000000    0.00000000    0.00000000
     atom    5 type  1   force =     0.00000000    0.00000000    0.00000000
     atom    6 type  1   force =     0.00000000    0.00000000    0.00000000
     atom    7 type  1   force =     0.00000000    0.00000000    0.00000000
     atom    8 type  1   force =     0.00000000    0.00000000    0.00000000
     atom    9 type  1   force =     0.00000000    0.00000000    0.00000000
     atom   10 type  1   force =     0.00000000    0.00000000    0.00000000
     atom   11 type  1   force =     0.00000000    0.00000000    0.00000000
     atom   12 type  1   force =     0.00000000    0.00000000    0.00000000
     atom   13 type  1   force =     0.00000000    0.00000000    0.00000000
     atom   14 type  1   force =     0.00000000    0.00000000    0.00000000
     atom   15 type  1   force =     0.00000000    0.00000000    0.00000000
     atom   16 type  1   force =     0.00000000    0.00000000    0.00000000
     atom   17 type  1   force =     0.00000000    0.00000000    0.00000000
     atom   18 type  1   force =     0.00000000    0.00000000    0.00000000
     atom   19 type  1   force =     0.00000000    0.00000000    0.00000000
     atom   20 type  1   force =     0.00000000    0.00000000    0.00000000
     atom   21 type  1   force =     0.00000000    0.00000000    0.00000000
     atom   22 type  1   force =     0.00000000    0.00000000    0.00000000
     atom   23 type  1   force =     0.00000000    0.00000000    0.00000000
     atom   24 type  1   force =     0.00000000    0.00000000    0.00000000
     atom   25 type  1   force =     0.00000000    0.00000000    0.00000000
     atom   26 type  1   force =     0.00000000    0.00000000    0.00000000
     atom   27 type  1   force =     0.00000000    0.00000000    0.00000000
     atom   28 type  1   force =     0.00000000    0.00000000    0.00000000
     atom   29 type  1   force =     0.00000000    0.00000000    0.00000000
     atom   30 type  1   force =     0.00000000    0.00000000    0.00000000
     atom   31 type  1   force =     0.00000000    0.00000000    0.00000000
     atom   32 type  1   force =     0.00000000    0.00000000    0.00000000
     atom   33 type  1   force =     0.00000000    0.00000000    0.00000000
     atom   34 type  1   force =     0.00000000    0.00000000    0.00000000
     atom   35 type  1   force =     0.00000000    0.00000000    0.00000000
     atom   36 type  1   force =     0.00000000    0.00000000    0.00000000
     atom   37 type  1   force =     0.00000000    0.00000000    0.00000000
     atom   38 type  1   force =     0.00000000    0.00000000    0.00000000
     atom   39 type  1   force =     0.00000000    0.00000000    0.00000000
     atom   40 type  1   force =     0.00000000    0.00000000    0.00000000
     atom   41 type  1   force =     0.00000000    0.00000000    0.00000000
     atom   42 type  1   force =     0.00000000    0.00000000    0.00000000
     atom   43 type  1   force =     0.00000000    0.00000000    0.00000000
     atom   44 type  1   force =     0.00000000    0.00000000    0.00000000
     atom   45 type  1   force =     0.00000000    0.00000000    0.00000000
     atom   46 type  1   force =     0.00000000    0.00000000    0.00000000
     atom   47 type  1   force =     0.00000000    0.00000000    0.00000000
     atom   48 type  1   force =     0.00000000    0.00000000    0.00000000
     The Hubbard contrib.    to forces
     atom    1 type  1   force =     0.00000000    0.00000000    0.00000000
     atom    2 type  1   force =     0.00000000    0.00000000    0.00000000
     atom    3 type  1   force =     0.00000000    0.00000000    0.00000000
     atom    4 type  1   force =     0.00000000    0.00000000    0.00000000
     atom    5 type  1   force =     0.00000000    0.00000000    0.00000000
     atom    6 type  1   force =     0.00000000    0.00000000    0.00000000
     atom    7 type  1   force =     0.00000000    0.00000000    0.00000000
     atom    8 type  1   force =     0.00000000    0.00000000    0.00000000
     atom    9 type  1   force =     0.00000000    0.00000000    0.00000000
     atom   10 type  1   force =     0.00000000    0.00000000    0.00000000
     atom   11 type  1   force =     0.00000000    0.00000000    0.00000000
     atom   12 type  1   force =     0.00000000    0.00000000    0.00000000
     atom   13 type  1   force =     0.00000000    0.00000000    0.00000000
     atom   14 type  1   force =     0.00000000    0.00000000    0.00000000
     atom   15 type  1   force =     0.00000000    0.00000000    0.00000000
     atom   16 type  1   force =     0.00000000    0.00000000    0.00000000
     atom   17 type  1   force =     0.00000000    0.00000000    0.00000000
     atom   18 type  1   force =     0.00000000    0.00000000    0.00000000
     atom   19 type  1   force =     0.00000000    0.00000000    0.00000000
     atom   20 type  1   force =     0.00000000    0.00000000    0.00000000
     atom   21 type  1   force =     0.00000000    0.00000000    0.00000000
     atom   22 type  1   force =     0.00000000    0.00000000    0.00000000
     atom   23 type  1   force =     0.00000000    0.00000000    0.00000000
     atom   24 type  1   force =     0.00000000    0.00000000    0.00000000
     atom   25 type  1   force =     0.00000000    0.00000000    0.00000000
     atom   26 type  1   force =     0.00000000    0.00000000    0.00000000
     atom   27 type  1   force =     0.00000000    0.00000000    0.00000000
     atom   28 type  1   force =     0.00000000    0.00000000    0.00000000
     atom   29 type  1   force =     0.00000000    0.00000000    0.00000000
     atom   30 type  1   force =     0.00000000    0.00000000    0.00000000
     atom   31 type  1   force =     0.00000000    0.00000000    0.00000000
     atom   32 type  1   force =     0.00000000    0.00000000    0.00000000
     atom   33 type  1   force =     0.00000000    0.00000000    0.00000000
     atom   34 type  1   force =     0.00000000    0.00000000    0.00000000
     atom   35 type  1   force =     0.00000000    0.00000000    0.00000000
     atom   36 type  1   force =     0.00000000    0.00000000    0.00000000
     atom   37 type  1   force =     0.00000000    0.00000000    0.00000000
     atom   38 type  1   force =     0.00000000    0.00000000    0.00000000
     atom   39 type  1   force =     0.00000000    0.00000000    0.00000000
     atom   40 type  1   force =     0.00000000    0.00000000    0.00000000
     atom   41 type  1   force =     0.00000000    0.00000000    0.00000000
     atom   42 type  1   force =     0.00000000    0.00000000    0.00000000
     atom   43 type  1   force =     0.00000000    0.00000000    0.00000000
     atom   44 type  1   force =     0.00000000    0.00000000    0.00000000
     atom   45 type  1   force =     0.00000000    0.00000000    0.00000000
     atom   46 type  1   force =     0.00000000    0.00000000    0.00000000
     atom   47 type  1   force =     0.00000000    0.00000000    0.00000000
     atom   48 type  1   force =     0.00000000    0.00000000    0.00000000
     The SCF correction term to forces
     atom    1 type  1   force =     0.00000000    0.00000001   -0.00000000
     atom    2 type  1   force =    -0.00000000   -0.00000000    0.00000000
     atom    3 type  1   force =     0.00000000    0.00000000   -0.00000002
     atom    4 type  1   force =     0.00000000    0.00000000   -0.00000000
     atom    5 type  1   force =    -0.00000000   -0.00000000   -0.00000002
     atom    6 type  1   force =     0.00000000   -0.00000000   -0.00000000
     atom    7 type  1   force =    -0.00000000    0.00000000   -0.00000000
     atom    8 type  1   force =     0.00000000    0.00000000    0.00000001
     atom    9 type  1   force =     0.00000000   -0.00000000   -0.00000000
     atom   10 type  1   force =     0.00000000    0.00000000    0.00000001
     atom   11 type  1   force =     0.00000000    0.00000000   -0.00000001
     atom   12 type  1   force =     0.00000000   -0.00000001   -0.00000001
     atom   13 type  1   force =    -0.00000000   -0.00000000   -0.00000001
     atom   14 type  1   force =    -0.00000000    0.00000000    0.00000001
     atom   15 type  1   force =    -0.00000000    0.00000000   -0.00000002
     atom   16 type  1   force =    -0.00000000   -0.00000000   -0.00000001
     atom   17 type  1   force =     0.00000000    0.00000000   -0.00000002
     atom   18 type  1   force =    -0.00000000   -0.00000000   -0.00000000
     atom   19 type  1   force =    -0.00000000   -0.00000000   -0.00000000
     atom   20 type  1   force =    -0.00000000    0.00000000   -0.00000000
     atom   21 type  1   force =     0.00000000    0.00000000   -0.00000001
     atom   22 type  1   force =    -0.00000000   -0.00000000    0.00000001
     atom   23 type  1   force =    -0.00000000   -0.00000000   -0.00000001
     atom   24 type  1   force =    -0.00000000    0.00000000   -0.00000001
     atom   25 type  1   force =    -0.00000000   -0.00000000   -0.00000000
     atom   26 type  1   force =     0.00000000   -0.00000000    0.00000000
     atom   27 type  1   force =    -0.00000000    0.00000000   -0.00000003
     atom   28 type  1   force =    -0.00000000    0.00000000   -0.00000001
     atom   29 type  1   force =     0.00000000   -0.00000000   -0.00000002
     atom   30 type  1   force =     0.00000000   -0.00000000   -0.00000000
     atom   31 type  1   force =    -0.00000000    0.00000000   -0.00000000
     atom   32 type  1   force =    -0.00000000    0.00000000    0.00000001
     atom   33 type  1   force =     0.00000000   -0.00000000   -0.00000001
     atom   34 type  1   force =     0.00000000    0.00000000    0.00000001
     atom   35 type  1   force =    -0.00000000    0.00000000   -0.00000001
     atom   36 type  1   force =     0.00000000   -0.00000000   -0.00000001
     atom   37 type  1   force =     0.00000000   -0.00000000   -0.00000001
     atom   38 type  1   force =     0.00000000    0.00000000    0.00000000
     atom   39 type  1   force =     0.00000000    0.00000000   -0.00000002
     atom   40 type  1   force =     0.00000000   -0.00000000   -0.00000001
     atom   41 type  1   force =    -0.00000000   -0.00000000   -0.00000002
     atom   42 type  1   force =     0.00000000   -0.00000000   -0.00000000
     atom   43 type  1   force =     0.00000000   -0.00000000   -0.00000000
     atom   44 type  1   force =     0.00000000   -0.00000000    0.00000000
     atom   45 type  1   force =    -0.00000000    0.00000000   -0.00000001
     atom   46 type  1   force =     0.00000000   -0.00000000    0.00000001
     atom   47 type  1   force =     0.00000000    0.00000000   -0.00000002
     atom   48 type  1   force =     0.00000000    0.00000000   -0.00000001

     Total force =     0.000001     Total SCF correction =     0.000000
     Message from routine punch:
     Nothing written, as per user request (disk_io='none')
 
     init_run     :     15.21s CPU     17.17s WALL (       1 calls)
     electrons    :   1712.39s CPU   1734.98s WALL (       1 calls)
     forces       :     34.11s CPU     34.40s WALL (       1 calls)

     Called by init_run:
     wfcinit      :      3.92s CPU      4.11s WALL (       1 calls)
     wfcinit:wfcr :      3.67s CPU      3.85s WALL (      16 calls)
     potinit      :      0.22s CPU      0.51s WALL (       1 calls)
     hinit0       :      4.28s CPU      5.55s WALL (       1 calls)

     Called by electrons:
     c_bands      :    968.86s CPU    977.59s WALL (      92 calls)
     sum_band     :    159.26s CPU    164.18s WALL (      92 calls)
     v_of_rho     :      9.80s CPU     10.26s WALL (      93 calls)
     v_h          :      0.88s CPU      0.89s WALL (      93 calls)
     v_xc         :      8.91s CPU      9.37s WALL (      93 calls)
     newd         :      6.25s CPU      9.32s WALL (      93 calls)
     PAW_pot      :      1.18s CPU      1.25s WALL (      93 calls)
     mix_rho      :     24.20s CPU     24.60s WALL (      92 calls)

     Called by c_bands:
     init_us_2    :     30.99s CPU     31.38s WALL (    2976 calls)
     cegterg      :    935.10s CPU    943.30s WALL (    1474 calls)

     Called by sum_band:
     sum_band:wei :      0.12s CPU      0.12s WALL (      92 calls)
     sum_band:loo :    149.77s CPU    151.35s WALL (      92 calls)
     sum_band:buf :      3.29s CPU      3.33s WALL (    1472 calls)
     sum_band:ini :     14.28s CPU     14.40s WALL (    1472 calls)
     sum_band:cal :     37.18s CPU     37.55s WALL (    1472 calls)
     sum_band:bec :      0.98s CPU      0.99s WALL (    1472 calls)
     addusdens    :      7.27s CPU     10.51s WALL (      92 calls)
                                        0.00s GPU  (      92 calls)
     addusd:skk   :      1.27s CPU      2.64s WALL (      92 calls)
                                        0.00s GPU  (      92 calls)

     Called by *egterg:
     cdiaghg      :     75.25s CPU     75.72s WALL (    6607 calls)
     cegterg:over :     57.83s CPU     58.25s WALL (    5133 calls)
     cegterg:upda :     37.11s CPU     37.39s WALL (    5133 calls)
     cegterg:last :     56.75s CPU     57.13s WALL (    2472 calls)
     h_psi        :    593.96s CPU    599.95s WALL (    6623 calls)
     s_psi        :     77.03s CPU     77.57s WALL (    6623 calls)
     g_psi        :      1.06s CPU      1.07s WALL (    5133 calls)

     Called by h_psi:
     h_psi:calbec :     98.72s CPU     99.90s WALL (    6623 calls)
     vloc_psi     :    399.21s CPU    403.30s WALL (    6623 calls)
                                        0.00s GPU  (    6623 calls)
     add_vuspsi   :     90.97s CPU     91.64s WALL (    6623 calls)

     General routines
     calbec       :    137.27s CPU    138.85s WALL (    8159 calls)
     fft          :      7.33s CPU      7.65s WALL (    1209 calls)
     ffts         :     12.99s CPU     13.10s WALL (   11378 calls)
     fftw         :    460.49s CPU    465.39s WALL (  874372 calls)
     interpolate  :      0.72s CPU      0.75s WALL (      93 calls)
 
     Parallel routines

     PAW routines
     PAW_pot      :      1.18s CPU      1.25s WALL (      93 calls)
     PAW_symme    :      0.02s CPU      0.02s WALL (     185 calls)
 
     Environ routines
 
     PWSCF        :  29m22.32s CPU  29m47.93s WALL

 
   This run was terminated on:   2:47:21  26Dec2024            

=------------------------------------------------------------------------------=
   JOB DONE.
=------------------------------------------------------------------------------=
