
     Program PWSCF v.7.4 starts on 27Dec2024 at 20:50:32 

     This program is part of the open-source Quantum ESPRESSO suite
     for quantum simulation of materials; please cite
         "P. Giannozzi et al., J. Phys.:Condens. Matter 21 395502 (2009);
         "P. Giannozzi et al., J. Phys.:Condens. Matter 29 465901 (2017);
         "P. Giannozzi et al., J. Chem. Phys. 152 154105 (2020);
          URL http://www.quantum-espresso.org", 
     in publications or presentations arising from this work. More details at
     http://www.quantum-espresso.org/quote

     Parallel version (MPI & OpenMP), running on     192 processor cores
     Number of MPI processes:               192
     Threads/MPI process:                     1

     MPI processes distributed on     1 nodes
     659431 MiB available memory on the printing compute node when the environment starts
 
     Reading input from espresso.pwi
Warning: card &CELL ignored
Warning: card    PRESS_CONV_THR   = 0.1 ignored
Warning: card    CELL_DOFREE      = 'ALL' ignored
Warning: card / ignored
Warning: card &FCP ignored
Warning: card / ignored
Warning: card &RISM ignored
Warning: card / ignored

     Current dimensions of program PWSCF are:
     Max number of different atomic species (ntypx) = 10
     Max number of k-points (npk) =  40000
     Max angular momentum in pseudopotentials (lmaxx) =  4

     IMPORTANT: XC functional enforced from input :
     Exchange-correlation= PBE
                           (   1   4   3   4   0   0   0)
     Any further DFT definition will be discarded
     Please, verify this is what you really want

 
     Reading input from environ.in:
     * using ionic solvent mode
     * setting boundary derivatives method to SSCS default
     * setting electrolyte-boundary derivatives method to SSCS default

Environ Warning (1001): card EOF ignored

     
 
     R & G space division:  proc/nbgrp/npool/nimage =     192
     Subspace diagonalization in iterative solution of the eigenvalue problem:
     a serial algorithm will be used

 
     Parallelization info
     --------------------
     sticks:   dense  smooth     PW     G-vecs:    dense   smooth      PW
     Min          52      20      5                30692     7708    1053
     Max          53      21      6                30755     7803    1122
     Sum       10033    4007   1075              5896473  1491071  208783
 
     Using Slab Decomposition
 


     bravais-lattice index     =           12
     lattice parameter (alat)  =      11.2436  a.u.
     unit-cell volume          =   15431.5256 (a.u.)^3
     number of atoms/cell      =           28
     number of atomic types    =            1
     number of electrons       =        84.00
     number of Kohn-Sham states=           63
     kinetic-energy cutoff     =      80.0000  Ry
     charge density cutoff     =     800.0000  Ry
     scf convergence threshold =      1.0E-14
     mixing beta               =       0.2000
     number of iterations used =            8  local-TF  mixing
     Exchange-correlation= PBE
                           (   1   4   3   4   0   0   0)

     ================================================================================
 
                                  Environ Setup Summary

     ================================================================================
 
     Please cite

          O. Andreussi, I. Dabo and N. Marzari, J. Chem. Phys. 136, 064102 (2012)
          F. Nattino, M. Truscott, N. Marzari, and O. Andreussi, J. Chem. Phys. 150, 041722 (2019)

     in publications or presentations arising from this work.

     ================================================================================
 
     Parameters
     ==========

     compensation onset threshold      =               0.1000E+00
     static permittivity               =                    89.90
     surface tension in input (dyn/cm) =                    37.30
     surface tension in internal units =               0.4792E-04

     Solvent Boundary
     ================

     solvent mode                      =                    ionic
     derivatives method                =                   lowmem
     electrolyte derivatives method    =                   lowmem
     numerical core for derivatives    =                      fft
     switching function adopted        =                     SCCS
     density limit for vacuum region   =               0.5000E-02
     density limit for bulk solvent    =               0.1000E-03
     soft-sphere radius mode           =                    bondi
     soft-sphere softness              =                     0.50
     alpha                             =                     1.32

     Electrostatic Setup
     ===================

     electrostatic problem to solve    =                    modpb
     numerical solver adopted          =                   newton
     type of auxiliary density adopted =                     none
     numerical core for poisson        =                      fft
     adopting a nested solver scheme
     inner solver                      =                       cg
     inner core                        =                      fft
     type of pbc corrections           =                parabolic
     numerical core for corrections    =                      1da

     ================================================================================
 

     celldm(1)=  11.243615  celldm(2)=   1.258306  celldm(3)=   8.704589
     celldm(4)=  -0.132454  celldm(5)=   0.000000  celldm(6)=   0.000000

     crystal axes: (cart. coord. in units of alat)
               a(1) = (   1.000000   0.000000   0.000000 )  
               a(2) = (  -0.166667   1.247219   0.000000 )  
               a(3) = (   0.000000   0.000000   8.704589 )  

     reciprocal axes: (cart. coord. in units 2 pi/alat)
               b(1) = (  1.000000  0.133631  0.000000 )  
               b(2) = (  0.000000  0.801784  0.000000 )  
               b(3) = (  0.000000  0.000000  0.114882 )  


     PseudoPot. # 1 for Li read from file:
     /home/ba3g18/Repos/Pseudopotentials/pslibrary.1.0.0/pbe/PSEUDOPOTENTIALS/Li.pbe-sl-kjpaw_psl.1.0.0.UPF
     MD5 check sum: 3f4d2cafebb47c6c3aa8ed472e6f074d
     Pseudo is Projector augmented-wave, Zval =  3.0
     Generated using 'atomic' code by A. Dal Corso  v.7.4
     Shape of augmentation charge: PSQ
     Using radial grid of 1017 points,  4 beta functions with: 
                l(1) =   0
                l(2) =   0
                l(3) =   1
                l(4) =   1
     Q(r) pseudized with 0 coefficients 


     atomic species   valence    mass     pseudopotential
     Li                3.00     6.94000     Li( 1.00)

     No symmetry found


                                    s                        frac. trans.

      isym =  1     identity                                     

 cryst.   s( 1) = (     1          0          0      )
                  (     0          1          0      )
                  (     0          0          1      )

 cart.    s( 1) = (  1.0000000  0.0000000  0.0000000 )
                  (  0.0000000  1.0000000  0.0000000 )
                  (  0.0000000  0.0000000  1.0000000 )


     point group C_1 (1)    
     there are  1 classes
     the character table:

       E    
A      1.00

     the symmetry operations in each class and the name of the first element:

     E        1
          identity                                               

   Cartesian axes

     site n.     atom                  positions (alat units)
         1        Li     tau(   1) = (   0.0446021  -0.0384947   5.3431672  )
         2        Li     tau(   2) = (  -0.0446177   0.8402803   3.3614231  )
         3        Li     tau(   3) = (   0.1260651   0.3578781   3.4940514  )
         4        Li     tau(   4) = (   0.1750984   1.1747644   3.6676749  )
         5        Li     tau(   5) = (   0.2942260   0.7100678   3.7940754  )
         6        Li     tau(   6) = (  -0.0018846   0.2792000   3.9726993  )
         7        Li     tau(   7) = (  -0.0228245   1.0628247   4.1120698  )
         8        Li     tau(   8) = (   0.1803684   0.6333691   4.2767566  )
         9        Li     tau(   9) = (   0.3196329   0.1684135   4.4278307  )
        10        Li     tau(  10) = (   0.3561608   0.9861774   4.5925213  )
        11        Li     tau(  11) = (   0.0018892   0.5225844   4.7318918  )
        12        Li     tau(  12) = (   0.2057713   0.0917124   4.9105172  )
        13        Li     tau(  13) = (   0.1582350   0.8742440   5.0369176  )
        14        Li     tau(  14) = (   0.3739416   0.4439056   5.2105381  )
        15        Li     tau(  15) = (   0.5445967  -0.0384949   5.3431676  )
        16        Li     tau(  16) = (   0.4554125   0.8402806   3.3614209  )
        17        Li     tau(  17) = (   0.6260508   0.3578785   3.4940500  )
        18        Li     tau(  18) = (   0.6750957   1.1747550   3.6676711  )
        19        Li     tau(  19) = (   0.7942317   0.7100732   3.7940699  )
        20        Li     tau(  20) = (   0.4981101   0.2791967   3.9726962  )
        21        Li     tau(  21) = (   0.4771741   1.0628250   4.1120690  )
        22        Li     tau(  22) = (   0.6803684   0.6333699   4.2767608  )
        23        Li     tau(  23) = (   0.8196341   0.1684139   4.4278313  )
        24        Li     tau(  24) = (   0.8561593   0.9861772   4.5925201  )
        25        Li     tau(  25) = (   0.5018904   0.5225853   4.7318913  )
        26        Li     tau(  26) = (   0.7057727   0.0917130   4.9105166  )
        27        Li     tau(  27) = (   0.6582343   0.8742425   5.0369171  )
        28        Li     tau(  28) = (   0.8739393   0.4439058   5.2105375  )

   Crystallographic axes

     site n.     atom                  positions (cryst. coord.)
         1        Li     tau(   1) = (  0.0394581 -0.0308644  0.6138334  )
         2        Li     tau(   2) = (  0.0676697  0.6737231  0.3861668  )
         3        Li     tau(   3) = (  0.1738886  0.2869409  0.4014034  )
         4        Li     tau(   4) = (  0.3320832  0.9419071  0.4213496  )
         5        Li     tau(   5) = (  0.3891130  0.5693209  0.4358707  )
         6        Li     tau(   6) = (  0.0354251  0.2238580  0.4563914  )
         7        Li     tau(   7) = (  0.1192017  0.8521556  0.4724025  )
         8        Li     tau(   8) = (  0.2650061  0.5078251  0.4913221  )
         9        Li     tau(   9) = (  0.3421382  0.1350312  0.5086778  )
        10        Li     tau(  10) = (  0.4879445  0.7907011  0.5275978  )
        11        Li     tau(  11) = (  0.0717226  0.4189997  0.5436089  )
        12        Li     tau(  12) = (  0.2180269  0.0735335  0.5641297  )
        13        Li     tau(  13) = (  0.2750610  0.7009547  0.5786509  )
        14        Li     tau(  14) = (  0.4332611  0.3559163  0.5985967  )
        15        Li     tau(  15) = (  0.5394526 -0.0308646  0.6138334  )
        16        Li     tau(  16) = (  0.5677000  0.6737234  0.3861665  )
        17        Li     tau(  17) = (  0.6738744  0.2869412  0.4014032  )
        18        Li     tau(  18) = (  0.8320792  0.9418995  0.4213492  )
        19        Li     tau(  19) = (  0.8891194  0.5693252  0.4358701  )
        20        Li     tau(  20) = (  0.5354194  0.2238554  0.4563910  )
        21        Li     tau(  21) = (  0.6192004  0.8521559  0.4724025  )
        22        Li     tau(  22) = (  0.7650062  0.5078258  0.4913226  )
        23        Li     tau(  23) = (  0.8421394  0.1350315  0.5086778  )
        24        Li     tau(  24) = (  0.9879430  0.7907009  0.5275976  )
        25        Li     tau(  25) = (  0.5717239  0.4190005  0.5436088  )
        26        Li     tau(  26) = (  0.7180284  0.0735340  0.5641297  )
        27        Li     tau(  27) = (  0.7750601  0.7009535  0.5786508  )
        28        Li     tau(  28) = (  0.9332588  0.3559164  0.5985966  )

     number of k points=    50  Marzari-Vanderbilt smearing, width (Ry)=  0.0100
                       cart. coord. in units 2pi/alat
        k(    1) = (   0.0000000   0.0000000   0.0000000), wk =   0.0202020
        k(    2) = (   0.0000000   0.0890871   0.0000000), wk =   0.0404040
        k(    3) = (   0.0000000   0.1781742   0.0000000), wk =   0.0404040
        k(    4) = (   0.0000000   0.2672613   0.0000000), wk =   0.0404040
        k(    5) = (   0.0000000   0.3563484   0.0000000), wk =   0.0404040
        k(    6) = (   0.0909091   0.0121483   0.0000000), wk =   0.0404040
        k(    7) = (   0.0909091   0.1012354   0.0000000), wk =   0.0404040
        k(    8) = (   0.0909091   0.1903224   0.0000000), wk =   0.0404040
        k(    9) = (   0.0909091   0.2794095   0.0000000), wk =   0.0404040
        k(   10) = (   0.0909091   0.3684966   0.0000000), wk =   0.0404040
        k(   11) = (   0.0909091  -0.3442001   0.0000000), wk =   0.0404040
        k(   12) = (   0.0909091  -0.2551130   0.0000000), wk =   0.0404040
        k(   13) = (   0.0909091  -0.1660259   0.0000000), wk =   0.0404040
        k(   14) = (   0.0909091  -0.0769388   0.0000000), wk =   0.0404040
        k(   15) = (   0.1818182   0.0242965   0.0000000), wk =   0.0404040
        k(   16) = (   0.1818182   0.1133836   0.0000000), wk =   0.0404040
        k(   17) = (   0.1818182   0.2024707   0.0000000), wk =   0.0404040
        k(   18) = (   0.1818182   0.2915578   0.0000000), wk =   0.0404040
        k(   19) = (   0.1818182   0.3806449   0.0000000), wk =   0.0404040
        k(   20) = (   0.1818182  -0.3320518   0.0000000), wk =   0.0404040
        k(   21) = (   0.1818182  -0.2429647   0.0000000), wk =   0.0404040
        k(   22) = (   0.1818182  -0.1538777   0.0000000), wk =   0.0404040
        k(   23) = (   0.1818182  -0.0647906   0.0000000), wk =   0.0404040
        k(   24) = (   0.2727273   0.0364448   0.0000000), wk =   0.0404040
        k(   25) = (   0.2727273   0.1255319   0.0000000), wk =   0.0404040
        k(   26) = (   0.2727273   0.2146190   0.0000000), wk =   0.0404040
        k(   27) = (   0.2727273   0.3037061   0.0000000), wk =   0.0404040
        k(   28) = (   0.2727273   0.3927932   0.0000000), wk =   0.0404040
        k(   29) = (   0.2727273  -0.3199036   0.0000000), wk =   0.0404040
        k(   30) = (   0.2727273  -0.2308165   0.0000000), wk =   0.0404040
        k(   31) = (   0.2727273  -0.1417294   0.0000000), wk =   0.0404040
        k(   32) = (   0.2727273  -0.0526423   0.0000000), wk =   0.0404040
        k(   33) = (   0.3636364   0.0485931   0.0000000), wk =   0.0404040
        k(   34) = (   0.3636364   0.1376801   0.0000000), wk =   0.0404040
        k(   35) = (   0.3636364   0.2267672   0.0000000), wk =   0.0404040
        k(   36) = (   0.3636364   0.3158543   0.0000000), wk =   0.0404040
        k(   37) = (   0.3636364   0.4049414   0.0000000), wk =   0.0404040
        k(   38) = (   0.3636364  -0.3077553   0.0000000), wk =   0.0404040
        k(   39) = (   0.3636364  -0.2186682   0.0000000), wk =   0.0404040
        k(   40) = (   0.3636364  -0.1295811   0.0000000), wk =   0.0404040
        k(   41) = (   0.3636364  -0.0404940   0.0000000), wk =   0.0404040
        k(   42) = (   0.4545455   0.0607413   0.0000000), wk =   0.0404040
        k(   43) = (   0.4545455   0.1498284   0.0000000), wk =   0.0404040
        k(   44) = (   0.4545455   0.2389155   0.0000000), wk =   0.0404040
        k(   45) = (   0.4545455   0.3280026   0.0000000), wk =   0.0404040
        k(   46) = (   0.4545455   0.4170897   0.0000000), wk =   0.0404040
        k(   47) = (   0.4545455  -0.2956070   0.0000000), wk =   0.0404040
        k(   48) = (   0.4545455  -0.2065200   0.0000000), wk =   0.0404040
        k(   49) = (   0.4545455  -0.1174329   0.0000000), wk =   0.0404040
        k(   50) = (   0.4545455  -0.0283458   0.0000000), wk =   0.0404040

                       cryst. coord.
        k(    1) = (   0.0000000   0.0000000   0.0000000), wk =   0.0202020
        k(    2) = (   0.0000000   0.1111111   0.0000000), wk =   0.0404040
        k(    3) = (   0.0000000   0.2222222   0.0000000), wk =   0.0404040
        k(    4) = (   0.0000000   0.3333333   0.0000000), wk =   0.0404040
        k(    5) = (   0.0000000   0.4444444   0.0000000), wk =   0.0404040
        k(    6) = (   0.0909091   0.0000000   0.0000000), wk =   0.0404040
        k(    7) = (   0.0909091   0.1111111   0.0000000), wk =   0.0404040
        k(    8) = (   0.0909091   0.2222222   0.0000000), wk =   0.0404040
        k(    9) = (   0.0909091   0.3333333   0.0000000), wk =   0.0404040
        k(   10) = (   0.0909091   0.4444444   0.0000000), wk =   0.0404040
        k(   11) = (   0.0909091  -0.4444444   0.0000000), wk =   0.0404040
        k(   12) = (   0.0909091  -0.3333333   0.0000000), wk =   0.0404040
        k(   13) = (   0.0909091  -0.2222222   0.0000000), wk =   0.0404040
        k(   14) = (   0.0909091  -0.1111111   0.0000000), wk =   0.0404040
        k(   15) = (   0.1818182   0.0000000   0.0000000), wk =   0.0404040
        k(   16) = (   0.1818182   0.1111111   0.0000000), wk =   0.0404040
        k(   17) = (   0.1818182   0.2222222   0.0000000), wk =   0.0404040
        k(   18) = (   0.1818182   0.3333333   0.0000000), wk =   0.0404040
        k(   19) = (   0.1818182   0.4444444   0.0000000), wk =   0.0404040
        k(   20) = (   0.1818182  -0.4444444   0.0000000), wk =   0.0404040
        k(   21) = (   0.1818182  -0.3333333   0.0000000), wk =   0.0404040
        k(   22) = (   0.1818182  -0.2222222   0.0000000), wk =   0.0404040
        k(   23) = (   0.1818182  -0.1111111   0.0000000), wk =   0.0404040
        k(   24) = (   0.2727273   0.0000000   0.0000000), wk =   0.0404040
        k(   25) = (   0.2727273   0.1111111   0.0000000), wk =   0.0404040
        k(   26) = (   0.2727273   0.2222222   0.0000000), wk =   0.0404040
        k(   27) = (   0.2727273   0.3333333   0.0000000), wk =   0.0404040
        k(   28) = (   0.2727273   0.4444444   0.0000000), wk =   0.0404040
        k(   29) = (   0.2727273  -0.4444444   0.0000000), wk =   0.0404040
        k(   30) = (   0.2727273  -0.3333333   0.0000000), wk =   0.0404040
        k(   31) = (   0.2727273  -0.2222222   0.0000000), wk =   0.0404040
        k(   32) = (   0.2727273  -0.1111111   0.0000000), wk =   0.0404040
        k(   33) = (   0.3636364   0.0000000   0.0000000), wk =   0.0404040
        k(   34) = (   0.3636364   0.1111111   0.0000000), wk =   0.0404040
        k(   35) = (   0.3636364   0.2222222   0.0000000), wk =   0.0404040
        k(   36) = (   0.3636364   0.3333333   0.0000000), wk =   0.0404040
        k(   37) = (   0.3636364   0.4444444   0.0000000), wk =   0.0404040
        k(   38) = (   0.3636364  -0.4444444   0.0000000), wk =   0.0404040
        k(   39) = (   0.3636364  -0.3333333   0.0000000), wk =   0.0404040
        k(   40) = (   0.3636364  -0.2222222   0.0000000), wk =   0.0404040
        k(   41) = (   0.3636364  -0.1111111   0.0000000), wk =   0.0404040
        k(   42) = (   0.4545455   0.0000000   0.0000000), wk =   0.0404040
        k(   43) = (   0.4545455   0.1111111   0.0000000), wk =   0.0404040
        k(   44) = (   0.4545455   0.2222222   0.0000000), wk =   0.0404040
        k(   45) = (   0.4545455   0.3333333   0.0000000), wk =   0.0404040
        k(   46) = (   0.4545455   0.4444444   0.0000000), wk =   0.0404040
        k(   47) = (   0.4545455  -0.4444444   0.0000000), wk =   0.0404040
        k(   48) = (   0.4545455  -0.3333333   0.0000000), wk =   0.0404040
        k(   49) = (   0.4545455  -0.2222222   0.0000000), wk =   0.0404040
        k(   50) = (   0.4545455  -0.1111111   0.0000000), wk =   0.0404040

     Dense  grid:  5896473 G-vectors     FFT dimensions: ( 108, 128, 900)

     Smooth grid:  1491071 G-vectors     FFT dimensions: (  72,  81, 576)

     Dynamical RAM for                 wfc:       0.93 MB

     Dynamical RAM for     wfc (w. buffer):      47.60 MB

     Dynamical RAM for           str. fact:       0.47 MB

     Dynamical RAM for           local pot:       0.00 MB

     Dynamical RAM for          nlocal pot:       3.32 MB

     Dynamical RAM for                qrad:       0.65 MB

     Dynamical RAM for          rho,v,vnew:       2.99 MB

     Dynamical RAM for               rhoin:       1.00 MB

     Dynamical RAM for            rho*nmix:       7.49 MB

     Dynamical RAM for           G-vectors:       1.82 MB

     Dynamical RAM for          h,s,v(r/c):       0.73 MB

     Dynamical RAM for          <psi|beta>:       0.22 MB

     Dynamical RAM for                 psi:       1.87 MB

     Dynamical RAM for                hpsi:       1.87 MB

     Dynamical RAM for                spsi:       1.87 MB

     Dynamical RAM for      wfcinit/wfcrot:       1.96 MB

     Dynamical RAM for           addusdens:      33.25 MB

     Dynamical RAM for          addusforce:      58.80 MB

     Estimated static dynamical RAM per process >      61.41 MB

     Estimated max dynamical RAM per process >     127.71 MB

     Estimated total dynamical RAM >      23.95 GB

     Initial potential from superposition of free atoms

     starting charge      83.8710, renormalised to      84.0000

     negative rho (up, down):  2.650E-03 0.000E+00
     Starting wfcs are random
     Checking if some PAW data can be deallocated... 

     total cpu time spent up to now is       10.3 secs

     Self-consistent Calculation

     iteration #  1     ecut=    80.00 Ry     beta= 0.20
     Davidson diagonalization with overlap

---- Real-time Memory Report at c_bands before calling an iterative solver
           464 MiB given to the printing process from OS
             0 MiB allocation reported by mallinfo(arena+hblkhd)
        627220 MiB available memory on the node where the printing process lives
------------------
     ethr =  1.00E-02,  avg # of iterations = 12.0

     negative rho (up, down):  9.051E-05 0.000E+00

     total cpu time spent up to now is       51.3 secs

     total energy              =    -419.42861341 Ry
     estimated scf accuracy    <       3.94443126 Ry
     electrostatic embedding   =       0.00000000 Ry
     cavitation energy         =       0.01831241 Ry
     electrolyte free energy   =       0.00664192 Ry
     correction to one-el term =       0.00000000 Ry

     iteration #  2     ecut=    80.00 Ry     beta= 0.20
     Davidson diagonalization with overlap

---- Real-time Memory Report at c_bands before calling an iterative solver
           563 MiB given to the printing process from OS
             0 MiB allocation reported by mallinfo(arena+hblkhd)
        627518 MiB available memory on the node where the printing process lives
------------------
     ethr =  4.70E-03,  avg # of iterations =  4.9

     negative rho (up, down):  3.415E-06 0.000E+00

     total cpu time spent up to now is       68.0 secs

     total energy              =    -420.24501092 Ry
     estimated scf accuracy    <       1.18729492 Ry
     electrostatic embedding   =       0.00000000 Ry
     cavitation energy         =       0.01831241 Ry
     electrolyte free energy   =       0.00664192 Ry
     correction to one-el term =       0.00000000 Ry

     iteration #  3     ecut=    80.00 Ry     beta= 0.20
     Davidson diagonalization with overlap

---- Real-time Memory Report at c_bands before calling an iterative solver
           604 MiB given to the printing process from OS
             0 MiB allocation reported by mallinfo(arena+hblkhd)
        627313 MiB available memory on the node where the printing process lives
------------------
     ethr =  1.41E-03,  avg # of iterations =  4.7

     negative rho (up, down):  1.233E-06 0.000E+00

     total cpu time spent up to now is       89.0 secs

     total energy              =    -420.97951325 Ry
     estimated scf accuracy    <       0.22405913 Ry
     electrostatic embedding   =       0.00000000 Ry
     cavitation energy         =       0.01831241 Ry
     electrolyte free energy   =       0.00664192 Ry
     correction to one-el term =       0.00000000 Ry

     iteration #  4     ecut=    80.00 Ry     beta= 0.20
     Davidson diagonalization with overlap

---- Real-time Memory Report at c_bands before calling an iterative solver
           650 MiB given to the printing process from OS
             0 MiB allocation reported by mallinfo(arena+hblkhd)
        627202 MiB available memory on the node where the printing process lives
------------------
     ethr =  2.67E-04,  avg # of iterations =  7.2

     negative rho (up, down):  2.664E-07 0.000E+00

     total cpu time spent up to now is      106.3 secs

     total energy              =    -421.06951770 Ry
     estimated scf accuracy    <       0.38747914 Ry
     electrostatic embedding   =       0.00000000 Ry
     cavitation energy         =       0.01831241 Ry
     electrolyte free energy   =       0.00664192 Ry
     correction to one-el term =       0.00000000 Ry

     iteration #  5     ecut=    80.00 Ry     beta= 0.20
     Davidson diagonalization with overlap

---- Real-time Memory Report at c_bands before calling an iterative solver
           680 MiB given to the printing process from OS
             0 MiB allocation reported by mallinfo(arena+hblkhd)
        627102 MiB available memory on the node where the printing process lives
------------------
     ethr =  2.67E-04,  avg # of iterations =  1.2

     negative rho (up, down):  1.043E-05 0.000E+00

     total cpu time spent up to now is      117.7 secs

     total energy              =    -420.99069794 Ry
     estimated scf accuracy    <       0.67539331 Ry
     electrostatic embedding   =       0.00000000 Ry
     cavitation energy         =       0.01831241 Ry
     electrolyte free energy   =       0.00664192 Ry
     correction to one-el term =       0.00000000 Ry

     iteration #  6     ecut=    80.00 Ry     beta= 0.20
     Davidson diagonalization with overlap

---- Real-time Memory Report at c_bands before calling an iterative solver
           703 MiB given to the printing process from OS
             0 MiB allocation reported by mallinfo(arena+hblkhd)
        627031 MiB available memory on the node where the printing process lives
------------------
     ethr =  2.67E-04,  avg # of iterations =  2.4

     negative rho (up, down):  2.528E-06 0.000E+00

     total cpu time spent up to now is      130.2 secs

     total energy              =    -421.01168168 Ry
     estimated scf accuracy    <       0.11977033 Ry
     electrostatic embedding   =       0.00000000 Ry
     cavitation energy         =       0.01831241 Ry
     electrolyte free energy   =       0.00664192 Ry
     correction to one-el term =       0.00000000 Ry

     iteration #  7     ecut=    80.00 Ry     beta= 0.20
     Davidson diagonalization with overlap

---- Real-time Memory Report at c_bands before calling an iterative solver
           723 MiB given to the printing process from OS
             0 MiB allocation reported by mallinfo(arena+hblkhd)
        626951 MiB available memory on the node where the printing process lives
------------------
     ethr =  1.43E-04,  avg # of iterations =  1.4

     negative rho (up, down):  4.348E-06 0.000E+00

     total cpu time spent up to now is      141.8 secs

     total energy              =    -421.00199436 Ry
     estimated scf accuracy    <       0.13261628 Ry
     electrostatic embedding   =       0.00000000 Ry
     cavitation energy         =       0.01831241 Ry
     electrolyte free energy   =       0.00664192 Ry
     correction to one-el term =       0.00000000 Ry

     iteration #  8     ecut=    80.00 Ry     beta= 0.20
     Davidson diagonalization with overlap

---- Real-time Memory Report at c_bands before calling an iterative solver
           741 MiB given to the printing process from OS
             0 MiB allocation reported by mallinfo(arena+hblkhd)
        626875 MiB available memory on the node where the printing process lives
------------------
     ethr =  1.43E-04,  avg # of iterations =  2.8

     negative rho (up, down):  5.916E-08 0.000E+00

     add environment contribution to local potential

     total cpu time spent up to now is      156.5 secs

     total energy              =    -421.00041972 Ry
     estimated scf accuracy    <       0.06625220 Ry
     electrostatic embedding   =       0.00000000 Ry
     cavitation energy         =       0.01831241 Ry
     electrolyte free energy   =       0.00664192 Ry
     correction to one-el term =       0.00000000 Ry

     iteration #  9     ecut=    80.00 Ry     beta= 0.20
     Davidson diagonalization with overlap

---- Real-time Memory Report at c_bands before calling an iterative solver
           763 MiB given to the printing process from OS
             0 MiB allocation reported by mallinfo(arena+hblkhd)
        626690 MiB available memory on the node where the printing process lives
------------------
     c_bands:  1 eigenvalues not converged
     c_bands:  3 eigenvalues not converged
     c_bands:  1 eigenvalues not converged
     c_bands:  3 eigenvalues not converged
     c_bands:  2 eigenvalues not converged
     c_bands:  2 eigenvalues not converged
     c_bands:  2 eigenvalues not converged
     c_bands:  1 eigenvalues not converged
     c_bands:  1 eigenvalues not converged
     c_bands:  1 eigenvalues not converged
     c_bands:  2 eigenvalues not converged
     c_bands:  2 eigenvalues not converged
     c_bands:  2 eigenvalues not converged
     c_bands:  3 eigenvalues not converged
     c_bands:  1 eigenvalues not converged
     c_bands:  2 eigenvalues not converged
     c_bands:  3 eigenvalues not converged
     c_bands:  2 eigenvalues not converged
     c_bands:  2 eigenvalues not converged
     c_bands:  1 eigenvalues not converged
     c_bands:  2 eigenvalues not converged
     c_bands:  1 eigenvalues not converged
     c_bands:  2 eigenvalues not converged
     c_bands:  1 eigenvalues not converged
     c_bands:  2 eigenvalues not converged
     c_bands:  2 eigenvalues not converged
     c_bands:  2 eigenvalues not converged
     c_bands:  1 eigenvalues not converged
     c_bands:  1 eigenvalues not converged
     c_bands:  1 eigenvalues not converged
     c_bands:  1 eigenvalues not converged
     ethr =  7.89E-05,  avg # of iterations = 19.5

     negative rho (up, down):  4.121E-03 0.000E+00

     add environment contribution to local potential

     total cpu time spent up to now is      186.2 secs

     total energy              =    -421.01598534 Ry
     estimated scf accuracy    <       0.01749703 Ry
     electrostatic embedding   =      -0.02781096 Ry
     cavitation energy         =       0.01831241 Ry
     electrolyte free energy   =      -0.00057486 Ry
     correction to one-el term =      -4.28925122 Ry

     iteration # 10     ecut=    80.00 Ry     beta= 0.20
     Davidson diagonalization with overlap

---- Real-time Memory Report at c_bands before calling an iterative solver
           785 MiB given to the printing process from OS
             0 MiB allocation reported by mallinfo(arena+hblkhd)
        626566 MiB available memory on the node where the printing process lives
------------------
     ethr =  2.08E-05,  avg # of iterations =  7.0

     negative rho (up, down):  2.953E-02 0.000E+00

     add environment contribution to local potential

     total cpu time spent up to now is      203.4 secs

     total energy              =    -421.01734600 Ry
     estimated scf accuracy    <       0.01514179 Ry
     electrostatic embedding   =      -0.02573734 Ry
     cavitation energy         =       0.01831241 Ry
     electrolyte free energy   =      -0.00103571 Ry
     correction to one-el term =      -3.86233459 Ry

     iteration # 11     ecut=    80.00 Ry     beta= 0.20
     Davidson diagonalization with overlap

---- Real-time Memory Report at c_bands before calling an iterative solver
           799 MiB given to the printing process from OS
             0 MiB allocation reported by mallinfo(arena+hblkhd)
        626500 MiB available memory on the node where the printing process lives
------------------
     c_bands:  1 eigenvalues not converged
     c_bands:  1 eigenvalues not converged
     ethr =  1.80E-05,  avg # of iterations =  7.2

     negative rho (up, down):  4.894E-02 0.000E+00

     total cpu time spent up to now is      218.5 secs

     total energy              =    -421.01954708 Ry
     estimated scf accuracy    <       0.10355832 Ry
     electrostatic embedding   =      -0.02288563 Ry
     cavitation energy         =       0.01831241 Ry
     electrolyte free energy   =      -0.00158905 Ry
     correction to one-el term =      -2.42271456 Ry

     iteration # 12     ecut=    80.00 Ry     beta= 0.20
     Davidson diagonalization with overlap

---- Real-time Memory Report at c_bands before calling an iterative solver
           813 MiB given to the printing process from OS
             0 MiB allocation reported by mallinfo(arena+hblkhd)
        626449 MiB available memory on the node where the printing process lives
------------------
     ethr =  1.80E-05,  avg # of iterations =  4.4

     negative rho (up, down):  1.744E-02 0.000E+00

     add environment contribution to local potential

     total cpu time spent up to now is      234.4 secs

     total energy              =    -421.01498899 Ry
     estimated scf accuracy    <       0.03657072 Ry
     electrostatic embedding   =      -0.02279711 Ry
     cavitation energy         =       0.01831241 Ry
     electrolyte free energy   =      -0.00158905 Ry
     correction to one-el term =      -2.42289158 Ry

     iteration # 13     ecut=    80.00 Ry     beta= 0.20
     Davidson diagonalization with overlap

---- Real-time Memory Report at c_bands before calling an iterative solver
           826 MiB given to the printing process from OS
             0 MiB allocation reported by mallinfo(arena+hblkhd)
        626284 MiB available memory on the node where the printing process lives
------------------
     ethr =  1.80E-05,  avg # of iterations =  6.6

     negative rho (up, down):  5.209E-02 0.000E+00

     add environment contribution to local potential

     total cpu time spent up to now is      251.9 secs

     total energy              =    -421.01808397 Ry
     estimated scf accuracy    <       0.01365350 Ry
     electrostatic embedding   =      -0.02638470 Ry
     cavitation energy         =       0.01831241 Ry
     electrolyte free energy   =      -0.00098771 Ry
     correction to one-el term =      -2.52355219 Ry

     iteration # 14     ecut=    80.00 Ry     beta= 0.20
     Davidson diagonalization with overlap

---- Real-time Memory Report at c_bands before calling an iterative solver
           838 MiB given to the printing process from OS
             0 MiB allocation reported by mallinfo(arena+hblkhd)
        626230 MiB available memory on the node where the printing process lives
------------------
     ethr =  1.63E-05,  avg # of iterations =  3.1

     negative rho (up, down):  4.945E-02 0.000E+00

     add environment contribution to local potential

     total cpu time spent up to now is      267.0 secs

     total energy              =    -421.02042972 Ry
     estimated scf accuracy    <       0.01393335 Ry
     electrostatic embedding   =      -0.02665007 Ry
     cavitation energy         =       0.01831241 Ry
     electrolyte free energy   =      -0.00111504 Ry
     correction to one-el term =      -1.35444727 Ry

     iteration # 15     ecut=    80.00 Ry     beta= 0.20
     Davidson diagonalization with overlap

---- Real-time Memory Report at c_bands before calling an iterative solver
           848 MiB given to the printing process from OS
             0 MiB allocation reported by mallinfo(arena+hblkhd)
        626193 MiB available memory on the node where the printing process lives
------------------
     ethr =  1.63E-05,  avg # of iterations =  5.9

     negative rho (up, down):  5.305E-02 0.000E+00

     add environment contribution to local potential

     total cpu time spent up to now is      283.3 secs

     total energy              =    -421.01543435 Ry
     estimated scf accuracy    <       0.01790040 Ry
     electrostatic embedding   =      -0.02693960 Ry
     cavitation energy         =       0.01831241 Ry
     electrolyte free energy   =      -0.00101360 Ry
     correction to one-el term =      -0.96440744 Ry

     iteration # 16     ecut=    80.00 Ry     beta= 0.20
     Davidson diagonalization with overlap

---- Real-time Memory Report at c_bands before calling an iterative solver
           856 MiB given to the printing process from OS
             0 MiB allocation reported by mallinfo(arena+hblkhd)
        626160 MiB available memory on the node where the printing process lives
------------------
     ethr =  1.63E-05,  avg # of iterations =  7.6

     negative rho (up, down):  4.518E-02 0.000E+00

     add environment contribution to local potential

     total cpu time spent up to now is      302.4 secs

     total energy              =    -421.01952516 Ry
     estimated scf accuracy    <       0.03268748 Ry
     electrostatic embedding   =      -0.03328209 Ry
     cavitation energy         =       0.01831241 Ry
     electrolyte free energy   =      -0.00088188 Ry
     correction to one-el term =       0.26530550 Ry

     iteration # 17     ecut=    80.00 Ry     beta= 0.20
     Davidson diagonalization with overlap

---- Real-time Memory Report at c_bands before calling an iterative solver
           864 MiB given to the printing process from OS
             0 MiB allocation reported by mallinfo(arena+hblkhd)
        626124 MiB available memory on the node where the printing process lives
------------------
     ethr =  1.63E-05,  avg # of iterations =  7.6

     negative rho (up, down):  2.392E-02 0.000E+00

     add environment contribution to local potential

     total cpu time spent up to now is      319.6 secs

     total energy              =    -421.01502148 Ry
     estimated scf accuracy    <       0.03427020 Ry
     electrostatic embedding   =      -0.03307384 Ry
     cavitation energy         =       0.01831241 Ry
     electrolyte free energy   =      -0.00131337 Ry
     correction to one-el term =      -0.03449695 Ry

     iteration # 18     ecut=    80.00 Ry     beta= 0.20
     Davidson diagonalization with overlap

---- Real-time Memory Report at c_bands before calling an iterative solver
           872 MiB given to the printing process from OS
             0 MiB allocation reported by mallinfo(arena+hblkhd)
        626070 MiB available memory on the node where the printing process lives
------------------
     ethr =  1.63E-05,  avg # of iterations =  8.1

     negative rho (up, down):  2.255E-02 0.000E+00

     add environment contribution to local potential

     total cpu time spent up to now is      338.6 secs

     total energy              =    -421.01871757 Ry
     estimated scf accuracy    <       0.03958142 Ry
     electrostatic embedding   =      -0.03091467 Ry
     cavitation energy         =       0.01831241 Ry
     electrolyte free energy   =      -0.00126818 Ry
     correction to one-el term =       1.08220811 Ry

     iteration # 19     ecut=    80.00 Ry     beta= 0.20
     Davidson diagonalization with overlap

---- Real-time Memory Report at c_bands before calling an iterative solver
           878 MiB given to the printing process from OS
             0 MiB allocation reported by mallinfo(arena+hblkhd)
        626028 MiB available memory on the node where the printing process lives
------------------
     ethr =  1.63E-05,  avg # of iterations =  3.4

     negative rho (up, down):  2.231E-02 0.000E+00

     add environment contribution to local potential

     total cpu time spent up to now is      353.9 secs

     total energy              =    -421.01943261 Ry
     estimated scf accuracy    <       0.00361798 Ry
     electrostatic embedding   =      -0.03195273 Ry
     cavitation energy         =       0.01831241 Ry
     electrolyte free energy   =      -0.00102572 Ry
     correction to one-el term =       0.73284371 Ry

     iteration # 20     ecut=    80.00 Ry     beta= 0.20
     Davidson diagonalization with overlap

---- Real-time Memory Report at c_bands before calling an iterative solver
           885 MiB given to the printing process from OS
             0 MiB allocation reported by mallinfo(arena+hblkhd)
        625997 MiB available memory on the node where the printing process lives
------------------
     c_bands:  1 eigenvalues not converged
     ethr =  4.31E-06,  avg # of iterations = 11.0

     negative rho (up, down):  2.517E-02 0.000E+00

     add environment contribution to local potential

     total cpu time spent up to now is      375.5 secs

     total energy              =    -421.01944625 Ry
     estimated scf accuracy    <       0.01168347 Ry
     electrostatic embedding   =      -0.03334452 Ry
     cavitation energy         =       0.01831241 Ry
     electrolyte free energy   =      -0.00113992 Ry
     correction to one-el term =       1.66622585 Ry

     iteration # 21     ecut=    80.00 Ry     beta= 0.20
     Davidson diagonalization with overlap

---- Real-time Memory Report at c_bands before calling an iterative solver
           892 MiB given to the printing process from OS
             0 MiB allocation reported by mallinfo(arena+hblkhd)
        625966 MiB available memory on the node where the printing process lives
------------------
     c_bands:  1 eigenvalues not converged
     ethr =  4.31E-06,  avg # of iterations =  9.0

     negative rho (up, down):  1.226E-02 0.000E+00

     add environment contribution to local potential

     total cpu time spent up to now is      395.1 secs

     total energy              =    -421.02031548 Ry
     estimated scf accuracy    <       0.00171279 Ry
     electrostatic embedding   =      -0.03201904 Ry
     cavitation energy         =       0.01831241 Ry
     electrolyte free energy   =      -0.00108680 Ry
     correction to one-el term =       2.80463545 Ry

     iteration # 22     ecut=    80.00 Ry     beta= 0.20
     Davidson diagonalization with overlap

---- Real-time Memory Report at c_bands before calling an iterative solver
           897 MiB given to the printing process from OS
             0 MiB allocation reported by mallinfo(arena+hblkhd)
        625916 MiB available memory on the node where the printing process lives
------------------
     c_bands:  1 eigenvalues not converged
     ethr =  2.04E-06,  avg # of iterations =  7.3

     negative rho (up, down):  1.165E-02 0.000E+00

     add environment contribution to local potential

     total cpu time spent up to now is      413.5 secs

     total energy              =    -421.02055640 Ry
     estimated scf accuracy    <       0.00254925 Ry
     electrostatic embedding   =      -0.03226868 Ry
     cavitation energy         =       0.01831241 Ry
     electrolyte free energy   =      -0.00087761 Ry
     correction to one-el term =       3.78344088 Ry

     iteration # 23     ecut=    80.00 Ry     beta= 0.20
     Davidson diagonalization with overlap

---- Real-time Memory Report at c_bands before calling an iterative solver
           904 MiB given to the printing process from OS
             0 MiB allocation reported by mallinfo(arena+hblkhd)
        625891 MiB available memory on the node where the printing process lives
------------------
     c_bands:  1 eigenvalues not converged
     c_bands:  1 eigenvalues not converged
     c_bands:  1 eigenvalues not converged
     c_bands:  1 eigenvalues not converged
     ethr =  2.04E-06,  avg # of iterations = 11.7

     negative rho (up, down):  1.030E-02 0.000E+00

     add environment contribution to local potential

     total cpu time spent up to now is      434.4 secs

     total energy              =    -421.02116656 Ry
     estimated scf accuracy    <       0.00047251 Ry
     electrostatic embedding   =      -0.02985750 Ry
     cavitation energy         =       0.01831241 Ry
     electrolyte free energy   =      -0.00095990 Ry
     correction to one-el term =       4.10785192 Ry

     iteration # 24     ecut=    80.00 Ry     beta= 0.20
     Davidson diagonalization with overlap

---- Real-time Memory Report at c_bands before calling an iterative solver
           908 MiB given to the printing process from OS
             0 MiB allocation reported by mallinfo(arena+hblkhd)
        625873 MiB available memory on the node where the printing process lives
------------------
     c_bands:  1 eigenvalues not converged
     c_bands:  1 eigenvalues not converged
     c_bands:  1 eigenvalues not converged
     c_bands:  1 eigenvalues not converged
     c_bands:  1 eigenvalues not converged
     c_bands:  1 eigenvalues not converged
     ethr =  5.63E-07,  avg # of iterations =  7.8

     negative rho (up, down):  5.929E-03 0.000E+00

     add environment contribution to local potential

     total cpu time spent up to now is      451.8 secs

     total energy              =    -421.02137580 Ry
     estimated scf accuracy    <       0.00022986 Ry
     electrostatic embedding   =      -0.02889124 Ry
     cavitation energy         =       0.01831241 Ry
     electrolyte free energy   =      -0.00097926 Ry
     correction to one-el term =       4.08017496 Ry

     iteration # 25     ecut=    80.00 Ry     beta= 0.20
     Davidson diagonalization with overlap

---- Real-time Memory Report at c_bands before calling an iterative solver
           915 MiB given to the printing process from OS
             0 MiB allocation reported by mallinfo(arena+hblkhd)
        625839 MiB available memory on the node where the printing process lives
------------------
     c_bands:  1 eigenvalues not converged
     c_bands:  1 eigenvalues not converged
     c_bands:  1 eigenvalues not converged
     c_bands:  1 eigenvalues not converged
     c_bands:  1 eigenvalues not converged
     ethr =  2.74E-07,  avg # of iterations = 12.6

     negative rho (up, down):  5.132E-03 0.000E+00

     add environment contribution to local potential

     total cpu time spent up to now is      472.9 secs

     total energy              =    -421.02150585 Ry
     estimated scf accuracy    <       0.00014366 Ry
     electrostatic embedding   =      -0.02872055 Ry
     cavitation energy         =       0.01831241 Ry
     electrolyte free energy   =      -0.00094886 Ry
     correction to one-el term =       4.33808024 Ry

     iteration # 26     ecut=    80.00 Ry     beta= 0.20
     Davidson diagonalization with overlap

---- Real-time Memory Report at c_bands before calling an iterative solver
           920 MiB given to the printing process from OS
             0 MiB allocation reported by mallinfo(arena+hblkhd)
        625825 MiB available memory on the node where the printing process lives
------------------
     ethr =  1.71E-07,  avg # of iterations =  2.6

     negative rho (up, down):  3.552E-03 0.000E+00

     add environment contribution to local potential

     total cpu time spent up to now is      487.8 secs

     total energy              =    -421.02159943 Ry
     estimated scf accuracy    <       0.00009527 Ry
     electrostatic embedding   =      -0.02856634 Ry
     cavitation energy         =       0.01831241 Ry
     electrolyte free energy   =      -0.00096065 Ry
     correction to one-el term =       4.38096977 Ry

     iteration # 27     ecut=    80.00 Ry     beta= 0.20
     Davidson diagonalization with overlap

---- Real-time Memory Report at c_bands before calling an iterative solver
           923 MiB given to the printing process from OS
             0 MiB allocation reported by mallinfo(arena+hblkhd)
        625795 MiB available memory on the node where the printing process lives
------------------
     c_bands:  1 eigenvalues not converged
     c_bands:  1 eigenvalues not converged
     c_bands:  2 eigenvalues not converged
     c_bands:  1 eigenvalues not converged
     c_bands:  1 eigenvalues not converged
     c_bands:  1 eigenvalues not converged
     c_bands:  1 eigenvalues not converged
     c_bands:  1 eigenvalues not converged
     ethr =  1.13E-07,  avg # of iterations = 13.1

     negative rho (up, down):  2.976E-03 0.000E+00

     add environment contribution to local potential

     total cpu time spent up to now is      509.1 secs

     total energy              =    -421.02163795 Ry
     estimated scf accuracy    <       0.00008960 Ry
     electrostatic embedding   =      -0.02837061 Ry
     cavitation energy         =       0.01831241 Ry
     electrolyte free energy   =      -0.00094343 Ry
     correction to one-el term =       4.51334666 Ry

     iteration # 28     ecut=    80.00 Ry     beta= 0.20
     Davidson diagonalization with overlap

---- Real-time Memory Report at c_bands before calling an iterative solver
           927 MiB given to the printing process from OS
             0 MiB allocation reported by mallinfo(arena+hblkhd)
        625762 MiB available memory on the node where the printing process lives
------------------
     c_bands:  1 eigenvalues not converged
     ethr =  1.07E-07,  avg # of iterations =  5.2

     negative rho (up, down):  1.728E-03 0.000E+00

     add environment contribution to local potential

     total cpu time spent up to now is      525.5 secs

     total energy              =    -421.02168140 Ry
     estimated scf accuracy    <       0.00002960 Ry
     electrostatic embedding   =      -0.02804887 Ry
     cavitation energy         =       0.01831241 Ry
     electrolyte free energy   =      -0.00095922 Ry
     correction to one-el term =       4.47831575 Ry

     iteration # 29     ecut=    80.00 Ry     beta= 0.20
     Davidson diagonalization with overlap

---- Real-time Memory Report at c_bands before calling an iterative solver
           930 MiB given to the printing process from OS
             0 MiB allocation reported by mallinfo(arena+hblkhd)
        625742 MiB available memory on the node where the printing process lives
------------------
     c_bands:  1 eigenvalues not converged
     c_bands:  1 eigenvalues not converged
     c_bands:  1 eigenvalues not converged
     c_bands:  2 eigenvalues not converged
     ethr =  3.52E-08,  avg # of iterations =  9.4

     negative rho (up, down):  2.140E-03 0.000E+00

     add environment contribution to local potential

     total cpu time spent up to now is      544.4 secs

     total energy              =    -421.02168986 Ry
     estimated scf accuracy    <       0.00002180 Ry
     electrostatic embedding   =      -0.02802224 Ry
     cavitation energy         =       0.01831241 Ry
     electrolyte free energy   =      -0.00097137 Ry
     correction to one-el term =       4.49347323 Ry

     iteration # 30     ecut=    80.00 Ry     beta= 0.20
     Davidson diagonalization with overlap

---- Real-time Memory Report at c_bands before calling an iterative solver
           932 MiB given to the printing process from OS
             0 MiB allocation reported by mallinfo(arena+hblkhd)
        625716 MiB available memory on the node where the printing process lives
------------------
     c_bands:  1 eigenvalues not converged
     c_bands:  2 eigenvalues not converged
     c_bands:  2 eigenvalues not converged
     c_bands:  1 eigenvalues not converged
     c_bands:  1 eigenvalues not converged
     c_bands:  1 eigenvalues not converged
     c_bands:  1 eigenvalues not converged
     c_bands:  1 eigenvalues not converged
     ethr =  2.59E-08,  avg # of iterations = 11.1

     negative rho (up, down):  1.321E-03 0.000E+00

     add environment contribution to local potential

     total cpu time spent up to now is      565.6 secs

     total energy              =    -421.02169833 Ry
     estimated scf accuracy    <       0.00001094 Ry
     electrostatic embedding   =      -0.02731600 Ry
     cavitation energy         =       0.01831241 Ry
     electrolyte free energy   =      -0.00095857 Ry
     correction to one-el term =       4.47749231 Ry

     iteration # 31     ecut=    80.00 Ry     beta= 0.20
     Davidson diagonalization with overlap

---- Real-time Memory Report at c_bands before calling an iterative solver
           934 MiB given to the printing process from OS
             0 MiB allocation reported by mallinfo(arena+hblkhd)
        625702 MiB available memory on the node where the printing process lives
------------------
     c_bands:  1 eigenvalues not converged
     c_bands:  1 eigenvalues not converged
     c_bands:  1 eigenvalues not converged
     ethr =  1.30E-08,  avg # of iterations =  4.4

     negative rho (up, down):  1.130E-03 0.000E+00

     add environment contribution to local potential

     total cpu time spent up to now is      581.5 secs

     total energy              =    -421.02170096 Ry
     estimated scf accuracy    <       0.00000128 Ry
     electrostatic embedding   =      -0.02719040 Ry
     cavitation energy         =       0.01831241 Ry
     electrolyte free energy   =      -0.00095833 Ry
     correction to one-el term =       4.45628869 Ry

     iteration # 32     ecut=    80.00 Ry     beta= 0.20
     Davidson diagonalization with overlap

---- Real-time Memory Report at c_bands before calling an iterative solver
           937 MiB given to the printing process from OS
             0 MiB allocation reported by mallinfo(arena+hblkhd)
        625683 MiB available memory on the node where the printing process lives
------------------
     ethr =  1.53E-09,  avg # of iterations =  5.0

     negative rho (up, down):  7.572E-04 0.000E+00

     add environment contribution to local potential

     total cpu time spent up to now is      600.3 secs

     total energy              =    -421.02170327 Ry
     estimated scf accuracy    <       0.00000073 Ry
     electrostatic embedding   =      -0.02712924 Ry
     cavitation energy         =       0.01831241 Ry
     electrolyte free energy   =      -0.00095649 Ry
     correction to one-el term =       4.47913634 Ry

     iteration # 33     ecut=    80.00 Ry     beta= 0.20
     Davidson diagonalization with overlap

---- Real-time Memory Report at c_bands before calling an iterative solver
           940 MiB given to the printing process from OS
             0 MiB allocation reported by mallinfo(arena+hblkhd)
        625652 MiB available memory on the node where the printing process lives
------------------
     c_bands:  2 eigenvalues not converged
     c_bands:  1 eigenvalues not converged
     c_bands:  1 eigenvalues not converged
     ethr =  8.66E-10,  avg # of iterations =  7.4

     negative rho (up, down):  4.804E-04 0.000E+00

     add environment contribution to local potential

     total cpu time spent up to now is      617.6 secs

     total energy              =    -421.02170470 Ry
     estimated scf accuracy    <       0.00000041 Ry
     electrostatic embedding   =      -0.02709657 Ry
     cavitation energy         =       0.01831241 Ry
     electrolyte free energy   =      -0.00095753 Ry
     correction to one-el term =       4.49424260 Ry

     iteration # 34     ecut=    80.00 Ry     beta= 0.20
     Davidson diagonalization with overlap

---- Real-time Memory Report at c_bands before calling an iterative solver
           942 MiB given to the printing process from OS
             0 MiB allocation reported by mallinfo(arena+hblkhd)
        625635 MiB available memory on the node where the printing process lives
------------------
     c_bands:  2 eigenvalues not converged
     ethr =  4.92E-10,  avg # of iterations =  7.0

     negative rho (up, down):  3.081E-04 0.000E+00

     add environment contribution to local potential

     total cpu time spent up to now is      634.8 secs

     total energy              =    -421.02170493 Ry
     estimated scf accuracy    <       0.00000025 Ry
     electrostatic embedding   =      -0.02706517 Ry
     cavitation energy         =       0.01831241 Ry
     electrolyte free energy   =      -0.00095792 Ry
     correction to one-el term =       4.49150292 Ry

     iteration # 35     ecut=    80.00 Ry     beta= 0.20
     Davidson diagonalization with overlap

---- Real-time Memory Report at c_bands before calling an iterative solver
           944 MiB given to the printing process from OS
             0 MiB allocation reported by mallinfo(arena+hblkhd)
        625612 MiB available memory on the node where the printing process lives
------------------
     c_bands:  1 eigenvalues not converged
     c_bands:  1 eigenvalues not converged
     c_bands:  1 eigenvalues not converged
     c_bands:  2 eigenvalues not converged
     ethr =  2.97E-10,  avg # of iterations =  7.1

     negative rho (up, down):  3.050E-04 0.000E+00

     add environment contribution to local potential

     total cpu time spent up to now is      651.9 secs

     total energy              =    -421.02170506 Ry
     estimated scf accuracy    <       0.00000012 Ry
     electrostatic embedding   =      -0.02707441 Ry
     cavitation energy         =       0.01831241 Ry
     electrolyte free energy   =      -0.00095840 Ry
     correction to one-el term =       4.48492508 Ry

     iteration # 36     ecut=    80.00 Ry     beta= 0.20
     Davidson diagonalization with overlap

---- Real-time Memory Report at c_bands before calling an iterative solver
           946 MiB given to the printing process from OS
             0 MiB allocation reported by mallinfo(arena+hblkhd)
        625640 MiB available memory on the node where the printing process lives
------------------
     c_bands:  1 eigenvalues not converged
     ethr =  1.42E-10,  avg # of iterations =  4.2

     negative rho (up, down):  3.170E-04 0.000E+00

     add environment contribution to local potential

     total cpu time spent up to now is      668.7 secs

     total energy              =    -421.02170521 Ry
     estimated scf accuracy    <       0.00000006 Ry
     electrostatic embedding   =      -0.02707629 Ry
     cavitation energy         =       0.01831241 Ry
     electrolyte free energy   =      -0.00095712 Ry
     correction to one-el term =       4.48362359 Ry

     iteration # 37     ecut=    80.00 Ry     beta= 0.20
     Davidson diagonalization with overlap

---- Real-time Memory Report at c_bands before calling an iterative solver
           948 MiB given to the printing process from OS
             0 MiB allocation reported by mallinfo(arena+hblkhd)
        625594 MiB available memory on the node where the printing process lives
------------------
     ethr =  6.70E-11,  avg # of iterations =  3.1

     negative rho (up, down):  3.355E-04 0.000E+00

     add environment contribution to local potential

     total cpu time spent up to now is      684.5 secs

     total energy              =    -421.02170520 Ry
     estimated scf accuracy    <       0.00000004 Ry
     electrostatic embedding   =      -0.02707059 Ry
     cavitation energy         =       0.01831241 Ry
     electrolyte free energy   =      -0.00095693 Ry
     correction to one-el term =       4.48443365 Ry

     iteration # 38     ecut=    80.00 Ry     beta= 0.20
     Davidson diagonalization with overlap

---- Real-time Memory Report at c_bands before calling an iterative solver
           950 MiB given to the printing process from OS
             0 MiB allocation reported by mallinfo(arena+hblkhd)
        625576 MiB available memory on the node where the printing process lives
------------------
     ethr =  4.62E-11,  avg # of iterations =  2.4

     negative rho (up, down):  3.364E-04 0.000E+00

     add environment contribution to local potential

     total cpu time spent up to now is      699.7 secs

     total energy              =    -421.02170511 Ry
     estimated scf accuracy    <       0.00000002 Ry
     electrostatic embedding   =      -0.02706852 Ry
     cavitation energy         =       0.01831241 Ry
     electrolyte free energy   =      -0.00095715 Ry
     correction to one-el term =       4.48600975 Ry

     iteration # 39     ecut=    80.00 Ry     beta= 0.20
     Davidson diagonalization with overlap

---- Real-time Memory Report at c_bands before calling an iterative solver
           952 MiB given to the printing process from OS
             0 MiB allocation reported by mallinfo(arena+hblkhd)
        625563 MiB available memory on the node where the printing process lives
------------------
     ethr =  2.86E-11,  avg # of iterations =  3.1

     negative rho (up, down):  3.204E-04 0.000E+00

     add environment contribution to local potential

     total cpu time spent up to now is      715.4 secs

     total energy              =    -421.02170508 Ry
     estimated scf accuracy    <       0.00000001 Ry
     electrostatic embedding   =      -0.02707024 Ry
     cavitation energy         =       0.01831241 Ry
     electrolyte free energy   =      -0.00095718 Ry
     correction to one-el term =       4.48697692 Ry

     iteration # 40     ecut=    80.00 Ry     beta= 0.20
     Davidson diagonalization with overlap

---- Real-time Memory Report at c_bands before calling an iterative solver
           954 MiB given to the printing process from OS
             0 MiB allocation reported by mallinfo(arena+hblkhd)
        625555 MiB available memory on the node where the printing process lives
------------------
     ethr =  1.48E-11,  avg # of iterations =  2.1

     negative rho (up, down):  3.217E-04 0.000E+00

     add environment contribution to local potential

     total cpu time spent up to now is      730.6 secs

     total energy              =    -421.02170519 Ry
     estimated scf accuracy    <          7.9E-09 Ry
     electrostatic embedding   =      -0.02706747 Ry
     cavitation energy         =       0.01831241 Ry
     electrolyte free energy   =      -0.00095695 Ry
     correction to one-el term =       4.48636819 Ry

     iteration # 41     ecut=    80.00 Ry     beta= 0.20
     Davidson diagonalization with overlap

---- Real-time Memory Report at c_bands before calling an iterative solver
           955 MiB given to the printing process from OS
             0 MiB allocation reported by mallinfo(arena+hblkhd)
        625543 MiB available memory on the node where the printing process lives
------------------
     ethr =  9.43E-12,  avg # of iterations =  3.8

     negative rho (up, down):  3.216E-04 0.000E+00

     add environment contribution to local potential

     total cpu time spent up to now is      746.7 secs

     total energy              =    -421.02170518 Ry
     estimated scf accuracy    <          4.1E-09 Ry
     electrostatic embedding   =      -0.02706521 Ry
     cavitation energy         =       0.01831241 Ry
     electrolyte free energy   =      -0.00095707 Ry
     correction to one-el term =       4.48569426 Ry

     iteration # 42     ecut=    80.00 Ry     beta= 0.20
     Davidson diagonalization with overlap

---- Real-time Memory Report at c_bands before calling an iterative solver
           956 MiB given to the printing process from OS
             0 MiB allocation reported by mallinfo(arena+hblkhd)
        625538 MiB available memory on the node where the printing process lives
------------------
     ethr =  4.87E-12,  avg # of iterations =  2.3

     negative rho (up, down):  3.184E-04 0.000E+00

     add environment contribution to local potential

     total cpu time spent up to now is      762.0 secs

     total energy              =    -421.02170510 Ry
     estimated scf accuracy    <          3.2E-09 Ry
     electrostatic embedding   =      -0.02706459 Ry
     cavitation energy         =       0.01831241 Ry
     electrolyte free energy   =      -0.00095710 Ry
     correction to one-el term =       4.48547352 Ry

     iteration # 43     ecut=    80.00 Ry     beta= 0.20
     Davidson diagonalization with overlap

---- Real-time Memory Report at c_bands before calling an iterative solver
           958 MiB given to the printing process from OS
             0 MiB allocation reported by mallinfo(arena+hblkhd)
        625526 MiB available memory on the node where the printing process lives
------------------
     ethr =  3.76E-12,  avg # of iterations =  3.9

     negative rho (up, down):  3.173E-04 0.000E+00

     add environment contribution to local potential

     total cpu time spent up to now is      778.4 secs

     total energy              =    -421.02170511 Ry
     estimated scf accuracy    <          1.2E-09 Ry
     electrostatic embedding   =      -0.02705912 Ry
     cavitation energy         =       0.01831241 Ry
     electrolyte free energy   =      -0.00095703 Ry
     correction to one-el term =       4.48538057 Ry

     iteration # 44     ecut=    80.00 Ry     beta= 0.20
     Davidson diagonalization with overlap

---- Real-time Memory Report at c_bands before calling an iterative solver
           959 MiB given to the printing process from OS
             0 MiB allocation reported by mallinfo(arena+hblkhd)
        625511 MiB available memory on the node where the printing process lives
------------------
     ethr =  1.39E-12,  avg # of iterations =  4.3

     negative rho (up, down):  3.108E-04 0.000E+00

     add environment contribution to local potential

     total cpu time spent up to now is      796.6 secs

     total energy              =    -421.02170513 Ry
     estimated scf accuracy    <          9.2E-10 Ry
     electrostatic embedding   =      -0.02705973 Ry
     cavitation energy         =       0.01831241 Ry
     electrolyte free energy   =      -0.00095698 Ry
     correction to one-el term =       4.48529971 Ry

     iteration # 45     ecut=    80.00 Ry     beta= 0.20
     Davidson diagonalization with overlap

---- Real-time Memory Report at c_bands before calling an iterative solver
           961 MiB given to the printing process from OS
             0 MiB allocation reported by mallinfo(arena+hblkhd)
        625501 MiB available memory on the node where the printing process lives
------------------
     ethr =  1.10E-12,  avg # of iterations =  3.7

     negative rho (up, down):  3.099E-04 0.000E+00

     add environment contribution to local potential

     total cpu time spent up to now is      812.4 secs

     total energy              =    -421.02170514 Ry
     estimated scf accuracy    <          5.8E-10 Ry
     electrostatic embedding   =      -0.02706047 Ry
     cavitation energy         =       0.01831241 Ry
     electrolyte free energy   =      -0.00095696 Ry
     correction to one-el term =       4.48498235 Ry

     iteration # 46     ecut=    80.00 Ry     beta= 0.20
     Davidson diagonalization with overlap

---- Real-time Memory Report at c_bands before calling an iterative solver
           961 MiB given to the printing process from OS
             0 MiB allocation reported by mallinfo(arena+hblkhd)
        625487 MiB available memory on the node where the printing process lives
------------------
     ethr =  6.85E-13,  avg # of iterations =  1.5

     negative rho (up, down):  3.078E-04 0.000E+00

     add environment contribution to local potential

     total cpu time spent up to now is      826.6 secs

     total energy              =    -421.02170514 Ry
     estimated scf accuracy    <          4.8E-10 Ry
     electrostatic embedding   =      -0.02706042 Ry
     cavitation energy         =       0.01831241 Ry
     electrolyte free energy   =      -0.00095694 Ry
     correction to one-el term =       4.48487601 Ry

     iteration # 47     ecut=    80.00 Ry     beta= 0.20
     Davidson diagonalization with overlap

---- Real-time Memory Report at c_bands before calling an iterative solver
           963 MiB given to the printing process from OS
             0 MiB allocation reported by mallinfo(arena+hblkhd)
        625477 MiB available memory on the node where the printing process lives
------------------
     ethr =  5.70E-13,  avg # of iterations =  2.0

     negative rho (up, down):  3.051E-04 0.000E+00

     add environment contribution to local potential

     total cpu time spent up to now is      841.5 secs

     total energy              =    -421.02170515 Ry
     estimated scf accuracy    <          2.7E-10 Ry
     electrostatic embedding   =      -0.02705999 Ry
     cavitation energy         =       0.01831241 Ry
     electrolyte free energy   =      -0.00095691 Ry
     correction to one-el term =       4.48449356 Ry

     iteration # 48     ecut=    80.00 Ry     beta= 0.20
     Davidson diagonalization with overlap

---- Real-time Memory Report at c_bands before calling an iterative solver
           964 MiB given to the printing process from OS
             0 MiB allocation reported by mallinfo(arena+hblkhd)
        625474 MiB available memory on the node where the printing process lives
------------------
     ethr =  3.23E-13,  avg # of iterations =  2.6

     negative rho (up, down):  3.046E-04 0.000E+00

     add environment contribution to local potential

     total cpu time spent up to now is      857.0 secs

     total energy              =    -421.02170515 Ry
     estimated scf accuracy    <          1.5E-10 Ry
     electrostatic embedding   =      -0.02705933 Ry
     cavitation energy         =       0.01831241 Ry
     electrolyte free energy   =      -0.00095690 Ry
     correction to one-el term =       4.48398403 Ry

     iteration # 49     ecut=    80.00 Ry     beta= 0.20
     Davidson diagonalization with overlap

---- Real-time Memory Report at c_bands before calling an iterative solver
           965 MiB given to the printing process from OS
             0 MiB allocation reported by mallinfo(arena+hblkhd)
        625458 MiB available memory on the node where the printing process lives
------------------
     ethr =  1.84E-13,  avg # of iterations =  1.9

     negative rho (up, down):  3.024E-04 0.000E+00

     add environment contribution to local potential

     total cpu time spent up to now is      871.6 secs

     total energy              =    -421.02170513 Ry
     estimated scf accuracy    <          1.2E-10 Ry
     electrostatic embedding   =      -0.02705956 Ry
     cavitation energy         =       0.01831241 Ry
     electrolyte free energy   =      -0.00095691 Ry
     correction to one-el term =       4.48388479 Ry

     iteration # 50     ecut=    80.00 Ry     beta= 0.20
     Davidson diagonalization with overlap

---- Real-time Memory Report at c_bands before calling an iterative solver
           966 MiB given to the printing process from OS
             0 MiB allocation reported by mallinfo(arena+hblkhd)
        625451 MiB available memory on the node where the printing process lives
------------------
     ethr =  1.44E-13,  avg # of iterations =  3.2

     negative rho (up, down):  3.015E-04 0.000E+00

     add environment contribution to local potential

     total cpu time spent up to now is      887.2 secs

     total energy              =    -421.02170513 Ry
     estimated scf accuracy    <          4.7E-11 Ry
     electrostatic embedding   =      -0.02705982 Ry
     cavitation energy         =       0.01831241 Ry
     electrolyte free energy   =      -0.00095694 Ry
     correction to one-el term =       4.48359207 Ry

     iteration # 51     ecut=    80.00 Ry     beta= 0.20
     Davidson diagonalization with overlap

---- Real-time Memory Report at c_bands before calling an iterative solver
           967 MiB given to the printing process from OS
             0 MiB allocation reported by mallinfo(arena+hblkhd)
        625441 MiB available memory on the node where the printing process lives
------------------
     ethr =  1.00E-13,  avg # of iterations =  2.0

     negative rho (up, down):  3.015E-04 0.000E+00

     add environment contribution to local potential

     total cpu time spent up to now is      901.9 secs

     total energy              =    -421.02170513 Ry
     estimated scf accuracy    <          2.2E-11 Ry
     electrostatic embedding   =      -0.02705995 Ry
     cavitation energy         =       0.01831241 Ry
     electrolyte free energy   =      -0.00095695 Ry
     correction to one-el term =       4.48351468 Ry

     iteration # 52     ecut=    80.00 Ry     beta= 0.20
     Davidson diagonalization with overlap

---- Real-time Memory Report at c_bands before calling an iterative solver
           969 MiB given to the printing process from OS
             0 MiB allocation reported by mallinfo(arena+hblkhd)
        625437 MiB available memory on the node where the printing process lives
------------------
     ethr =  1.00E-13,  avg # of iterations =  1.0

     negative rho (up, down):  3.019E-04 0.000E+00

     add environment contribution to local potential

     total cpu time spent up to now is      915.6 secs

     total energy              =    -421.02170514 Ry
     estimated scf accuracy    <          1.8E-11 Ry
     electrostatic embedding   =      -0.02706008 Ry
     cavitation energy         =       0.01831241 Ry
     electrolyte free energy   =      -0.00095695 Ry
     correction to one-el term =       4.48347934 Ry

     iteration # 53     ecut=    80.00 Ry     beta= 0.20
     Davidson diagonalization with overlap

---- Real-time Memory Report at c_bands before calling an iterative solver
           969 MiB given to the printing process from OS
             0 MiB allocation reported by mallinfo(arena+hblkhd)
        625425 MiB available memory on the node where the printing process lives
------------------
     ethr =  1.00E-13,  avg # of iterations =  1.9

     negative rho (up, down):  3.019E-04 0.000E+00

     add environment contribution to local potential

     total cpu time spent up to now is      930.0 secs

     total energy              =    -421.02170514 Ry
     estimated scf accuracy    <          1.1E-11 Ry
     electrostatic embedding   =      -0.02706008 Ry
     cavitation energy         =       0.01831241 Ry
     electrolyte free energy   =      -0.00095695 Ry
     correction to one-el term =       4.48343447 Ry

     iteration # 54     ecut=    80.00 Ry     beta= 0.20
     Davidson diagonalization with overlap

---- Real-time Memory Report at c_bands before calling an iterative solver
           970 MiB given to the printing process from OS
             0 MiB allocation reported by mallinfo(arena+hblkhd)
        625421 MiB available memory on the node where the printing process lives
------------------
     ethr =  1.00E-13,  avg # of iterations =  1.0

     negative rho (up, down):  3.021E-04 0.000E+00

     add environment contribution to local potential

     total cpu time spent up to now is      943.6 secs

     total energy              =    -421.02170514 Ry
     estimated scf accuracy    <          9.3E-12 Ry
     electrostatic embedding   =      -0.02706015 Ry
     cavitation energy         =       0.01831241 Ry
     electrolyte free energy   =      -0.00095696 Ry
     correction to one-el term =       4.48343408 Ry

     iteration # 55     ecut=    80.00 Ry     beta= 0.20
     Davidson diagonalization with overlap

---- Real-time Memory Report at c_bands before calling an iterative solver
           972 MiB given to the printing process from OS
             0 MiB allocation reported by mallinfo(arena+hblkhd)
        625411 MiB available memory on the node where the printing process lives
------------------
     ethr =  1.00E-13,  avg # of iterations =  1.9

     negative rho (up, down):  3.021E-04 0.000E+00

     add environment contribution to local potential

     total cpu time spent up to now is      957.9 secs

     total energy              =    -421.02170513 Ry
     estimated scf accuracy    <          4.5E-12 Ry
     electrostatic embedding   =      -0.02706021 Ry
     cavitation energy         =       0.01831241 Ry
     electrolyte free energy   =      -0.00095696 Ry
     correction to one-el term =       4.48343372 Ry

     iteration # 56     ecut=    80.00 Ry     beta= 0.20
     Davidson diagonalization with overlap

---- Real-time Memory Report at c_bands before calling an iterative solver
           972 MiB given to the printing process from OS
             0 MiB allocation reported by mallinfo(arena+hblkhd)
        625407 MiB available memory on the node where the printing process lives
------------------
     ethr =  1.00E-13,  avg # of iterations =  1.0

     negative rho (up, down):  3.022E-04 0.000E+00

     add environment contribution to local potential

     total cpu time spent up to now is      971.8 secs

     total energy              =    -421.02170513 Ry
     estimated scf accuracy    <          3.0E-12 Ry
     electrostatic embedding   =      -0.02706023 Ry
     cavitation energy         =       0.01831241 Ry
     electrolyte free energy   =      -0.00095697 Ry
     correction to one-el term =       4.48342662 Ry

     iteration # 57     ecut=    80.00 Ry     beta= 0.20
     Davidson diagonalization with overlap

---- Real-time Memory Report at c_bands before calling an iterative solver
           973 MiB given to the printing process from OS
             0 MiB allocation reported by mallinfo(arena+hblkhd)
        625401 MiB available memory on the node where the printing process lives
------------------
     ethr =  1.00E-13,  avg # of iterations =  1.0

     negative rho (up, down):  3.023E-04 0.000E+00

     add environment contribution to local potential

     total cpu time spent up to now is      985.5 secs

     total energy              =    -421.02170513 Ry
     estimated scf accuracy    <          2.0E-12 Ry
     electrostatic embedding   =      -0.02706024 Ry
     cavitation energy         =       0.01831241 Ry
     electrolyte free energy   =      -0.00095697 Ry
     correction to one-el term =       4.48345049 Ry

     iteration # 58     ecut=    80.00 Ry     beta= 0.20
     Davidson diagonalization with overlap

---- Real-time Memory Report at c_bands before calling an iterative solver
           975 MiB given to the printing process from OS
             0 MiB allocation reported by mallinfo(arena+hblkhd)
        625397 MiB available memory on the node where the printing process lives
------------------
     ethr =  1.00E-13,  avg # of iterations =  1.0

     negative rho (up, down):  3.022E-04 0.000E+00

     add environment contribution to local potential

     total cpu time spent up to now is      999.5 secs

     total energy              =    -421.02170513 Ry
     estimated scf accuracy    <          1.4E-12 Ry
     electrostatic embedding   =      -0.02706023 Ry
     cavitation energy         =       0.01831241 Ry
     electrolyte free energy   =      -0.00095697 Ry
     correction to one-el term =       4.48346349 Ry

     iteration # 59     ecut=    80.00 Ry     beta= 0.20
     Davidson diagonalization with overlap

---- Real-time Memory Report at c_bands before calling an iterative solver
           975 MiB given to the printing process from OS
             0 MiB allocation reported by mallinfo(arena+hblkhd)
        625390 MiB available memory on the node where the printing process lives
------------------
     ethr =  1.00E-13,  avg # of iterations =  1.0

     negative rho (up, down):  3.022E-04 0.000E+00

     add environment contribution to local potential

     total cpu time spent up to now is     1013.1 secs

     total energy              =    -421.02170513 Ry
     estimated scf accuracy    <          2.3E-13 Ry
     electrostatic embedding   =      -0.02706017 Ry
     cavitation energy         =       0.01831241 Ry
     electrolyte free energy   =      -0.00095697 Ry
     correction to one-el term =       4.48346309 Ry

     iteration # 60     ecut=    80.00 Ry     beta= 0.20
     Davidson diagonalization with overlap

---- Real-time Memory Report at c_bands before calling an iterative solver
           977 MiB given to the printing process from OS
             0 MiB allocation reported by mallinfo(arena+hblkhd)
        625383 MiB available memory on the node where the printing process lives
------------------
     ethr =  1.00E-13,  avg # of iterations =  1.0
[...]
     atom   15 type  1   force =    -0.00015984    0.01889146    0.02057945
     atom   16 type  1   force =     0.00015919   -0.01889166   -0.02058023
     atom   17 type  1   force =     0.00002605    0.02060749    0.00246664
     atom   18 type  1   force =    -0.00020403   -0.00640341    0.01561635
     atom   19 type  1   force =    -0.00002045   -0.00123960   -0.00066975
     atom   20 type  1   force =    -0.00000930    0.00197270    0.00404402
     atom   21 type  1   force =     0.00001875   -0.00068600    0.00252336
     atom   22 type  1   force =    -0.00000084   -0.00026025    0.00023375
     atom   23 type  1   force =     0.00000083    0.00026023   -0.00023476
     atom   24 type  1   force =    -0.00001871    0.00068600   -0.00252431
     atom   25 type  1   force =     0.00000932   -0.00197268   -0.00404490
     atom   26 type  1   force =     0.00002050    0.00123951    0.00066891
     atom   27 type  1   force =     0.00020400    0.00640304   -0.01561723
     atom   28 type  1   force =    -0.00002659   -0.02060752   -0.00246748
 

     Forces acting on atoms (cartesian axes, Ry/au):

     atom    1 type  1   force =    -0.00000622   -0.00000010    0.00000504
     atom    2 type  1   force =     0.00001427    0.00000023   -0.00000568
     atom    3 type  1   force =     0.00000028    0.00003067    0.00001017
     atom    4 type  1   force =     0.00002923   -0.00000900    0.00002143
     atom    5 type  1   force =     0.00001230   -0.00003292   -0.00000128
     atom    6 type  1   force =     0.00000098   -0.00003423   -0.00000527
     atom    7 type  1   force =     0.00002588    0.00000403    0.00001213
     atom    8 type  1   force =     0.00001395    0.00000084   -0.00000577
     atom    9 type  1   force =    -0.00001354   -0.00000039    0.00000729
     atom   10 type  1   force =    -0.00002689   -0.00000400   -0.00001274
     atom   11 type  1   force =    -0.00000231    0.00003342    0.00000418
     atom   12 type  1   force =    -0.00001009    0.00003493   -0.00000077
     atom   13 type  1   force =    -0.00003032    0.00000537   -0.00002286
     atom   14 type  1   force =    -0.00000562   -0.00003040   -0.00001078
     atom   15 type  1   force =    -0.00000270   -0.00000005    0.00000477
     atom   16 type  1   force =    -0.00000534   -0.00000012   -0.00000411
     atom   17 type  1   force =     0.00000953    0.00003032    0.00001109
     atom   18 type  1   force =     0.00003100   -0.00000286    0.00002388
     atom   19 type  1   force =     0.00000865   -0.00003641    0.00000220
     atom   20 type  1   force =     0.00000444   -0.00003208   -0.00000326
     atom   21 type  1   force =     0.00002680    0.00000384    0.00001262
     atom   22 type  1   force =     0.00001398    0.00000029   -0.00000855
     atom   23 type  1   force =    -0.00001428   -0.00000065    0.00000694
     atom   24 type  1   force =    -0.00002591   -0.00000384   -0.00001195
     atom   25 type  1   force =    -0.00000310    0.00003279    0.00000453
     atom   26 type  1   force =    -0.00001101    0.00003452   -0.00000029
     atom   27 type  1   force =    -0.00002989    0.00000628   -0.00002256
     atom   28 type  1   force =    -0.00000409   -0.00003048   -0.00001040
     The non-local contrib.  to forces
     atom    1 type  1   force =     0.00097330   -0.01002009    0.08213123
     atom    2 type  1   force =    -0.00096435    0.01001935   -0.08213073
     atom    3 type  1   force =     0.00015893   -0.01480110   -0.05021470
     atom    4 type  1   force =     0.00141545    0.00307667   -0.00891684
     atom    5 type  1   force =    -0.00046006   -0.00248701   -0.00057836
     atom    6 type  1   force =     0.00034780    0.00081751    0.00227836
     atom    7 type  1   force =    -0.00086743   -0.00071066    0.00142933
     atom    8 type  1   force =     0.00014874    0.00020520   -0.00021396
     atom    9 type  1   force =    -0.00014808   -0.00020478    0.00021554
     atom   10 type  1   force =     0.00086609    0.00071075   -0.00142960
     atom   11 type  1   force =    -0.00034997   -0.00081821   -0.00227928
     atom   12 type  1   force =     0.00046107    0.00248887    0.00057633
     atom   13 type  1   force =    -0.00141573   -0.00308149    0.00891464
     atom   14 type  1   force =    -0.00016331    0.01480231    0.05021247
     atom   15 type  1   force =     0.00097705   -0.01002038    0.08213117
     atom   16 type  1   force =    -0.00098630    0.01002114   -0.08213122
     atom   17 type  1   force =     0.00016675   -0.01480298   -0.05021161
     atom   18 type  1   force =     0.00141569    0.00308455   -0.00891283
     atom   19 type  1   force =    -0.00046157   -0.00249020   -0.00057525
     atom   20 type  1   force =     0.00035395    0.00081975    0.00228044
     atom   21 type  1   force =    -0.00086588   -0.00071077    0.00142948
     atom   22 type  1   force =     0.00014849    0.00020458   -0.00021622
     atom   23 type  1   force =    -0.00014909   -0.00020496    0.00021438
     atom   24 type  1   force =     0.00086757    0.00071074   -0.00142917
     atom   25 type  1   force =    -0.00035158   -0.00081892   -0.00227960
     atom   26 type  1   force =     0.00046065    0.00248847    0.00057677
     atom   27 type  1   force =    -0.00141546   -0.00308019    0.00891540
     atom   28 type  1   force =    -0.00016225    0.01480187    0.05021322
     The ionic contribution  to forces
     atom    1 type  1   force =    -0.00246258   -0.15600815   13.12383093
     atom    2 type  1   force =     0.00259531    0.15600273  -13.12382807
     atom    3 type  1   force =    -0.00067222   -0.28705942  -11.93107787
     atom    4 type  1   force =    -0.00387422    0.16999969   -9.68132986
     atom    5 type  1   force =     0.00266514   -0.03368360   -7.61961991
     atom    6 type  1   force =    -0.00086091   -0.01287807   -5.26504997
     atom    7 type  1   force =     0.00347614    0.01842849   -3.31124549
     atom    8 type  1   force =    -0.00136799   -0.01660603   -1.02729336
     atom    9 type  1   force =     0.00137964    0.01661387    1.02729038
     atom   10 type  1   force =    -0.00349958   -0.01843040    3.31126051
     atom   11 type  1   force =     0.00082186    0.01287130    5.26505082
     atom   12 type  1   force =    -0.00265002    0.03372462    7.61961188
     atom   13 type  1   force =     0.00386558   -0.17007927    9.68133137
     atom   14 type  1   force =     0.00059249    0.28708281   11.93106248
     atom   15 type  1   force =    -0.00240702   -0.15600875   13.12383141
     atom   16 type  1   force =     0.00227641    0.15600945  -13.12382860
     atom   17 type  1   force =    -0.00053406   -0.28709229  -11.93106594
     atom   18 type  1   force =    -0.00386199    0.17013465   -9.68131568
     atom   19 type  1   force =     0.00264405   -0.03375876   -7.61961449
     atom   20 type  1   force =    -0.00075821   -0.01284670   -5.26505420
     atom   21 type  1   force =     0.00350180    0.01842888   -3.31125526
     atom   22 type  1   force =    -0.00137187   -0.01662013   -1.02728183
     atom   23 type  1   force =     0.00136083    0.01661182    1.02727890
     atom   24 type  1   force =    -0.00348023   -0.01842986    3.31124960
     atom   25 type  1   force =     0.00079641    0.01285852    5.26504348
     atom   26 type  1   force =    -0.00265971    0.03371544    7.61961658
     atom   27 type  1   force =     0.00387110   -0.17005832    9.68133867
     atom   28 type  1   force =     0.00061385    0.28707746   11.93106351
     The local contribution  to forces
     atom    1 type  1   force =     0.00164317    0.14713672  -13.22653656
     atom    2 type  1   force =    -0.00177740   -0.14713032   13.22653313
     atom    3 type  1   force =     0.00048663    0.28128364   11.97883652
     atom    4 type  1   force =     0.00269200   -0.16668262    9.67465206
     atom    5 type  1   force =    -0.00217222    0.03737707    7.62086695
     atom    6 type  1   force =     0.00052349    0.01005369    5.25872241
     atom    7 type  1   force =    -0.00260151   -0.01702779    3.30730496
     atom    8 type  1   force =     0.00123407    0.01666188    1.02726772
     atom    9 type  1   force =    -0.00124593   -0.01666970   -1.02726391
     atom   10 type  1   force =     0.00262536    0.01702965   -3.30731930
     atom   11 type  1   force =    -0.00048353   -0.01004698   -5.25872245
     atom   12 type  1   force =     0.00215840   -0.03741812   -7.62085783
     atom   13 type  1   force =    -0.00268416    0.16676299   -9.67465161
     atom   14 type  1   force =    -0.00040835   -0.28130802  -11.97881816
     atom   15 type  1   force =     0.00158713    0.14713762  -13.22653724
     atom   16 type  1   force =    -0.00145461   -0.14713905   13.22653593
     atom   17 type  1   force =     0.00035082    0.28131810   11.97882201
     atom   18 type  1   force =     0.00268134   -0.16681864    9.67463606
     atom   19 type  1   force =    -0.00215336    0.03745217    7.62086170
     atom   20 type  1   force =     0.00041801    0.01002216    5.25872649
     atom   21 type  1   force =    -0.00262785   -0.01702827    3.30731505
     atom   22 type  1   force =     0.00123822    0.01667610    1.02725578
     atom   23 type  1   force =    -0.00122683   -0.01666774   -1.02725157
     atom   24 type  1   force =     0.00260548    0.01702928   -3.30730805
     atom   25 type  1   force =    -0.00045723   -0.01003413   -5.25871444
     atom   26 type  1   force =     0.00216756   -0.03740892   -7.62086254
     atom   27 type  1   force =    -0.00268951    0.16674176   -9.67465940
     atom   28 type  1   force =    -0.00042907   -0.28130229  -11.97881965
     The core correction contribution to forces
     atom    1 type  1   force =     0.00000000    0.00000000    0.00000000
     atom    2 type  1   force =     0.00000000    0.00000000    0.00000000
     atom    3 type  1   force =     0.00000000    0.00000000    0.00000000
     atom    4 type  1   force =     0.00000000    0.00000000    0.00000000
     atom    5 type  1   force =     0.00000000    0.00000000    0.00000000
     atom    6 type  1   force =     0.00000000    0.00000000    0.00000000
     atom    7 type  1   force =     0.00000000    0.00000000    0.00000000
     atom    8 type  1   force =     0.00000000    0.00000000    0.00000000
     atom    9 type  1   force =     0.00000000    0.00000000    0.00000000
     atom   10 type  1   force =     0.00000000    0.00000000    0.00000000
     atom   11 type  1   force =     0.00000000    0.00000000    0.00000000
     atom   12 type  1   force =     0.00000000    0.00000000    0.00000000
     atom   13 type  1   force =     0.00000000    0.00000000    0.00000000
     atom   14 type  1   force =     0.00000000    0.00000000    0.00000000
     atom   15 type  1   force =     0.00000000    0.00000000    0.00000000
     atom   16 type  1   force =     0.00000000    0.00000000    0.00000000
     atom   17 type  1   force =     0.00000000    0.00000000    0.00000000
     atom   18 type  1   force =     0.00000000    0.00000000    0.00000000
     atom   19 type  1   force =     0.00000000    0.00000000    0.00000000
     atom   20 type  1   force =     0.00000000    0.00000000    0.00000000
     atom   21 type  1   force =     0.00000000    0.00000000    0.00000000
     atom   22 type  1   force =     0.00000000    0.00000000    0.00000000
     atom   23 type  1   force =     0.00000000    0.00000000    0.00000000
     atom   24 type  1   force =     0.00000000    0.00000000    0.00000000
     atom   25 type  1   force =     0.00000000    0.00000000    0.00000000
     atom   26 type  1   force =     0.00000000    0.00000000    0.00000000
     atom   27 type  1   force =     0.00000000    0.00000000    0.00000000
     atom   28 type  1   force =     0.00000000    0.00000000    0.00000000
     The Hubbard contrib.    to forces
     atom    1 type  1   force =     0.00000000    0.00000000    0.00000000
     atom    2 type  1   force =     0.00000000    0.00000000    0.00000000
     atom    3 type  1   force =     0.00000000    0.00000000    0.00000000
     atom    4 type  1   force =     0.00000000    0.00000000    0.00000000
     atom    5 type  1   force =     0.00000000    0.00000000    0.00000000
     atom    6 type  1   force =     0.00000000    0.00000000    0.00000000
     atom    7 type  1   force =     0.00000000    0.00000000    0.00000000
     atom    8 type  1   force =     0.00000000    0.00000000    0.00000000
     atom    9 type  1   force =     0.00000000    0.00000000    0.00000000
     atom   10 type  1   force =     0.00000000    0.00000000    0.00000000
     atom   11 type  1   force =     0.00000000    0.00000000    0.00000000
     atom   12 type  1   force =     0.00000000    0.00000000    0.00000000
     atom   13 type  1   force =     0.00000000    0.00000000    0.00000000
     atom   14 type  1   force =     0.00000000    0.00000000    0.00000000
     atom   15 type  1   force =     0.00000000    0.00000000    0.00000000
     atom   16 type  1   force =     0.00000000    0.00000000    0.00000000
     atom   17 type  1   force =     0.00000000    0.00000000    0.00000000
     atom   18 type  1   force =     0.00000000    0.00000000    0.00000000
     atom   19 type  1   force =     0.00000000    0.00000000    0.00000000
     atom   20 type  1   force =     0.00000000    0.00000000    0.00000000
     atom   21 type  1   force =     0.00000000    0.00000000    0.00000000
     atom   22 type  1   force =     0.00000000    0.00000000    0.00000000
     atom   23 type  1   force =     0.00000000    0.00000000    0.00000000
     atom   24 type  1   force =     0.00000000    0.00000000    0.00000000
     atom   25 type  1   force =     0.00000000    0.00000000    0.00000000
     atom   26 type  1   force =     0.00000000    0.00000000    0.00000000
     atom   27 type  1   force =     0.00000000    0.00000000    0.00000000
     atom   28 type  1   force =     0.00000000    0.00000000    0.00000000
     The SCF correction term to forces
     atom    1 type  1   force =     0.00000000   -0.00000000   -0.00000002
     atom    2 type  1   force =    -0.00000000   -0.00000001    0.00000000
     atom    3 type  1   force =    -0.00000000   -0.00000000   -0.00000002
     atom    4 type  1   force =    -0.00000000    0.00000000   -0.00000002
     atom    5 type  1   force =     0.00000000   -0.00000002   -0.00000002
     atom    6 type  1   force =     0.00000000    0.00000001   -0.00000002
     atom    7 type  1   force =     0.00000000   -0.00000000   -0.00000002
     atom    8 type  1   force =    -0.00000000   -0.00000000   -0.00000002
     atom    9 type  1   force =     0.00000000    0.00000000   -0.00000002
     atom   10 type  1   force =    -0.00000000    0.00000000   -0.00000002
     atom   11 type  1   force =    -0.00000000   -0.00000001   -0.00000001
     atom   12 type  1   force =    -0.00000000    0.00000002   -0.00000003
     atom   13 type  1   force =    -0.00000000   -0.00000000    0.00000000
     atom   14 type  1   force =    -0.00000000    0.00000001   -0.00000001
     atom   15 type  1   force =    -0.00000000   -0.00000000   -0.00000002
     atom   16 type  1   force =     0.00000000    0.00000000   -0.00000000
     atom   17 type  1   force =     0.00000000   -0.00000000   -0.00000002
     atom   18 type  1   force =     0.00000000   -0.00000000   -0.00000002
     atom   19 type  1   force =     0.00000000   -0.00000002   -0.00000002
     atom   20 type  1   force =     0.00000000    0.00000001   -0.00000002
     atom   21 type  1   force =     0.00000000   -0.00000000   -0.00000001
     atom   22 type  1   force =    -0.00000000   -0.00000000   -0.00000002
     atom   23 type  1   force =     0.00000000    0.00000000   -0.00000002
     atom   24 type  1   force =     0.00000000    0.00000000   -0.00000002
     atom   25 type  1   force =    -0.00000000   -0.00000001   -0.00000001
     atom   26 type  1   force =    -0.00000000    0.00000002   -0.00000002
     atom   27 type  1   force =     0.00000000   -0.00000000    0.00000000
     atom   28 type  1   force =     0.00000000    0.00000001   -0.00000001

     Total force =     0.000157     Total SCF correction =     0.000000
     Message from routine punch:
     Nothing written, as per user request (disk_io='none')
 
     init_run     :      8.21s CPU      8.77s WALL (       1 calls)
     electrons    :   1251.23s CPU   1274.91s WALL (       1 calls)
     forces       :      6.37s CPU      6.42s WALL (       1 calls)

     Called by init_run:
     wfcinit      :      4.26s CPU      4.44s WALL (       1 calls)
     wfcinit:wfcr :      4.05s CPU      4.23s WALL (      50 calls)
     potinit      :      0.05s CPU      0.08s WALL (       1 calls)
     hinit0       :      0.87s CPU      1.12s WALL (       1 calls)

     Called by electrons:
     c_bands      :    902.12s CPU    918.94s WALL (      79 calls)
     sum_band     :    168.27s CPU    172.60s WALL (      79 calls)
     v_of_rho     :      3.20s CPU      3.33s WALL (      80 calls)
     v_h          :      0.30s CPU      0.30s WALL (      80 calls)
     v_xc         :      2.91s CPU      3.03s WALL (      80 calls)
     newd         :      2.41s CPU      3.32s WALL (      80 calls)
     PAW_pot      :      0.99s CPU      1.08s WALL (      80 calls)
     mix_rho      :      9.77s CPU     10.01s WALL (      79 calls)

     Called by c_bands:
     init_us_2    :     20.17s CPU     20.42s WALL (    8000 calls)
     cegterg      :    879.16s CPU    895.54s WALL (    3950 calls)

     Called by sum_band:
     sum_band:wei :      0.20s CPU      0.23s WALL (      79 calls)
     sum_band:loo :    164.81s CPU    167.93s WALL (      79 calls)
     sum_band:buf :      1.84s CPU      1.88s WALL (    3950 calls)
     sum_band:ini :      9.50s CPU      9.58s WALL (    3950 calls)
     sum_band:cal :     22.32s CPU     22.43s WALL (    3950 calls)
     sum_band:bec :      0.46s CPU      0.46s WALL (    3950 calls)
     addusdens    :      2.83s CPU      3.99s WALL (      79 calls)
                                        0.00s GPU  (      79 calls)
     addusd:skk   :      0.45s CPU      0.85s WALL (      79 calls)
                                        0.00s GPU  (      79 calls)

     Called by *egterg:
     cdiaghg      :     75.19s CPU     75.52s WALL (   20186 calls)
     cegterg:over :     40.99s CPU     41.27s WALL (   16236 calls)
     cegterg:upda :     21.64s CPU     21.86s WALL (   16236 calls)
     cegterg:last :     33.88s CPU     34.03s WALL (    6896 calls)
     h_psi        :    644.15s CPU    659.20s WALL (   20236 calls)
     s_psi        :     40.61s CPU     40.94s WALL (   20236 calls)
     g_psi        :      0.43s CPU      0.43s WALL (   16236 calls)

     Called by h_psi:
     h_psi:calbec :     68.55s CPU     69.32s WALL (   20236 calls)
     vloc_psi     :    516.39s CPU    530.34s WALL (   20236 calls)
                                        0.00s GPU  (   20236 calls)
     add_vuspsi   :     55.71s CPU     55.99s WALL (   20236 calls)

     General routines
     calbec       :     91.61s CPU     92.51s WALL (   24386 calls)
     fft          :      2.98s CPU      3.01s WALL (    1040 calls)
     ffts         :      6.62s CPU      6.77s WALL (    9753 calls)
     fftw         :    621.94s CPU    638.03s WALL ( 1391248 calls)
     interpolate  :      0.28s CPU      0.28s WALL (      80 calls)
 
     Parallel routines

     PAW routines
     PAW_pot      :      0.99s CPU      1.08s WALL (      80 calls)
 
     Environ routines
 
     PWSCF        :  21m 6.55s CPU  21m31.83s WALL

 
   This run was terminated on:  21:12: 4  27Dec2024            

=------------------------------------------------------------------------------=
   JOB DONE.
=------------------------------------------------------------------------------=
