
     Program PWSCF v.7.4 starts on  5Jan2025 at 12: 9:55 

     This program is part of the open-source Quantum ESPRESSO suite
     for quantum simulation of materials; please cite
         "P. Giannozzi et al., J. Phys.:Condens. Matter 21 395502 (2009);
         "P. Giannozzi et al., J. Phys.:Condens. Matter 29 465901 (2017);
         "P. Giannozzi et al., J. Chem. Phys. 152 154105 (2020);
          URL http://www.quantum-espresso.org", 
     in publications or presentations arising from this work. More details at
     http://www.quantum-espresso.org/quote

     Parallel version (MPI & OpenMP), running on     512 processor cores
     Number of MPI processes:               512
     Threads/MPI process:                     1

     MPI processes distributed on     4 nodes
     231541 MiB available memory on the printing compute node when the environment starts

     Reading input from espresso.pwi
Warning: card &CELL ignored
Warning: card    PRESS_CONV_THR   = 0.1 ignored
Warning: card    CELL_DOFREE      = 'ALL' ignored
Warning: card / ignored
Warning: card &FCP ignored
Warning: card / ignored
Warning: card &RISM ignored
Warning: card / ignored

     Current dimensions of program PWSCF are:
     Max number of different atomic species (ntypx) = 10
     Max number of k-points (npk) =  40000
     Max angular momentum in pseudopotentials (lmaxx) =  4

     IMPORTANT: XC functional enforced from input :
     Exchange-correlation= PBE
                           (   1   4   3   4   0   0   0)
     Any further DFT definition will be discarded
     Please, verify this is what you really want


     Reading input from environ.in:
     * using ionic solvent mode
     * setting boundary derivatives method to SSCS default
     * setting electrolyte-boundary derivatives method to SSCS default

Environ Warning (1001): card EOF ignored

     
     Found identity + (  0.5000  0.0000  0.0000) symmetry
     This is a supercell, fractional translations are disabled

     K-points division:     npool     =       2
     R & G space division:  proc/nbgrp/npool/nimage =     256
     Subspace diagonalization in iterative solution of the eigenvalue problem:
     a serial algorithm will be used


     Parallelization info
     --------------------
     sticks:   dense  smooth     PW     G-vecs:    dense   smooth      PW
     Min          75      30      8                44583    11270    1514
     Max          76      31      9                44636    11296    1560
     Sum       19367    7745   2063             11420683  2888861  395615

     Using Slab Decomposition



     bravais-lattice index     =            8
     lattice parameter (alat)  =      12.9830  a.u.
     unit-cell volume          =   29886.2289 (a.u.)^3
     number of atoms/cell      =           52
     number of atomic types    =            1
     number of electrons       =       156.00
     number of Kohn-Sham states=          117
     kinetic-energy cutoff     =      80.0000  Ry
     charge density cutoff     =     800.0000  Ry
     scf convergence threshold =      1.0E-14
     mixing beta               =       0.2000
     number of iterations used =            8  local-TF  mixing
     Exchange-correlation= PBE
                           (   1   4   3   4   0   0   0)

     ================================================================================

                                  Environ Setup Summary

     ================================================================================

     Please cite

          O. Andreussi, I. Dabo and N. Marzari, J. Chem. Phys. 136, 064102 (2012)
          F. Nattino, M. Truscott, N. Marzari, and O. Andreussi, J. Chem. Phys. 150, 041722 (2019)

     in publications or presentations arising from this work.

     ================================================================================

     Parameters
     ==========

     compensation onset threshold      =               0.1000E+00
     static permittivity               =                    89.90
     surface tension in input (dyn/cm) =                    37.30
     surface tension in internal units =               0.4792E-04

     Solvent Boundary
     ================

     solvent mode                      =                    ionic
     derivatives method                =                   lowmem
     electrolyte derivatives method    =                   lowmem
     numerical core for derivatives    =                      fft
     switching function adopted        =                     SCCS
     density limit for vacuum region   =               0.5000E-02
     density limit for bulk solvent    =               0.1000E-03
     soft-sphere radius mode           =                    bondi
     soft-sphere softness              =                     0.50
     alpha                             =                     1.32

     Electrostatic Setup
     ===================

     electrostatic problem to solve    =                    modpb
     numerical solver adopted          =                   newton
     type of auxiliary density adopted =                     none
     numerical core for poisson        =                      fft
     adopting a nested solver scheme
     inner solver                      =                       cg
     inner core                        =                      fft
     type of pbc corrections           =                parabolic
     numerical core for corrections    =                      1da

     ================================================================================


     >>>>> Grand-Canonical SCF is activated <<<<<
     Initial Total Charge  =     0.000000 e
     Target Fermi Energy   =    -1.904000 eV
     Thr. of Fermi Energy  =     0.001000 eV
     Wave-shift of Kerker  =     0.400000 bohr^-1
     Wave-shift of Hartree =     1.500000 bohr^-1
     Mixing Rate of Fermi  =     0.050000

     celldm(1)=  12.983009  celldm(2)=   1.802776  celldm(3)=   7.575360
     celldm(4)=   0.000000  celldm(5)=   0.000000  celldm(6)=   0.000000

     crystal axes: (cart. coord. in units of alat)
               a(1) = (   1.000000   0.000000   0.000000 )  
               a(2) = (   0.000000   1.802776   0.000000 )  
               a(3) = (   0.000000   0.000000   7.575360 )  

     reciprocal axes: (cart. coord. in units 2 pi/alat)
               b(1) = (  1.000000  0.000000  0.000000 )  
               b(2) = (  0.000000  0.554700  0.000000 )  
               b(3) = (  0.000000  0.000000  0.132007 )  


     PseudoPot. # 1 for Li read from file:
     /work/e89/e89/ba3g18/Repos/Pseudopotentials/Pslibrary/Li.pbe-sl-kjpaw_psl.1.0.0.UPF
     MD5 check sum: 3f4d2cafebb47c6c3aa8ed472e6f074d
     Pseudo is Projector augmented-wave, Zval =  3.0
     Generated using 'atomic' code by A. Dal Corso  v.7.4
     Shape of augmentation charge: PSQ
     Using radial grid of 1017 points,  4 beta functions with: 
                l(1) =   0
                l(2) =   0
                l(3) =   1
                l(4) =   1
     Q(r) pseudized with 0 coefficients 


     atomic species   valence    mass     pseudopotential
     Li                3.00     6.94000     Li( 1.00)

      2 Sym. Ops. (no inversion) found


                                    s                        frac. trans.

      isym =  1     identity                                     

 cryst.   s( 1) = (     1          0          0      )
                  (     0          1          0      )
                  (     0          0          1      )

 cart.    s( 1) = (  1.0000000  0.0000000  0.0000000 )
                  (  0.0000000  1.0000000  0.0000000 )
                  (  0.0000000  0.0000000  1.0000000 )


      isym =  2     inv. 180 deg rotation - cart. axis [1,0,0]   

 cryst.   s( 2) = (    -1          0          0      )
                  (     0          1          0      )
                  (     0          0          1      )

 cart.    s( 2) = ( -1.0000000  0.0000000  0.0000000 )
                  (  0.0000000  1.0000000  0.0000000 )
                  (  0.0000000  0.0000000  1.0000000 )


     point group C_s (m)    
     there are  2 classes
     the character table:

       E     s    
A'     1.00  1.00
A''    1.00 -1.00

     the symmetry operations in each class and the name of the first element:

     E        1
          identity                                               
     s        2
          inv. 180 deg rotation - cart. axis [1,0,0]             

   Cartesian axes

     site n.     atom                  positions (alat units)
         1        Li     tau(   1) = (   0.0000000   1.1547216   4.5337777  )
         2        Li     tau(   2) = (   0.0000000   1.5332822   4.2488073  )
         3        Li     tau(   3) = (   0.0000000   0.4332157   4.3938700  )
         4        Li     tau(   4) = (   0.0000000   0.8361327   4.1073953  )
         5        Li     tau(   5) = (   0.0000000   1.2458989   3.8240131  )
         6        Li     tau(   6) = (   0.0000000   1.6589584   3.5362682  )
         7        Li     tau(   7) = (   0.0000000   0.1402455   3.9585329  )
         8        Li     tau(   8) = (   0.0000000   0.5532744   3.6834058  )
         9        Li     tau(   9) = (   0.0000000   0.9639457   3.3955199  )
        10        Li     tau(  10) = (   0.0000000   1.3571205   3.1111664  )
        11        Li     tau(  11) = (   0.0000000   0.2691780   3.2771673  )
        12        Li     tau(  12) = (   0.0000000   0.6356505   2.9682975  )
        13        Li     tau(  13) = (   0.0000000   0.0736616   4.6533119  )
        14        Li     tau(  14) = (   0.2500005   1.1847245   4.1790069  )
        15        Li     tau(  15) = (   0.2500004   1.5934869   3.8915316  )
        16        Li     tau(  16) = (   0.2499994   0.4882192   4.0384579  )
        17        Li     tau(  17) = (   0.2499995   0.9008800   3.7503750  )
        18        Li     tau(  18) = (   0.2499997   1.3117344   3.4673274  )
        19        Li     tau(  19) = (   0.2499992   1.7177686   3.1812873  )
        20        Li     tau(  20) = (   0.2500004   0.2035485   3.6175452  )
        21        Li     tau(  21) = (   0.2500005   0.6163041   3.3264939  )
        22        Li     tau(  22) = (   0.2500005   0.9975221   3.0410551  )
        23        Li     tau(  23) = (   0.2499997   1.5166239   4.6075914  )
        24        Li     tau(  24) = (   0.2499995   0.2760229   2.9239828  )
        25        Li     tau(  25) = (   0.2499999   0.7944358   4.4638888  )
        26        Li     tau(  26) = (   0.2499994   0.0781369   4.2996263  )
        27        Li     tau(  27) = (   0.5000000   1.1547225   4.5337788  )
        28        Li     tau(  28) = (   0.5000000   1.5332827   4.2488085  )
        29        Li     tau(  29) = (   0.5000000   0.4332151   4.3938693  )
        30        Li     tau(  30) = (   0.5000000   0.8361319   4.1073940  )
        31        Li     tau(  31) = (   0.5000000   1.2458980   3.8240124  )
        32        Li     tau(  32) = (   0.5000000   1.6589577   3.5362680  )
        33        Li     tau(  33) = (   0.5000000   0.1402462   3.9585337  )
        34        Li     tau(  34) = (   0.5000000   0.5532753   3.6834062  )
        35        Li     tau(  35) = (   0.5000000   0.9639466   3.3955203  )
        36        Li     tau(  36) = (   0.5000000   1.3571211   3.1111668  )
        37        Li     tau(  37) = (   0.5000000   0.2691778   3.2771668  )
        38        Li     tau(  38) = (   0.5000000   0.6356503   2.9682963  )
        39        Li     tau(  39) = (   0.5000000   0.0736612   4.6533115  )
        40        Li     tau(  40) = (   0.7499995   1.1847245   4.1790069  )
        41        Li     tau(  41) = (   0.7499996   1.5934869   3.8915316  )
        42        Li     tau(  42) = (   0.7500006   0.4882192   4.0384579  )
        43        Li     tau(  43) = (   0.7500005   0.9008800   3.7503750  )
        44        Li     tau(  44) = (   0.7500003   1.3117344   3.4673274  )
        45        Li     tau(  45) = (   0.7500008   1.7177686   3.1812873  )
        46        Li     tau(  46) = (   0.7499996   0.2035485   3.6175452  )
        47        Li     tau(  47) = (   0.7499995   0.6163041   3.3264939  )
        48        Li     tau(  48) = (   0.7499995   0.9975221   3.0410551  )
        49        Li     tau(  49) = (   0.7500003   1.5166239   4.6075914  )
        50        Li     tau(  50) = (   0.7500005   0.2760229   2.9239828  )
        51        Li     tau(  51) = (   0.7500001   0.7944358   4.4638888  )
        52        Li     tau(  52) = (   0.7500006   0.0781369   4.2996263  )

   Crystallographic axes

     site n.     atom                  positions (cryst. coord.)
         1        Li     tau(   1) = (  0.0000000  0.6405242  0.5984901  )
         2        Li     tau(   2) = (  0.0000000  0.8505118  0.5608720  )
         3        Li     tau(   3) = (  0.0000000  0.2403048  0.5800213  )
         4        Li     tau(   4) = (  0.0000000  0.4638029  0.5422046  )
         5        Li     tau(   5) = (  0.0000000  0.6911002  0.5047962  )
         6        Li     tau(   6) = (  0.0000000  0.9202244  0.4668119  )
         7        Li     tau(   7) = (  0.0000000  0.0777942  0.5225538  )
         8        Li     tau(   8) = (  0.0000000  0.3069014  0.4862351  )
         9        Li     tau(   9) = (  0.0000000  0.5347008  0.4482322  )
        10        Li     tau(  10) = (  0.0000000  0.7527948  0.4106955  )
        11        Li     tau(  11) = (  0.0000000  0.1493131  0.4326088  )
        12        Li     tau(  12) = (  0.0000000  0.3525954  0.3918358  )
        13        Li     tau(  13) = (  0.0000000  0.0408601  0.6142694  )
        14        Li     tau(  14) = (  0.2500005  0.6571668  0.5516579  )
        15        Li     tau(  15) = (  0.2500004  0.8839073  0.5137091  )
        16        Li     tau(  16) = (  0.2499994  0.2708152  0.5331044  )
        17        Li     tau(  17) = (  0.2499995  0.4997182  0.4950755  )
        18        Li     tau(  18) = (  0.2499997  0.7276192  0.4577112  )
        19        Li     tau(  19) = (  0.2499992  0.9528464  0.4199520  )
        20        Li     tau(  20) = (  0.2500004  0.1129084  0.4775410  )
        21        Li     tau(  21) = (  0.2500005  0.3418639  0.4391202  )
        22        Li     tau(  22) = (  0.2500005  0.5533256  0.4014403  )
        23        Li     tau(  23) = (  0.2499997  0.8412714  0.6082340  )
        24        Li     tau(  24) = (  0.2499995  0.1531099  0.3859860  )
        25        Li     tau(  25) = (  0.2499999  0.4406736  0.5892642  )
        26        Li     tau(  26) = (  0.2499994  0.0433425  0.5675805  )
        27        Li     tau(  27) = (  0.5000000  0.6405247  0.5984902  )
        28        Li     tau(  28) = (  0.5000000  0.8505121  0.5608722  )
        29        Li     tau(  29) = (  0.5000000  0.2403044  0.5800212  )
        30        Li     tau(  30) = (  0.5000000  0.4638024  0.5422045  )
        31        Li     tau(  31) = (  0.5000000  0.6910997  0.5047961  )
        32        Li     tau(  32) = (  0.5000000  0.9202240  0.4668119  )
        33        Li     tau(  33) = (  0.5000000  0.0777946  0.5225539  )
        34        Li     tau(  34) = (  0.5000000  0.3069018  0.4862351  )
        35        Li     tau(  35) = (  0.5000000  0.5347013  0.4482322  )
        36        Li     tau(  36) = (  0.5000000  0.7527952  0.4106956  )
        37        Li     tau(  37) = (  0.5000000  0.1493129  0.4326087  )
        38        Li     tau(  38) = (  0.5000000  0.3525953  0.3918357  )
        39        Li     tau(  39) = (  0.5000000  0.0408599  0.6142694  )
        40        Li     tau(  40) = (  0.7499995  0.6571668  0.5516579  )
        41        Li     tau(  41) = (  0.7499996  0.8839073  0.5137091  )
        42        Li     tau(  42) = (  0.7500006  0.2708152  0.5331044  )
        43        Li     tau(  43) = (  0.7500005  0.4997182  0.4950755  )
        44        Li     tau(  44) = (  0.7500003  0.7276192  0.4577112  )
        45        Li     tau(  45) = (  0.7500008  0.9528464  0.4199520  )
        46        Li     tau(  46) = (  0.7499996  0.1129084  0.4775410  )
        47        Li     tau(  47) = (  0.7499995  0.3418639  0.4391202  )
        48        Li     tau(  48) = (  0.7499995  0.5533256  0.4014403  )
        49        Li     tau(  49) = (  0.7500003  0.8412714  0.6082340  )
        50        Li     tau(  50) = (  0.7500005  0.1531099  0.3859860  )
        51        Li     tau(  51) = (  0.7500001  0.4406736  0.5892642  )
        52        Li     tau(  52) = (  0.7500006  0.0433425  0.5675805  )

     number of k points=    24  Marzari-Vanderbilt smearing, width (Ry)=  0.0100
                       cart. coord. in units 2pi/alat
        k(    1) = (   0.0000000   0.0000000   0.0000000), wk =   0.0333333
        k(    2) = (   0.0000000   0.0924500   0.0000000), wk =   0.0666667
        k(    3) = (   0.0000000   0.1849000   0.0000000), wk =   0.0666667
        k(    4) = (   0.0000000  -0.2773500   0.0000000), wk =   0.0333333
        k(    5) = (   0.1000000   0.0000000   0.0000000), wk =   0.0666667
        k(    6) = (   0.1000000   0.0924500   0.0000000), wk =   0.1333333
        k(    7) = (   0.1000000   0.1849000   0.0000000), wk =   0.1333333
        k(    8) = (   0.1000000  -0.2773500   0.0000000), wk =   0.0666667
        k(    9) = (   0.2000000   0.0000000   0.0000000), wk =   0.0666667
        k(   10) = (   0.2000000   0.0924500   0.0000000), wk =   0.1333333
        k(   11) = (   0.2000000   0.1849000   0.0000000), wk =   0.1333333
        k(   12) = (   0.2000000  -0.2773500   0.0000000), wk =   0.0666667
        k(   13) = (   0.3000000   0.0000000   0.0000000), wk =   0.0666667
        k(   14) = (   0.3000000   0.0924500   0.0000000), wk =   0.1333333
        k(   15) = (   0.3000000   0.1849000   0.0000000), wk =   0.1333333
        k(   16) = (   0.3000000  -0.2773500   0.0000000), wk =   0.0666667
        k(   17) = (   0.4000000   0.0000000   0.0000000), wk =   0.0666667
        k(   18) = (   0.4000000   0.0924500   0.0000000), wk =   0.1333333
        k(   19) = (   0.4000000   0.1849000   0.0000000), wk =   0.1333333
        k(   20) = (   0.4000000  -0.2773500   0.0000000), wk =   0.0666667
        k(   21) = (  -0.5000000   0.0000000   0.0000000), wk =   0.0333333
        k(   22) = (  -0.5000000   0.0924500   0.0000000), wk =   0.0666667
        k(   23) = (  -0.5000000   0.1849000   0.0000000), wk =   0.0666667
        k(   24) = (  -0.5000000  -0.2773500   0.0000000), wk =   0.0333333

                       cryst. coord.
        k(    1) = (   0.0000000   0.0000000   0.0000000), wk =   0.0333333
        k(    2) = (   0.0000000   0.1666667   0.0000000), wk =   0.0666667
        k(    3) = (   0.0000000   0.3333333   0.0000000), wk =   0.0666667
        k(    4) = (   0.0000000  -0.5000000   0.0000000), wk =   0.0333333
        k(    5) = (   0.1000000   0.0000000   0.0000000), wk =   0.0666667
        k(    6) = (   0.1000000   0.1666667   0.0000000), wk =   0.1333333
        k(    7) = (   0.1000000   0.3333333   0.0000000), wk =   0.1333333
        k(    8) = (   0.1000000  -0.5000000   0.0000000), wk =   0.0666667
        k(    9) = (   0.2000000   0.0000000   0.0000000), wk =   0.0666667
        k(   10) = (   0.2000000   0.1666667   0.0000000), wk =   0.1333333
        k(   11) = (   0.2000000   0.3333333   0.0000000), wk =   0.1333333
        k(   12) = (   0.2000000  -0.5000000   0.0000000), wk =   0.0666667
        k(   13) = (   0.3000000   0.0000000   0.0000000), wk =   0.0666667
        k(   14) = (   0.3000000   0.1666667   0.0000000), wk =   0.1333333
        k(   15) = (   0.3000000   0.3333333   0.0000000), wk =   0.1333333
        k(   16) = (   0.3000000  -0.5000000   0.0000000), wk =   0.0666667
        k(   17) = (   0.4000000   0.0000000   0.0000000), wk =   0.0666667
        k(   18) = (   0.4000000   0.1666667   0.0000000), wk =   0.1333333
        k(   19) = (   0.4000000   0.3333333   0.0000000), wk =   0.1333333
        k(   20) = (   0.4000000  -0.5000000   0.0000000), wk =   0.0666667
        k(   21) = (  -0.5000000   0.0000000   0.0000000), wk =   0.0333333
        k(   22) = (  -0.5000000   0.1666667   0.0000000), wk =   0.0666667
        k(   23) = (  -0.5000000   0.3333333   0.0000000), wk =   0.0666667
        k(   24) = (  -0.5000000  -0.5000000   0.0000000), wk =   0.0333333

     Dense  grid: 11420683 G-vectors     FFT dimensions: ( 120, 216, 900)

     Smooth grid:  2888861 G-vectors     FFT dimensions: (  75, 135, 576)

     Dynamical RAM for                 wfc:       2.52 MB

     Dynamical RAM for     wfc (w. buffer):      32.72 MB

     Dynamical RAM for           str. fact:       0.68 MB

     Dynamical RAM for           local pot:       0.00 MB

     Dynamical RAM for          nlocal pot:       8.95 MB

     Dynamical RAM for                qrad:       0.65 MB

     Dynamical RAM for          rho,v,vnew:       4.42 MB

     Dynamical RAM for               rhoin:       1.47 MB

     Dynamical RAM for            rho*nmix:      10.90 MB

     Dynamical RAM for           G-vectors:       2.64 MB

     Dynamical RAM for          h,s,v(r/c):      10.03 MB

     Dynamical RAM for          <psi|beta>:       0.74 MB

     Dynamical RAM for                 psi:      10.07 MB

     Dynamical RAM for                hpsi:      10.07 MB

     Dynamical RAM for                spsi:      10.07 MB

     Dynamical RAM for      wfcinit/wfcrot:       5.35 MB

     Dynamical RAM for           addusdens:      32.69 MB

     Dynamical RAM for          addusforce:      67.46 MB

     Estimated static dynamical RAM per process >      56.85 MB

     Estimated max dynamical RAM per process >     174.27 MB

     Estimated total dynamical RAM >      64.88 GB

     Initial potential from superposition of free atoms

     starting charge     155.7603, renormalised to     156.0000

     negative rho (up, down):  5.142E-03 0.000E+00
     Starting wfcs are random
     Checking if some PAW data can be deallocated... 

     total cpu time spent up to now is       37.0 secs

     Self-consistent Calculation

     iteration #  1     ecut=    80.00 Ry     beta= 0.20
     Davidson diagonalization with overlap

---- Real-time Memory Report at c_bands before calling an iterative solver
           817 MiB given to the printing process from OS
             0 MiB allocation reported by mallinfo(arena+hblkhd)
        215350 MiB available memory on the node where the printing process lives
------------------
     c_bands:  1 eigenvalues not converged
     c_bands:  1 eigenvalues not converged
     ethr =  1.00E-12,  avg # of iterations =127.2

     negative rho (up, down):  3.772E-03 0.000E+00

     total cpu time spent up to now is      433.2 secs

     total energy              =    -781.88117304 Ry
     estimated scf accuracy    <       0.19140270 Ry

     total charge of GC-SCF    =      -0.00897165 e
     the Fermi energy          =      -4.36057279 eV
                        (error :       2.45657279 eV)
     electrostatic embedding   =       0.00000000 Ry
     cavitation energy         =       0.03399560 Ry
     electrolyte free energy   =       0.01286340 Ry
     correction to one-el term =      -0.00000000 Ry

     iteration #  2     ecut=    80.00 Ry     beta= 0.20
     Davidson diagonalization with overlap

---- Real-time Memory Report at c_bands before calling an iterative solver
           817 MiB given to the printing process from OS
             0 MiB allocation reported by mallinfo(arena+hblkhd)
        210813 MiB available memory on the node where the printing process lives
------------------
     ethr =  1.00E-05,  avg # of iterations = 11.5

     negative rho (up, down):  2.912E-03 0.000E+00

     add environment contribution to local potential

     total cpu time spent up to now is      484.0 secs

     total energy              =    -782.03686642 Ry
     estimated scf accuracy    <       0.06891199 Ry

     total charge of GC-SCF    =      -0.02972930 e
     the Fermi energy          =      -3.13246720 eV
                        (error :       1.22846720 eV)
     electrostatic embedding   =      -0.00007356 Ry
     cavitation energy         =       0.03399560 Ry
     electrolyte free energy   =       0.01286340 Ry
     correction to one-el term =      -0.00000000 Ry

     iteration #  3     ecut=    80.00 Ry     beta= 0.20
     Davidson diagonalization with overlap

---- Real-time Memory Report at c_bands before calling an iterative solver
           817 MiB given to the printing process from OS
             0 MiB allocation reported by mallinfo(arena+hblkhd)
        210455 MiB available memory on the node where the printing process lives
------------------
     ethr =  1.00E-05,  avg # of iterations = 29.3

     negative rho (up, down):  2.409E-03 0.000E+00

     add environment contribution to local potential

     total cpu time spent up to now is      569.6 secs

     total energy              =    -781.88236197 Ry
     estimated scf accuracy    <       0.05355610 Ry

     total charge of GC-SCF    =      -0.17214579 e
     the Fermi energy          =      -2.92684995 eV
                        (error :       1.02284995 eV)
     electrostatic embedding   =      -0.04129767 Ry
     cavitation energy         =       0.03399560 Ry
     electrolyte free energy   =      -0.00456282 Ry
     correction to one-el term =       1.02881249 Ry

     iteration #  4     ecut=    80.00 Ry     beta= 0.20
     Davidson diagonalization with overlap

---- Real-time Memory Report at c_bands before calling an iterative solver
           817 MiB given to the printing process from OS
             0 MiB allocation reported by mallinfo(arena+hblkhd)
        210277 MiB available memory on the node where the printing process lives
------------------
     ethr =  1.00E-05,  avg # of iterations = 13.0

     negative rho (up, down):  1.960E-03 0.000E+00

     add environment contribution to local potential

     total cpu time spent up to now is      625.7 secs

     total energy              =    -781.97028379 Ry
     estimated scf accuracy    <       0.02767568 Ry

     total charge of GC-SCF    =      -0.29574043 e
     the Fermi energy          =      -3.27617846 eV
                        (error :       1.37217846 eV)
     electrostatic embedding   =      -0.05036631 Ry
     cavitation energy         =       0.03399560 Ry
     electrolyte free energy   =      -0.00654220 Ry
     correction to one-el term =       7.61153197 Ry

     iteration #  5     ecut=    80.00 Ry     beta= 0.20
     Davidson diagonalization with overlap

---- Real-time Memory Report at c_bands before calling an iterative solver
           817 MiB given to the printing process from OS
             0 MiB allocation reported by mallinfo(arena+hblkhd)
        210137 MiB available memory on the node where the printing process lives
------------------
     ethr =  1.00E-05,  avg # of iterations = 24.0

     negative rho (up, down):  1.661E-03 0.000E+00

     add environment contribution to local potential

     total cpu time spent up to now is      702.6 secs

     total energy              =    -781.85535674 Ry
     estimated scf accuracy    <       0.00821341 Ry

     total charge of GC-SCF    =      -0.57949828 e
     the Fermi energy          =      -2.87548223 eV
                        (error :       0.97148223 eV)
     electrostatic embedding   =      -0.05843549 Ry
     cavitation energy         =       0.03399560 Ry
     electrolyte free energy   =      -0.00358695 Ry
     correction to one-el term =      12.06657097 Ry

     iteration #  6     ecut=    80.00 Ry     beta= 0.20
     Davidson diagonalization with overlap

---- Real-time Memory Report at c_bands before calling an iterative solver
           817 MiB given to the printing process from OS
             0 MiB allocation reported by mallinfo(arena+hblkhd)
        210172 MiB available memory on the node where the printing process lives
------------------
     ethr =  5.25E-06,  avg # of iterations = 21.5

     negative rho (up, down):  1.469E-03 0.000E+00

     add environment contribution to local potential

     total cpu time spent up to now is      779.0 secs

     total energy              =    -781.90445882 Ry
     estimated scf accuracy    <       0.00436713 Ry

     total charge of GC-SCF    =      -0.95263960 e
     the Fermi energy          =      -2.51838966 eV
                        (error :       0.61438966 eV)
     electrostatic embedding   =      -0.09863427 Ry
     cavitation energy         =       0.03399560 Ry
     electrolyte free energy   =      -0.00083240 Ry
     correction to one-el term =      24.42757348 Ry

     iteration #  7     ecut=    80.00 Ry     beta= 0.20
     Davidson diagonalization with overlap

---- Real-time Memory Report at c_bands before calling an iterative solver
           817 MiB given to the printing process from OS
             0 MiB allocation reported by mallinfo(arena+hblkhd)
        210147 MiB available memory on the node where the printing process lives
------------------
     ethr =  2.78E-06,  avg # of iterations = 17.6

     negative rho (up, down):  1.362E-03 0.000E+00

     add environment contribution to local potential

     total cpu time spent up to now is      847.0 secs

     total energy              =    -781.96503660 Ry
     estimated scf accuracy    <       0.00639073 Ry

     total charge of GC-SCF    =      -1.53232835 e
     the Fermi energy          =      -2.29098363 eV
                        (error :       0.38698363 eV)
     electrostatic embedding   =      -0.18882880 Ry
     cavitation energy         =       0.03399560 Ry
     electrolyte free energy   =      -0.00117907 Ry
     correction to one-el term =      40.72785741 Ry

     iteration #  8     ecut=    80.00 Ry     beta= 0.20
     Davidson diagonalization with overlap

---- Real-time Memory Report at c_bands before calling an iterative solver
           817 MiB given to the printing process from OS
             0 MiB allocation reported by mallinfo(arena+hblkhd)
        210116 MiB available memory on the node where the printing process lives
------------------
     ethr =  2.78E-06,  avg # of iterations = 20.1

     negative rho (up, down):  1.220E-03 0.000E+00

     add environment contribution to local potential

     total cpu time spent up to now is      920.8 secs

     total energy              =    -782.03496697 Ry
     estimated scf accuracy    <       0.03047283 Ry

     total charge of GC-SCF    =      -1.58107166 e
     the Fermi energy          =      -1.99259013 eV
                        (error :       0.08859013 eV)
     electrostatic embedding   =      -0.39501581 Ry
     cavitation energy         =       0.03399560 Ry
     electrolyte free energy   =      -0.00425070 Ry
     correction to one-el term =      61.84313867 Ry

     iteration #  9     ecut=    80.00 Ry     beta= 0.20
     Davidson diagonalization with overlap

---- Real-time Memory Report at c_bands before calling an iterative solver
           817 MiB given to the printing process from OS
             0 MiB allocation reported by mallinfo(arena+hblkhd)
        209985 MiB available memory on the node where the printing process lives
------------------
     ethr =  2.78E-06,  avg # of iterations =  5.7

     negative rho (up, down):  1.155E-03 0.000E+00

     add environment contribution to local potential

     total cpu time spent up to now is      950.8 secs

     total energy              =    -781.94332459 Ry
     estimated scf accuracy    <       0.02650372 Ry

     total charge of GC-SCF    =      -1.97758861 e
     the Fermi energy          =      -2.01709312 eV
                        (error :       0.11309312 eV)
     electrostatic embedding   =      -0.41623208 Ry
     cavitation energy         =       0.03399560 Ry
     electrolyte free energy   =      -0.00416971 Ry
     correction to one-el term =      63.47373704 Ry

     iteration # 10     ecut=    80.00 Ry     beta= 0.20
     Davidson diagonalization with overlap

---- Real-time Memory Report at c_bands before calling an iterative solver
           817 MiB given to the printing process from OS
             0 MiB allocation reported by mallinfo(arena+hblkhd)
        209990 MiB available memory on the node where the printing process lives
------------------
     ethr =  2.78E-06,  avg # of iterations = 12.8

     negative rho (up, down):  1.053E-03 0.000E+00

     add environment contribution to local potential

     total cpu time spent up to now is     1002.9 secs

     total energy              =    -781.99286810 Ry
     estimated scf accuracy    <       0.00787369 Ry

     total charge of GC-SCF    =      -2.20043439 e
     the Fermi energy          =      -2.19422719 eV
                        (error :       0.29022719 eV)
     electrostatic embedding   =      -0.60915870 Ry
     cavitation energy         =       0.03399560 Ry
     electrolyte free energy   =      -0.00403007 Ry
     correction to one-el term =      76.32488180 Ry

     iteration # 11     ecut=    80.00 Ry     beta= 0.20
     Davidson diagonalization with overlap

---- Real-time Memory Report at c_bands before calling an iterative solver
           817 MiB given to the printing process from OS
             0 MiB allocation reported by mallinfo(arena+hblkhd)
        209972 MiB available memory on the node where the printing process lives
------------------
     ethr =  2.78E-06,  avg # of iterations =  9.7

     negative rho (up, down):  9.885E-04 0.000E+00

     add environment contribution to local potential

     total cpu time spent up to now is     1040.2 secs

     total energy              =    -781.98666884 Ry
     estimated scf accuracy    <       0.00561991 Ry

     total charge of GC-SCF    =      -2.41081747 e
     the Fermi energy          =      -2.22521407 eV
                        (error :       0.32121407 eV)
     electrostatic embedding   =      -0.73184225 Ry
     cavitation energy         =       0.03399560 Ry
     electrolyte free energy   =      -0.00467477 Ry
     correction to one-el term =      83.51764641 Ry

     iteration # 12     ecut=    80.00 Ry     beta= 0.20
     Davidson diagonalization with overlap

---- Real-time Memory Report at c_bands before calling an iterative solver
           817 MiB given to the printing process from OS
             0 MiB allocation reported by mallinfo(arena+hblkhd)
        210009 MiB available memory on the node where the printing process lives
------------------
     ethr =  2.78E-06,  avg # of iterations = 12.5

     negative rho (up, down):  8.721E-04 0.000E+00

     add environment contribution to local potential

     total cpu time spent up to now is     1087.9 secs

     total energy              =    -782.01038170 Ry
     estimated scf accuracy    <       0.00118085 Ry

     total charge of GC-SCF    =      -2.61656087 e
     the Fermi energy          =      -2.33574202 eV
                        (error :       0.43174202 eV)
     electrostatic embedding   =      -0.86106835 Ry
     cavitation energy         =       0.03399560 Ry
     electrolyte free energy   =      -0.00509934 Ry
     correction to one-el term =      89.64773695 Ry

     iteration # 13     ecut=    80.00 Ry     beta= 0.20
     Davidson diagonalization with overlap

---- Real-time Memory Report at c_bands before calling an iterative solver
           817 MiB given to the printing process from OS
             0 MiB allocation reported by mallinfo(arena+hblkhd)
        210008 MiB available memory on the node where the printing process lives
------------------
     ethr =  7.44E-07,  avg # of iterations = 10.0

     negative rho (up, down):  7.365E-04 0.000E+00

     add environment contribution to local potential

     total cpu time spent up to now is     1132.3 secs

     total energy              =    -782.01330333 Ry
     estimated scf accuracy    <       0.00051228 Ry

     total charge of GC-SCF    =      -2.91195055 e
     the Fermi energy          =      -2.34714482 eV
                        (error :       0.44314482 eV)
     electrostatic embedding   =      -0.99311861 Ry
     cavitation energy         =       0.03399560 Ry
     electrolyte free energy   =      -0.00611863 Ry
     correction to one-el term =      96.19377418 Ry

     iteration # 14     ecut=    80.00 Ry     beta= 0.20
     Davidson diagonalization with overlap

---- Real-time Memory Report at c_bands before calling an iterative solver
           817 MiB given to the printing process from OS
             0 MiB allocation reported by mallinfo(arena+hblkhd)
        209998 MiB available memory on the node where the printing process lives
------------------
     ethr =  3.22E-07,  avg # of iterations = 12.5

     negative rho (up, down):  6.529E-04 0.000E+00

     add environment contribution to local potential

     total cpu time spent up to now is     1187.3 secs

     total energy              =    -782.01265324 Ry
     estimated scf accuracy    <       0.00029462 Ry

     total charge of GC-SCF    =      -3.36753123 e
     the Fermi energy          =      -2.34886753 eV
                        (error :       0.44486753 eV)
     electrostatic embedding   =      -1.19322824 Ry
     cavitation energy         =       0.03399560 Ry
     electrolyte free energy   =      -0.00786199 Ry
     correction to one-el term =     105.22883029 Ry

     iteration # 15     ecut=    80.00 Ry     beta= 0.20
     Davidson diagonalization with overlap

---- Real-time Memory Report at c_bands before calling an iterative solver
           817 MiB given to the printing process from OS
             0 MiB allocation reported by mallinfo(arena+hblkhd)
        209936 MiB available memory on the node where the printing process lives
------------------
     ethr =  1.85E-07,  avg # of iterations = 18.2

     negative rho (up, down):  6.366E-04 0.000E+00

     add environment contribution to local potential

     total cpu time spent up to now is     1252.3 secs

     total energy              =    -782.04871478 Ry
     estimated scf accuracy    <       0.00062469 Ry

     total charge of GC-SCF    =      -3.55401544 e
     the Fermi energy          =      -2.25891272 eV
                        (error :       0.35491272 eV)
     electrostatic embedding   =      -1.53692701 Ry
     cavitation energy         =       0.03399560 Ry
     electrolyte free energy   =      -0.01161397 Ry
     correction to one-el term =     120.34219677 Ry

     iteration # 16     ecut=    80.00 Ry     beta= 0.20
     Davidson diagonalization with overlap

---- Real-time Memory Report at c_bands before calling an iterative solver
           817 MiB given to the printing process from OS
             0 MiB allocation reported by mallinfo(arena+hblkhd)
        209826 MiB available memory on the node where the printing process lives
------------------
     ethr =  1.85E-07,  avg # of iterations = 12.4

     negative rho (up, down):  6.059E-04 0.000E+00

     add environment contribution to local potential

     total cpu time spent up to now is     1303.9 secs

     total energy              =    -782.04541400 Ry
     estimated scf accuracy    <       0.00054636 Ry

     total charge of GC-SCF    =      -3.87251153 e
     the Fermi energy          =      -2.24911526 eV
                        (error :       0.34511526 eV)
     electrostatic embedding   =      -1.68566897 Ry
     cavitation energy         =       0.03399560 Ry
     electrolyte free energy   =      -0.01332374 Ry
     correction to one-el term =     125.76613323 Ry

     iteration # 17     ecut=    80.00 Ry     beta= 0.20
     Davidson diagonalization with overlap

---- Real-time Memory Report at c_bands before calling an iterative solver
           817 MiB given to the printing process from OS
             0 MiB allocation reported by mallinfo(arena+hblkhd)
        209846 MiB available memory on the node where the printing process lives
------------------
     ethr =  1.85E-07,  avg # of iterations = 12.2

     negative rho (up, down):  5.840E-04 0.000E+00

     add environment contribution to local potential

     total cpu time spent up to now is     1359.2 secs

     total energy              =    -782.05548480 Ry
     estimated scf accuracy    <       0.00022968 Ry

     total charge of GC-SCF    =      -4.48800977 e
     the Fermi energy          =      -2.23788657 eV
                        (error :       0.33388657 eV)
     electrostatic embedding   =      -1.96879612 Ry
     cavitation energy         =       0.03399560 Ry
     electrolyte free energy   =      -0.01683157 Ry
     correction to one-el term =     135.86551602 Ry

     iteration # 18     ecut=    80.00 Ry     beta= 0.20
     Davidson diagonalization with overlap

---- Real-time Memory Report at c_bands before calling an iterative solver
           817 MiB given to the printing process from OS
             0 MiB allocation reported by mallinfo(arena+hblkhd)
        209907 MiB available memory on the node where the printing process lives
------------------
     ethr =  1.43E-07,  avg # of iterations = 27.0

     negative rho (up, down):  5.660E-04 0.000E+00

     add environment contribution to local potential

     total cpu time spent up to now is     1447.7 secs

     total energy              =    -782.07934151 Ry
     estimated scf accuracy    <       0.00015261 Ry

     total charge of GC-SCF    =      -4.77079694 e
     the Fermi energy          =      -2.16604527 eV
                        (error :       0.26204527 eV)
     electrostatic embedding   =      -2.57341905 Ry
     cavitation energy         =       0.03399560 Ry
     electrolyte free energy   =      -0.02577755 Ry
     correction to one-el term =     155.62118897 Ry

     iteration # 19     ecut=    80.00 Ry     beta= 0.20
     Davidson diagonalization with overlap

---- Real-time Memory Report at c_bands before calling an iterative solver
           817 MiB given to the printing process from OS
             0 MiB allocation reported by mallinfo(arena+hblkhd)
        209819 MiB available memory on the node where the printing process lives
------------------
     ethr =  9.49E-08,  avg # of iterations = 13.4

     negative rho (up, down):  5.357E-04 0.000E+00

     add environment contribution to local potential

     total cpu time spent up to now is     1508.5 secs

     total energy              =    -782.09900797 Ry
     estimated scf accuracy    <       0.00011324 Ry

     total charge of GC-SCF    =      -5.50031947 e
     the Fermi energy          =      -2.13896117 eV
                        (error :       0.23496117 eV)
     electrostatic embedding   =      -2.86529181 Ry
     cavitation energy         =       0.03399560 Ry
     electrolyte free energy   =      -0.03064682 Ry
     correction to one-el term =     163.75756280 Ry

     iteration # 20     ecut=    80.00 Ry     beta= 0.20
     Davidson diagonalization with overlap

---- Real-time Memory Report at c_bands before calling an iterative solver
           817 MiB given to the printing process from OS
             0 MiB allocation reported by mallinfo(arena+hblkhd)
        209781 MiB available memory on the node where the printing process lives
------------------
     ethr =  7.01E-08,  avg # of iterations = 32.5

     negative rho (up, down):  5.280E-04 0.000E+00

     add environment contribution to local potential

     total cpu time spent up to now is     1609.1 secs

     total energy              =    -782.11342617 Ry
     estimated scf accuracy    <       0.00018926 Ry

     total charge of GC-SCF    =      -5.35007688 e
     the Fermi energy          =      -2.02284926 eV
                        (error :       0.11884926 eV)
     electrostatic embedding   =      -3.70874197 Ry
     cavitation energy         =       0.03399560 Ry
     electrolyte free energy   =      -0.04687734 Ry
     correction to one-el term =     186.26586800 Ry

     iteration # 21     ecut=    80.00 Ry     beta= 0.20
     Davidson diagonalization with overlap

---- Real-time Memory Report at c_bands before calling an iterative solver
           817 MiB given to the printing process from OS
             0 MiB allocation reported by mallinfo(arena+hblkhd)
        209796 MiB available memory on the node where the printing process lives
------------------
     ethr =  7.01E-08,  avg # of iterations = 13.0

     negative rho (up, down):  5.049E-04 0.000E+00

     add environment contribution to local potential

     total cpu time spent up to now is     1670.5 secs

     total energy              =    -782.10683489 Ry
     estimated scf accuracy    <       0.00006512 Ry

     total charge of GC-SCF    =      -5.90154965 e
     the Fermi energy          =      -2.07954359 eV
                        (error :       0.17554359 eV)
     electrostatic embedding   =      -3.52113973 Ry
     cavitation energy         =       0.03399560 Ry
     electrolyte free energy   =      -0.04285029 Ry
     correction to one-el term =     181.08320622 Ry

     iteration # 22     ecut=    80.00 Ry     beta= 0.20
     Davidson diagonalization with overlap

---- Real-time Memory Report at c_bands before calling an iterative solver
           817 MiB given to the printing process from OS
             0 MiB allocation reported by mallinfo(arena+hblkhd)
        209819 MiB available memory on the node where the printing process lives
------------------
     ethr =  4.02E-08,  avg # of iterations = 29.6

     negative rho (up, down):  5.002E-04 0.000E+00

     add environment contribution to local potential

     total cpu time spent up to now is     1766.1 secs

     total energy              =    -782.11204654 Ry
     estimated scf accuracy    <       0.00015562 Ry

     total charge of GC-SCF    =      -5.81720171 e
     the Fermi energy          =      -1.97950901 eV
                        (error :       0.07550901 eV)
     electrostatic embedding   =      -4.20301309 Ry
     cavitation energy         =       0.03399560 Ry
     electrolyte free energy   =      -0.05762102 Ry
     correction to one-el term =     197.71122323 Ry

     iteration # 23     ecut=    80.00 Ry     beta= 0.20
     Davidson diagonalization with overlap

---- Real-time Memory Report at c_bands before calling an iterative solver
           817 MiB given to the printing process from OS
             0 MiB allocation reported by mallinfo(arena+hblkhd)
        209733 MiB available memory on the node where the printing process lives
------------------
     ethr =  4.02E-08,  avg # of iterations = 10.7

     negative rho (up, down):  4.932E-04 0.000E+00

     add environment contribution to local potential

     total cpu time spent up to now is     1816.0 secs

     total energy              =    -782.10593390 Ry
     estimated scf accuracy    <       0.00011356 Ry

     total charge of GC-SCF    =      -5.95817764 e
     the Fermi energy          =      -1.99884406 eV
                        (error :       0.09484406 eV)
     electrostatic embedding   =      -4.09055942 Ry
     cavitation energy         =       0.03399560 Ry
     electrolyte free energy   =      -0.05511203 Ry
     correction to one-el term =     194.97585912 Ry

     iteration # 24     ecut=    80.00 Ry     beta= 0.20
     Davidson diagonalization with overlap

---- Real-time Memory Report at c_bands before calling an iterative solver
           817 MiB given to the printing process from OS
             0 MiB allocation reported by mallinfo(arena+hblkhd)
        209755 MiB available memory on the node where the printing process lives
------------------
     ethr =  4.02E-08,  avg # of iterations = 13.5

     negative rho (up, down):  4.856E-04 0.000E+00

     add environment contribution to local potential

     total cpu time spent up to now is     1875.3 secs

     total energy              =    -782.11645061 Ry
     estimated scf accuracy    <       0.00005489 Ry

     total charge of GC-SCF    =      -5.82797716 e
     the Fermi energy          =      -1.99470289 eV
                        (error :       0.09070289 eV)
     electrostatic embedding   =      -4.26328590 Ry
     cavitation energy         =       0.03399560 Ry
     electrolyte free energy   =      -0.05904163 Ry
     correction to one-el term =     198.73595571 Ry

     iteration # 25     ecut=    80.00 Ry     beta= 0.20
     Davidson diagonalization with overlap

---- Real-time Memory Report at c_bands before calling an iterative solver
           817 MiB given to the printing process from OS
             0 MiB allocation reported by mallinfo(arena+hblkhd)
        209780 MiB available memory on the node where the printing process lives
------------------
     ethr =  3.39E-08,  avg # of iterations = 14.6

     negative rho (up, down):  4.673E-04 0.000E+00

     add environment contribution to local potential

     total cpu time spent up to now is     1936.7 secs

     total energy              =    -782.11684901 Ry
     estimated scf accuracy    <       0.00004795 Ry

     total charge of GC-SCF    =      -6.35891504 e
     the Fermi energy          =      -2.02741278 eV
                        (error :       0.12341278 eV)
     electrostatic embedding   =      -4.06662506 Ry
     cavitation energy         =       0.03399560 Ry
     electrolyte free energy   =      -0.05497146 Ry
     correction to one-el term =     193.51612792 Ry

     iteration # 26     ecut=    80.00 Ry     beta= 0.20
     Davidson diagonalization with overlap

---- Real-time Memory Report at c_bands before calling an iterative solver
           817 MiB given to the printing process from OS
             0 MiB allocation reported by mallinfo(arena+hblkhd)
        209711 MiB available memory on the node where the printing process lives
------------------
     c_bands:  1 eigenvalues not converged
     ethr =  2.95E-08,  avg # of iterations = 36.4

     negative rho (up, down):  4.569E-04 0.000E+00

     add environment contribution to local potential

     total cpu time spent up to now is     2055.5 secs

     total energy              =    -782.11179810 Ry
     estimated scf accuracy    <       0.00002262 Ry

     total charge of GC-SCF    =      -6.47121949 e
     the Fermi energy          =      -1.95209788 eV
                        (error :       0.04809788 eV)
     electrostatic embedding   =      -4.75670953 Ry
     cavitation energy         =       0.03399560 Ry
     electrolyte free energy   =      -0.07142898 Ry
     correction to one-el term =     208.81767523 Ry

     iteration # 27     ecut=    80.00 Ry     beta= 0.20
     Davidson diagonalization with overlap

---- Real-time Memory Report at c_bands before calling an iterative solver
           817 MiB given to the printing process from OS
             0 MiB allocation reported by mallinfo(arena+hblkhd)
        209762 MiB available memory on the node where the printing process lives
------------------
     ethr =  1.39E-08,  avg # of iterations = 26.5

     negative rho (up, down):  4.494E-04 0.000E+00

     add environment contribution to local potential

     total cpu time spent up to now is     2147.2 secs

     total energy              =    -782.11344731 Ry
     estimated scf accuracy    <       0.00001312 Ry

     total charge of GC-SCF    =      -6.63373016 e
     the Fermi energy          =      -1.93932975 eV
                        (error :       0.03532975 eV)
     electrostatic embedding   =      -4.88778473 Ry
     cavitation energy         =       0.03399560 Ry
     electrolyte free energy   =      -0.07514935 Ry
     correction to one-el term =     211.15817646 Ry

     iteration # 28     ecut=    80.00 Ry     beta= 0.20
     Davidson diagonalization with overlap

---- Real-time Memory Report at c_bands before calling an iterative solver
           817 MiB given to the printing process from OS
             0 MiB allocation reported by mallinfo(arena+hblkhd)
        209704 MiB available memory on the node where the printing process lives
------------------
     ethr =  8.07E-09,  avg # of iterations = 24.7

     negative rho (up, down):  4.450E-04 0.000E+00

     add environment contribution to local potential

     total cpu time spent up to now is     2230.7 secs

     total energy              =    -782.11311339 Ry
     estimated scf accuracy    <       0.00000673 Ry

     total charge of GC-SCF    =      -6.66682326 e
     the Fermi energy          =      -1.91812370 eV
                        (error :       0.01412370 eV)
     electrostatic embedding   =      -5.10306494 Ry
     cavitation energy         =       0.03399560 Ry
     electrolyte free energy   =      -0.08093296 Ry
     correction to one-el term =     215.43012984 Ry

     iteration # 29     ecut=    80.00 Ry     beta= 0.20
     Davidson diagonalization with overlap

---- Real-time Memory Report at c_bands before calling an iterative solver
           817 MiB given to the printing process from OS
             0 MiB allocation reported by mallinfo(arena+hblkhd)
        209732 MiB available memory on the node where the printing process lives
------------------
     ethr =  4.14E-09,  avg # of iterations = 26.7

     negative rho (up, down):  4.401E-04 0.000E+00

     add environment contribution to local potential

     total cpu time spent up to now is     2319.5 secs

     total energy              =    -782.11359304 Ry
     estimated scf accuracy    <       0.00000251 Ry

     total charge of GC-SCF    =      -6.74971294 e
     the Fermi energy          =      -1.91645668 eV
                        (error :       0.01245668 eV)
     electrostatic embedding   =      -5.13779304 Ry
     cavitation energy         =       0.03399560 Ry
     electrolyte free energy   =      -0.08208179 Ry
     correction to one-el term =     215.94499501 Ry

     iteration # 30     ecut=    80.00 Ry     beta= 0.20
     Davidson diagonalization with overlap

---- Real-time Memory Report at c_bands before calling an iterative solver
           817 MiB given to the printing process from OS
             0 MiB allocation reported by mallinfo(arena+hblkhd)
        209689 MiB available memory on the node where the printing process lives
------------------
     ethr =  1.54E-09,  avg # of iterations = 25.9

     negative rho (up, down):  4.387E-04 0.000E+00

     add environment contribution to local potential

     total cpu time spent up to now is     2406.1 secs

     total energy              =    -782.11331572 Ry
     estimated scf accuracy    <       0.00000125 Ry

     total charge of GC-SCF    =      -6.74622031 e
     the Fermi energy          =      -1.90491560 eV
                        (error :       0.00091560 eV)
     electrostatic embedding   =      -5.24705592 Ry
     cavitation energy         =       0.03399560 Ry
     electrolyte free energy   =      -0.08516672 Ry
     correction to one-el term =     218.00848247 Ry

     iteration # 31     ecut=    80.00 Ry     beta= 0.20
     Davidson diagonalization with overlap

---- Real-time Memory Report at c_bands before calling an iterative solver
           817 MiB given to the printing process from OS
             0 MiB allocation reported by mallinfo(arena+hblkhd)
        209697 MiB available memory on the node where the printing process lives
------------------
     ethr =  7.68E-10,  avg # of iterations = 12.7

     negative rho (up, down):  4.371E-04 0.000E+00

     add environment contribution to local potential

     total cpu time spent up to now is     2464.8 secs

     total energy              =    -782.11332399 Ry
     estimated scf accuracy    <       0.00000050 Ry

     total charge of GC-SCF    =      -6.75340666 e
     the Fermi energy          =      -1.90622708 eV
                        (error :       0.00222708 eV)
     electrostatic embedding   =      -5.24205165 Ry
     cavitation energy         =       0.03399560 Ry
     electrolyte free energy   =      -0.08502666 Ry
     correction to one-el term =     217.92133499 Ry

     iteration # 32     ecut=    80.00 Ry     beta= 0.20
     Davidson diagonalization with overlap

---- Real-time Memory Report at c_bands before calling an iterative solver
           817 MiB given to the printing process from OS
             0 MiB allocation reported by mallinfo(arena+hblkhd)
        209677 MiB available memory on the node where the printing process lives
------------------
     ethr =  3.08E-10,  avg # of iterations = 20.2

     negative rho (up, down):  4.365E-04 0.000E+00

     add environment contribution to local potential

     total cpu time spent up to now is     2538.6 secs

     total energy              =    -782.11332570 Ry
     estimated scf accuracy    <       0.00000043 Ry

     total charge of GC-SCF    =      -6.76062419 e
     the Fermi energy          =      -1.90471749 eV
                        (error :       0.00071749 eV)
     electrostatic embedding   =      -5.24982462 Ry
     cavitation energy         =       0.03399560 Ry
     electrolyte free energy   =      -0.08528892 Ry
     correction to one-el term =     218.03088480 Ry

     iteration # 33     ecut=    80.00 Ry     beta= 0.20
     Davidson diagonalization with overlap

---- Real-time Memory Report at c_bands before calling an iterative solver
           817 MiB given to the printing process from OS
             0 MiB allocation reported by mallinfo(arena+hblkhd)
        209673 MiB available memory on the node where the printing process lives
------------------
     ethr =  2.66E-10,  avg # of iterations = 12.0

     negative rho (up, down):  4.363E-04 0.000E+00

     add environment contribution to local potential

     total cpu time spent up to now is     2595.1 secs

     total energy              =    -782.11332809 Ry
     estimated scf accuracy    <       0.00000024 Ry

     total charge of GC-SCF    =      -6.76587996 e
     the Fermi energy          =      -1.90396533 eV
                        (error :       0.00003467 eV)
     electrostatic embedding   =      -5.25980677 Ry
     cavitation energy         =       0.03399560 Ry
     electrolyte free energy   =      -0.08556140 Ry
     correction to one-el term =     218.22619647 Ry

     iteration # 34     ecut=    80.00 Ry     beta= 0.20
     Davidson diagonalization with overlap

---- Real-time Memory Report at c_bands before calling an iterative solver
           817 MiB given to the printing process from OS
             0 MiB allocation reported by mallinfo(arena+hblkhd)
        209664 MiB available memory on the node where the printing process lives
------------------
     ethr =  1.50E-10,  avg # of iterations = 13.1

     negative rho (up, down):  4.369E-04 0.000E+00

     add environment contribution to local potential

     total cpu time spent up to now is     2656.7 secs

     total energy              =    -782.11333602 Ry
     estimated scf accuracy    <       0.00000011 Ry

     total charge of GC-SCF    =      -6.75411695 e
     the Fermi energy          =      -1.90339883 eV
                        (error :       0.00060117 eV)
     electrostatic embedding   =      -5.26713166 Ry
     cavitation energy         =       0.03399560 Ry
     electrolyte free energy   =      -0.08576135 Ry
     correction to one-el term =     218.37364147 Ry

     iteration # 35     ecut=    80.00 Ry     beta= 0.20
     Davidson diagonalization with overlap

---- Real-time Memory Report at c_bands before calling an iterative solver
           817 MiB given to the printing process from OS
             0 MiB allocation reported by mallinfo(arena+hblkhd)
        209647 MiB available memory on the node where the printing process lives
------------------
     ethr =  6.94E-11,  avg # of iterations = 23.0

     negative rho (up, down):  4.366E-04 0.000E+00

     add environment contribution to local potential

     total cpu time spent up to now is     2737.5 secs

     total energy              =    -782.11332955 Ry
     estimated scf accuracy    <       0.00000006 Ry

     total charge of GC-SCF    =      -6.76146317 e
     the Fermi energy          =      -1.90479460 eV
                        (error :       0.00079460 eV)
     electrostatic embedding   =      -5.25201692 Ry
     cavitation energy         =       0.03399560 Ry
     electrolyte free energy   =      -0.08531990 Ry
     correction to one-el term =     218.10272602 Ry

     iteration # 36     ecut=    80.00 Ry     beta= 0.20
     Davidson diagonalization with overlap

---- Real-time Memory Report at c_bands before calling an iterative solver
           817 MiB given to the printing process from OS
             0 MiB allocation reported by mallinfo(arena+hblkhd)
        209700 MiB available memory on the node where the printing process lives
------------------
     ethr =  3.84E-11,  avg # of iterations = 11.5

     negative rho (up, down):  4.363E-04 0.000E+00

     add environment contribution to local potential

     total cpu time spent up to now is     2796.6 secs

     total energy              =    -782.11332673 Ry
     estimated scf accuracy    <       0.00000003 Ry

     total charge of GC-SCF    =      -6.75793621 e
     the Fermi energy          =      -1.90376674 eV
                        (error :       0.00023326 eV)
     electrostatic embedding   =      -5.26263879 Ry
     cavitation energy         =       0.03399560 Ry
     electrolyte free energy   =      -0.08560283 Ry
     correction to one-el term =     218.32053726 Ry

     iteration # 37     ecut=    80.00 Ry     beta= 0.20
     Davidson diagonalization with overlap

---- Real-time Memory Report at c_bands before calling an iterative solver
           817 MiB given to the printing process from OS
             0 MiB allocation reported by mallinfo(arena+hblkhd)
        209684 MiB available memory on the node where the printing process lives
------------------
     ethr =  1.64E-11,  avg # of iterations = 15.5

     negative rho (up, down):  4.359E-04 0.000E+00

     add environment contribution to local potential

     total cpu time spent up to now is     2859.8 secs

     total energy              =    -782.11332609 Ry
     estimated scf accuracy    <       0.00000001 Ry

     total charge of GC-SCF    =      -6.75812300 e
     the Fermi energy          =      -1.90424469 eV
                        (error :       0.00024469 eV)
     electrostatic embedding   =      -5.25796274 Ry
     cavitation energy         =       0.03399560 Ry
     electrolyte free energy   =      -0.08546958 Ry
     correction to one-el term =     218.23323728 Ry

     iteration # 38     ecut=    80.00 Ry     beta= 0.20
     Davidson diagonalization with overlap

---- Real-time Memory Report at c_bands before calling an iterative solver
           817 MiB given to the printing process from OS
             0 MiB allocation reported by mallinfo(arena+hblkhd)
        209667 MiB available memory on the node where the printing process lives
------------------
     ethr =  7.14E-12,  avg # of iterations = 12.7

     negative rho (up, down):  4.356E-04 0.000E+00

     add environment contribution to local potential

     total cpu time spent up to now is     2919.8 secs

     total energy              =    -782.11332628 Ry
     estimated scf accuracy    <          6.5E-09 Ry

     total charge of GC-SCF    =      -6.75714832 e
     the Fermi energy          =      -1.90419083 eV
                        (error :       0.00019083 eV)
     electrostatic embedding   =      -5.25817522 Ry
     cavitation energy         =       0.03399560 Ry
     electrolyte free energy   =      -0.08547664 Ry
     correction to one-el term =     218.23570163 Ry

     iteration # 39     ecut=    80.00 Ry     beta= 0.20
     Davidson diagonalization with overlap

---- Real-time Memory Report at c_bands before calling an iterative solver
           817 MiB given to the printing process from OS
             0 MiB allocation reported by mallinfo(arena+hblkhd)
        209683 MiB available memory on the node where the printing process lives
------------------
     ethr =  4.02E-12,  avg # of iterations = 13.0

     negative rho (up, down):  4.352E-04 0.000E+00

     add environment contribution to local potential

     total cpu time spent up to now is     2979.0 secs

     total energy              =    -782.11332628 Ry
     estimated scf accuracy    <          3.6E-09 Ry

     total charge of GC-SCF    =      -6.75828339 e
     the Fermi energy          =      -1.90436761 eV
                        (error :       0.00036761 eV)
     electrostatic embedding   =      -5.25662975 Ry
     cavitation energy         =       0.03399560 Ry
     electrolyte free energy   =      -0.08543791 Ry
     correction to one-el term =     218.20054287 Ry

     iteration # 40     ecut=    80.00 Ry     beta= 0.20
     Davidson diagonalization with overlap

---- Real-time Memory Report at c_bands before calling an iterative solver
           817 MiB given to the printing process from OS
             0 MiB allocation reported by mallinfo(arena+hblkhd)
        209706 MiB available memory on the node where the printing process lives
------------------
     ethr =  2.19E-12,  avg # of iterations = 22.3

     negative rho (up, down):  4.351E-04 0.000E+00

     add environment contribution to local potential

     total cpu time spent up to now is     3057.6 secs

     total energy              =    -782.11332629 Ry
     estimated scf accuracy    <          1.4E-09 Ry

     total charge of GC-SCF    =      -6.75879191 e
     the Fermi energy          =      -1.90425108 eV
                        (error :       0.00025108 eV)
     electrostatic embedding   =      -5.25791049 Ry
     cavitation energy         =       0.03399560 Ry
     electrolyte free energy   =      -0.08547898 Ry
     correction to one-el term =     218.21773757 Ry

     iteration # 41     ecut=    80.00 Ry     beta= 0.20
     Davidson diagonalization with overlap

---- Real-time Memory Report at c_bands before calling an iterative solver
           817 MiB given to the printing process from OS
             0 MiB allocation reported by mallinfo(arena+hblkhd)
        209652 MiB available memory on the node where the printing process lives
------------------
     ethr =  8.81E-13,  avg # of iterations = 15.3

     negative rho (up, down):  4.350E-04 0.000E+00

     add environment contribution to local potential

     total cpu time spent up to now is     3124.6 secs

     total energy              =    -782.11332630 Ry
     estimated scf accuracy    <          6.6E-10 Ry

     total charge of GC-SCF    =      -6.75927547 e
     the Fermi energy          =      -1.90421606 eV
                        (error :       0.00021606 eV)
     electrostatic embedding   =      -5.25853830 Ry
     cavitation energy         =       0.03399560 Ry
     electrolyte free energy   =      -0.08549754 Ry
     correction to one-el term =     218.22780285 Ry

     iteration # 42     ecut=    80.00 Ry     beta= 0.20
     Davidson diagonalization with overlap

---- Real-time Memory Report at c_bands before calling an iterative solver
           817 MiB given to the printing process from OS
             0 MiB allocation reported by mallinfo(arena+hblkhd)
        209670 MiB available memory on the node where the printing process lives
------------------
     ethr =  4.04E-13,  avg # of iterations = 16.4

     negative rho (up, down):  4.349E-04 0.000E+00

     add environment contribution to local potential

     total cpu time spent up to now is     3192.8 secs

     total energy              =    -782.11332632 Ry
     estimated scf accuracy    <          3.4E-10 Ry

     total charge of GC-SCF    =      -6.75988464 e
     the Fermi energy          =      -1.90415591 eV
                        (error :       0.00015591 eV)
     electrostatic embedding   =      -5.25915040 Ry
     cavitation energy         =       0.03399560 Ry
     electrolyte free energy   =      -0.08551554 Ry
     correction to one-el term =     218.23829019 Ry

     iteration # 43     ecut=    80.00 Ry     beta= 0.20
     Davidson diagonalization with overlap

---- Real-time Memory Report at c_bands before calling an iterative solver
           817 MiB given to the printing process from OS
             0 MiB allocation reported by mallinfo(arena+hblkhd)
        209671 MiB available memory on the node where the printing process lives
------------------
     ethr =  2.08E-13,  avg # of iterations = 28.3

     negative rho (up, down):  4.349E-04 0.000E+00

     add environment contribution to local potential

     total cpu time spent up to now is     3284.3 secs

     total energy              =    -782.11332627 Ry
     estimated scf accuracy    <          1.8E-10 Ry

     total charge of GC-SCF    =      -6.76009279 e
     the Fermi energy          =      -1.90407802 eV
                        (error :       0.00007802 eV)
     electrostatic embedding   =      -5.25995195 Ry
     cavitation energy         =       0.03399560 Ry
     electrolyte free energy   =      -0.08553853 Ry
     correction to one-el term =     218.25324096 Ry

     iteration # 44     ecut=    80.00 Ry     beta= 0.20
     Davidson diagonalization with overlap

---- Real-time Memory Report at c_bands before calling an iterative solver
           817 MiB given to the printing process from OS
             0 MiB allocation reported by mallinfo(arena+hblkhd)
        209601 MiB available memory on the node where the printing process lives
------------------
     ethr =  1.09E-13,  avg # of iterations = 26.1

     negative rho (up, down):  4.348E-04 0.000E+00

     add environment contribution to local potential

     total cpu time spent up to now is     3377.3 secs

     total energy              =    -782.11332627 Ry
     estimated scf accuracy    <          1.3E-10 Ry

     total charge of GC-SCF    =      -6.76030365 e
     the Fermi energy          =      -1.90405955 eV
                        (error :       0.00005955 eV)
     electrostatic embedding   =      -5.26025165 Ry
     cavitation energy         =       0.03399560 Ry
     electrolyte free energy   =      -0.08554648 Ry
     correction to one-el term =     218.25938465 Ry

     iteration # 45     ecut=    80.00 Ry     beta= 0.20
     Davidson diagonalization with overlap

---- Real-time Memory Report at c_bands before calling an iterative solver
           817 MiB given to the printing process from OS
             0 MiB allocation reported by mallinfo(arena+hblkhd)
        209607 MiB available memory on the node where the printing process lives
------------------
     ethr =  1.00E-13,  avg # of iterations = 26.5

     negative rho (up, down):  4.348E-04 0.000E+00

     add environment contribution to local potential

     total cpu time spent up to now is     3475.7 secs

     total energy              =    -782.11332627 Ry
     estimated scf accuracy    <          8.3E-11 Ry

     total charge of GC-SCF    =      -6.76066209 e
     the Fermi energy          =      -1.90401533 eV
                        (error :       0.00001533 eV)
     electrostatic embedding   =      -5.26052959 Ry
     cavitation energy         =       0.03399560 Ry
     electrolyte free energy   =      -0.08555458 Ry
     correction to one-el term =     218.26461188 Ry

     iteration # 46     ecut=    80.00 Ry     beta= 0.20
     Davidson diagonalization with overlap

---- Real-time Memory Report at c_bands before calling an iterative solver
           817 MiB given to the printing process from OS
             0 MiB allocation reported by mallinfo(arena+hblkhd)
        209613 MiB available memory on the node where the printing process lives
------------------
     ethr =  1.00E-13,  avg # of iterations = 23.2

     negative rho (up, down):  4.347E-04 0.000E+00

     add environment contribution to local potential

     total cpu time spent up to now is     3567.6 secs

     total energy              =    -782.11332623 Ry
     estimated scf accuracy    <          8.3E-11 Ry

     total charge of GC-SCF    =      -6.76066173 e
     the Fermi energy          =      -1.90398071 eV
                        (error :       0.00001929 eV)
     electrostatic embedding   =      -5.26102871 Ry
     cavitation energy         =       0.03399560 Ry
     electrolyte free energy   =      -0.08556820 Ry
     correction to one-el term =     218.27441635 Ry

     iteration # 47     ecut=    80.00 Ry     beta= 0.20
     Davidson diagonalization with overlap

---- Real-time Memory Report at c_bands before calling an iterative solver
           817 MiB given to the printing process from OS
             0 MiB allocation reported by mallinfo(arena+hblkhd)
        209620 MiB available memory on the node where the printing process lives
------------------
     ethr =  1.00E-13,  avg # of iterations = 22.9

     negative rho (up, down):  4.347E-04 0.000E+00

     add environment contribution to local potential

     total cpu time spent up to now is     3656.1 secs

     total energy              =    -782.11332623 Ry
     estimated scf accuracy    <          3.5E-11 Ry

     total charge of GC-SCF    =      -6.76069287 e
     the Fermi energy          =      -1.90397190 eV
                        (error :       0.00002810 eV)
     electrostatic embedding   =      -5.26104310 Ry
     cavitation energy         =       0.03399560 Ry
     electrolyte free energy   =      -0.08556835 Ry
     correction to one-el term =     218.27499981 Ry

     iteration # 48     ecut=    80.00 Ry     beta= 0.20
     Davidson diagonalization with overlap

---- Real-time Memory Report at c_bands before calling an iterative solver
           817 MiB given to the printing process from OS
             0 MiB allocation reported by mallinfo(arena+hblkhd)
        209639 MiB available memory on the node where the printing process lives
------------------
     ethr =  1.00E-13,  avg # of iterations = 19.2

     negative rho (up, down):  4.347E-04 0.000E+00

     add environment contribution to local potential

     total cpu time spent up to now is     3727.7 secs

     total energy              =    -782.11332623 Ry
     estimated scf accuracy    <          3.5E-11 Ry

     total charge of GC-SCF    =      -6.76061054 e
     the Fermi energy          =      -1.90397246 eV
                        (error :       0.00002754 eV)
     electrostatic embedding   =      -5.26109117 Ry
     cavitation energy         =       0.03399560 Ry
     electrolyte free energy   =      -0.08556954 Ry
     correction to one-el term =     218.27603331 Ry

     iteration # 49     ecut=    80.00 Ry     beta= 0.20
     Davidson diagonalization with overlap

---- Real-time Memory Report at c_bands before calling an iterative solver
           817 MiB given to the printing process from OS
             0 MiB allocation reported by mallinfo(arena+hblkhd)
        209671 MiB available memory on the node where the printing process lives
------------------
     ethr =  1.00E-13,  avg # of iterations = 18.2

     negative rho (up, down):  4.347E-04 0.000E+00

     add environment contribution to local potential

     total cpu time spent up to now is     3798.5 secs

     total energy              =    -782.11332623 Ry
     estimated scf accuracy    <          1.3E-11 Ry

     total charge of GC-SCF    =      -6.76053841 e
     the Fermi energy          =      -1.90397986 eV
                        (error :       0.00002014 eV)
     electrostatic embedding   =      -5.26098156 Ry
     cavitation energy         =       0.03399560 Ry
     electrolyte free energy   =      -0.08556646 Ry
     correction to one-el term =     218.27400426 Ry

     iteration # 50     ecut=    80.00 Ry     beta= 0.20
     Davidson diagonalization with overlap

---- Real-time Memory Report at c_bands before calling an iterative solver
           817 MiB given to the printing process from OS
             0 MiB allocation reported by mallinfo(arena+hblkhd)
        209689 MiB available memory on the node where the printing process lives
------------------
     ethr =  1.00E-13,  avg # of iterations = 17.5

     negative rho (up, down):  4.347E-04 0.000E+00

     add environment contribution to local potential

     total cpu time spent up to now is     3865.3 secs

     total energy              =    -782.11332624 Ry
     estimated scf accuracy    <          8.3E-12 Ry

     total charge of GC-SCF    =      -6.76052406 e
     the Fermi energy          =      -1.90398737 eV
                        (error :       0.00001263 eV)
     electrostatic embedding   =      -5.26088171 Ry
     cavitation energy         =       0.03399560 Ry
     electrolyte free energy   =      -0.08556372 Ry
     correction to one-el term =     218.27206292 Ry

     iteration # 51     ecut=    80.00 Ry     beta= 0.20
     Davidson diagonalization with overlap

---- Real-time Memory Report at c_bands before calling an iterative solver
           817 MiB given to the printing process from OS
             0 MiB allocation reported by mallinfo(arena+hblkhd)
        209687 MiB available memory on the node where the printing process lives
------------------
     ethr =  1.00E-13,  avg # of iterations = 13.4

     negative rho (up, down):  4.347E-04 0.000E+00

     add environment contribution to local potential

     total cpu time spent up to now is     3925.1 secs

     total energy              =    -782.11332624 Ry
     estimated scf accuracy    <          4.1E-12 Ry

     total charge of GC-SCF    =      -6.76047056 e
     the Fermi energy          =      -1.90398970 eV
                        (error :       0.00001030 eV)
     electrostatic embedding   =      -5.26086221 Ry
     cavitation energy         =       0.03399560 Ry
     electrolyte free energy   =      -0.08556318 Ry
     correction to one-el term =     218.27168829 Ry

     iteration # 52     ecut=    80.00 Ry     beta= 0.20
     Davidson diagonalization with overlap

---- Real-time Memory Report at c_bands before calling an iterative solver
           817 MiB given to the printing process from OS
             0 MiB allocation reported by mallinfo(arena+hblkhd)
        209636 MiB available memory on the node where the printing process lives
------------------
     ethr =  1.00E-13,  avg # of iterations = 16.9

     negative rho (up, down):  4.347E-04 0.000E+00

     add environment contribution to local potential

     total cpu time spent up to now is     3989.9 secs

     total energy              =    -782.11332624 Ry
     estimated scf accuracy    <          9.5E-13 Ry

     total charge of GC-SCF    =      -6.76046806 e
     the Fermi energy          =      -1.90399470 eV
                        (error :       0.00000530 eV)
     electrostatic embedding   =      -5.26078827 Ry
     cavitation energy         =       0.03399560 Ry
     electrolyte free energy   =      -0.08556115 Ry
     correction to one-el term =     218.27025130 Ry

     iteration # 53     ecut=    80.00 Ry     beta= 0.20
     Davidson diagonalization with overlap

---- Real-time Memory Report at c_bands before calling an iterative solver
           817 MiB given to the printing process from OS
             0 MiB allocation reported by mallinfo(arena+hblkhd)
        209709 MiB available memory on the node where the printing process lives
------------------
     ethr =  1.00E-13,  avg # of iterations =  9.4

     negative rho (up, down):  4.347E-04 0.000E+00

     add environment contribution to local potential

     total cpu time spent up to now is     4040.4 secs

     total energy              =    -782.11332624 Ry
     estimated scf accuracy    <          3.6E-13 Ry

     total charge of GC-SCF    =      -6.76045830 e
     the Fermi energy          =      -1.90399563 eV
                        (error :       0.00000437 eV)
     electrostatic embedding   =      -5.26078366 Ry
     cavitation energy         =       0.03399560 Ry
[...]
     atom   50 type  1   force =    -0.00000394   -0.63344108  -12.81271392
     atom   51 type  1   force =    -0.00000573   -0.28927962   11.04736491
     atom   52 type  1   force =    -0.00000323    0.30385958    8.04574656
     The local contribution  to forces
     atom    1 type  1   force =    -0.00000000    0.47364993  -11.59638531
     atom    2 type  1   force =    -0.00000000    0.09086566   -7.03848553
     atom    3 type  1   force =    -0.00000000   -0.32863368   -9.85439620
     atom    4 type  1   force =     0.00000000    0.06808221   -5.15594618
     atom    5 type  1   force =     0.00000000    0.02625022   -0.51836299
     atom    6 type  1   force =     0.00000000    0.10613743    4.10370769
     atom    7 type  1   force =    -0.00000000   -0.06874208   -2.68705564
     atom    8 type  1   force =     0.00000000   -0.06508094    1.52405205
     atom    9 type  1   force =     0.00000000   -0.16874236    6.11180313
     atom   10 type  1   force =     0.00000000   -0.27313999   10.92341839
     atom   11 type  1   force =     0.00000000    0.28445682    7.93037611
     atom   12 type  1   force =    -0.00000000   -0.25455459   12.26020142
     atom   13 type  1   force =    -0.00000000   -0.61621820  -12.77305341
     atom   14 type  1   force =    -0.00000025    0.16862551   -6.10459615
     atom   15 type  1   force =     0.00000003    0.06555588   -1.52560280
     atom   16 type  1   force =    -0.00000140   -0.10968986   -4.09782787
     atom   17 type  1   force =     0.00000183   -0.02670510    0.52207759
     atom   18 type  1   force =     0.00000120   -0.07108822    5.15997942
     atom   19 type  1   force =    -0.00000541    0.32484750    9.86057121
     atom   20 type  1   force =     0.00000005    0.06998063    2.67192322
     atom   21 type  1   force =     0.00000175   -0.08785553    7.03751145
     atom   22 type  1   force =     0.00000367   -0.47079436   11.60530686
     atom   23 type  1   force =     0.00000188    0.25922035  -12.25876808
     atom   24 type  1   force =    -0.00000295    0.61549645   12.76501429
     atom   25 type  1   force =    -0.00000495    0.27040111  -10.91941448
     atom   26 type  1   force =    -0.00000230   -0.28250913   -7.94903498
     atom   27 type  1   force =     0.00000096    0.47365657  -11.59639628
     atom   28 type  1   force =     0.00000096    0.09086329   -7.03850026
     atom   29 type  1   force =     0.00000096   -0.32863590   -9.85438582
     atom   30 type  1   force =     0.00000096    0.06808200   -5.15593216
     atom   31 type  1   force =     0.00000096    0.02624825   -0.51835347
     atom   32 type  1   force =     0.00000096    0.10613515    4.10371623
     atom   33 type  1   force =     0.00000096   -0.06874318   -2.68706933
     atom   34 type  1   force =     0.00000096   -0.06507888    1.52404373
     atom   35 type  1   force =     0.00000096   -0.16874145    6.11179593
     atom   36 type  1   force =     0.00000096   -0.27314391   10.92341249
     atom   37 type  1   force =     0.00000096    0.28446267    7.93038770
     atom   38 type  1   force =     0.00000096   -0.25455062   12.26021471
     atom   39 type  1   force =     0.00000097   -0.61621846  -12.77304845
     atom   40 type  1   force =     0.00000217    0.16862551   -6.10459615
     atom   41 type  1   force =     0.00000190    0.06555588   -1.52560280
     atom   42 type  1   force =     0.00000333   -0.10968986   -4.09782787
     atom   43 type  1   force =     0.00000009   -0.02670510    0.52207759
     atom   44 type  1   force =     0.00000072   -0.07108822    5.15997942
     atom   45 type  1   force =     0.00000734    0.32484750    9.86057121
     atom   46 type  1   force =     0.00000187    0.06998063    2.67192322
     atom   47 type  1   force =     0.00000017   -0.08785553    7.03751145
     atom   48 type  1   force =    -0.00000175   -0.47079436   11.60530686
     atom   49 type  1   force =     0.00000004    0.25922035  -12.25876808
     atom   50 type  1   force =     0.00000487    0.61549645   12.76501429
     atom   51 type  1   force =     0.00000687    0.27040111  -10.91941448
     atom   52 type  1   force =     0.00000422   -0.28250913   -7.94903498
     The core correction contribution to forces
     atom    1 type  1   force =     0.00000000    0.00000000    0.00000000
     atom    2 type  1   force =     0.00000000    0.00000000    0.00000000
     atom    3 type  1   force =     0.00000000    0.00000000    0.00000000
     atom    4 type  1   force =     0.00000000    0.00000000    0.00000000
     atom    5 type  1   force =     0.00000000    0.00000000    0.00000000
     atom    6 type  1   force =     0.00000000    0.00000000    0.00000000
     atom    7 type  1   force =     0.00000000    0.00000000    0.00000000
     atom    8 type  1   force =     0.00000000    0.00000000    0.00000000
     atom    9 type  1   force =     0.00000000    0.00000000    0.00000000
     atom   10 type  1   force =     0.00000000    0.00000000    0.00000000
     atom   11 type  1   force =     0.00000000    0.00000000    0.00000000
     atom   12 type  1   force =     0.00000000    0.00000000    0.00000000
     atom   13 type  1   force =     0.00000000    0.00000000    0.00000000
     atom   14 type  1   force =     0.00000000    0.00000000    0.00000000
     atom   15 type  1   force =     0.00000000    0.00000000    0.00000000
     atom   16 type  1   force =     0.00000000    0.00000000    0.00000000
     atom   17 type  1   force =     0.00000000    0.00000000    0.00000000
     atom   18 type  1   force =     0.00000000    0.00000000    0.00000000
     atom   19 type  1   force =     0.00000000    0.00000000    0.00000000
     atom   20 type  1   force =     0.00000000    0.00000000    0.00000000
     atom   21 type  1   force =     0.00000000    0.00000000    0.00000000
     atom   22 type  1   force =     0.00000000    0.00000000    0.00000000
     atom   23 type  1   force =     0.00000000    0.00000000    0.00000000
     atom   24 type  1   force =     0.00000000    0.00000000    0.00000000
     atom   25 type  1   force =     0.00000000    0.00000000    0.00000000
     atom   26 type  1   force =     0.00000000    0.00000000    0.00000000
     atom   27 type  1   force =     0.00000000    0.00000000    0.00000000
     atom   28 type  1   force =     0.00000000    0.00000000    0.00000000
     atom   29 type  1   force =     0.00000000    0.00000000    0.00000000
     atom   30 type  1   force =     0.00000000    0.00000000    0.00000000
     atom   31 type  1   force =     0.00000000    0.00000000    0.00000000
     atom   32 type  1   force =     0.00000000    0.00000000    0.00000000
     atom   33 type  1   force =     0.00000000    0.00000000    0.00000000
     atom   34 type  1   force =     0.00000000    0.00000000    0.00000000
     atom   35 type  1   force =     0.00000000    0.00000000    0.00000000
     atom   36 type  1   force =     0.00000000    0.00000000    0.00000000
     atom   37 type  1   force =     0.00000000    0.00000000    0.00000000
     atom   38 type  1   force =     0.00000000    0.00000000    0.00000000
     atom   39 type  1   force =     0.00000000    0.00000000    0.00000000
     atom   40 type  1   force =     0.00000000    0.00000000    0.00000000
     atom   41 type  1   force =     0.00000000    0.00000000    0.00000000
     atom   42 type  1   force =     0.00000000    0.00000000    0.00000000
     atom   43 type  1   force =     0.00000000    0.00000000    0.00000000
     atom   44 type  1   force =     0.00000000    0.00000000    0.00000000
     atom   45 type  1   force =     0.00000000    0.00000000    0.00000000
     atom   46 type  1   force =     0.00000000    0.00000000    0.00000000
     atom   47 type  1   force =     0.00000000    0.00000000    0.00000000
     atom   48 type  1   force =     0.00000000    0.00000000    0.00000000
     atom   49 type  1   force =     0.00000000    0.00000000    0.00000000
     atom   50 type  1   force =     0.00000000    0.00000000    0.00000000
     atom   51 type  1   force =     0.00000000    0.00000000    0.00000000
     atom   52 type  1   force =     0.00000000    0.00000000    0.00000000
     The Hubbard contrib.    to forces
     atom    1 type  1   force =     0.00000000    0.00000000    0.00000000
     atom    2 type  1   force =     0.00000000    0.00000000    0.00000000
     atom    3 type  1   force =     0.00000000    0.00000000    0.00000000
     atom    4 type  1   force =     0.00000000    0.00000000    0.00000000
     atom    5 type  1   force =     0.00000000    0.00000000    0.00000000
     atom    6 type  1   force =     0.00000000    0.00000000    0.00000000
     atom    7 type  1   force =     0.00000000    0.00000000    0.00000000
     atom    8 type  1   force =     0.00000000    0.00000000    0.00000000
     atom    9 type  1   force =     0.00000000    0.00000000    0.00000000
     atom   10 type  1   force =     0.00000000    0.00000000    0.00000000
     atom   11 type  1   force =     0.00000000    0.00000000    0.00000000
     atom   12 type  1   force =     0.00000000    0.00000000    0.00000000
     atom   13 type  1   force =     0.00000000    0.00000000    0.00000000
     atom   14 type  1   force =     0.00000000    0.00000000    0.00000000
     atom   15 type  1   force =     0.00000000    0.00000000    0.00000000
     atom   16 type  1   force =     0.00000000    0.00000000    0.00000000
     atom   17 type  1   force =     0.00000000    0.00000000    0.00000000
     atom   18 type  1   force =     0.00000000    0.00000000    0.00000000
     atom   19 type  1   force =     0.00000000    0.00000000    0.00000000
     atom   20 type  1   force =     0.00000000    0.00000000    0.00000000
     atom   21 type  1   force =     0.00000000    0.00000000    0.00000000
     atom   22 type  1   force =     0.00000000    0.00000000    0.00000000
     atom   23 type  1   force =     0.00000000    0.00000000    0.00000000
     atom   24 type  1   force =     0.00000000    0.00000000    0.00000000
     atom   25 type  1   force =     0.00000000    0.00000000    0.00000000
     atom   26 type  1   force =     0.00000000    0.00000000    0.00000000
     atom   27 type  1   force =     0.00000000    0.00000000    0.00000000
     atom   28 type  1   force =     0.00000000    0.00000000    0.00000000
     atom   29 type  1   force =     0.00000000    0.00000000    0.00000000
     atom   30 type  1   force =     0.00000000    0.00000000    0.00000000
     atom   31 type  1   force =     0.00000000    0.00000000    0.00000000
     atom   32 type  1   force =     0.00000000    0.00000000    0.00000000
     atom   33 type  1   force =     0.00000000    0.00000000    0.00000000
     atom   34 type  1   force =     0.00000000    0.00000000    0.00000000
     atom   35 type  1   force =     0.00000000    0.00000000    0.00000000
     atom   36 type  1   force =     0.00000000    0.00000000    0.00000000
     atom   37 type  1   force =     0.00000000    0.00000000    0.00000000
     atom   38 type  1   force =     0.00000000    0.00000000    0.00000000
     atom   39 type  1   force =     0.00000000    0.00000000    0.00000000
     atom   40 type  1   force =     0.00000000    0.00000000    0.00000000
     atom   41 type  1   force =     0.00000000    0.00000000    0.00000000
     atom   42 type  1   force =     0.00000000    0.00000000    0.00000000
     atom   43 type  1   force =     0.00000000    0.00000000    0.00000000
     atom   44 type  1   force =     0.00000000    0.00000000    0.00000000
     atom   45 type  1   force =     0.00000000    0.00000000    0.00000000
     atom   46 type  1   force =     0.00000000    0.00000000    0.00000000
     atom   47 type  1   force =     0.00000000    0.00000000    0.00000000
     atom   48 type  1   force =     0.00000000    0.00000000    0.00000000
     atom   49 type  1   force =     0.00000000    0.00000000    0.00000000
     atom   50 type  1   force =     0.00000000    0.00000000    0.00000000
     atom   51 type  1   force =     0.00000000    0.00000000    0.00000000
     atom   52 type  1   force =     0.00000000    0.00000000    0.00000000
     The SCF correction term to forces
     atom    1 type  1   force =    -0.00000000   -0.00000002   -0.00000007
     atom    2 type  1   force =    -0.00000000   -0.00000004    0.00000003
     atom    3 type  1   force =     0.00000000    0.00000004   -0.00000002
     atom    4 type  1   force =     0.00000000    0.00000000    0.00000003
     atom    5 type  1   force =     0.00000000   -0.00000009    0.00000016
     atom    6 type  1   force =    -0.00000000   -0.00000003    0.00000017
     atom    7 type  1   force =    -0.00000000    0.00000005    0.00000015
     atom    8 type  1   force =     0.00000000    0.00000009    0.00000019
     atom    9 type  1   force =     0.00000000   -0.00000003    0.00000021
     atom   10 type  1   force =     0.00000000   -0.00000004    0.00000009
     atom   11 type  1   force =    -0.00000000    0.00000006    0.00000012
     atom   12 type  1   force =     0.00000000    0.00000001    0.00000009
     atom   13 type  1   force =    -0.00000000    0.00000002   -0.00000004
     atom   14 type  1   force =    -0.00000000   -0.00000005    0.00000002
     atom   15 type  1   force =     0.00000000   -0.00000005    0.00000017
     atom   16 type  1   force =    -0.00000000    0.00000008    0.00000009
     atom   17 type  1   force =    -0.00000000   -0.00000001    0.00000018
     atom   18 type  1   force =    -0.00000000   -0.00000008    0.00000019
     atom   19 type  1   force =     0.00000000   -0.00000000    0.00000007
     atom   20 type  1   force =     0.00000000    0.00000008    0.00000018
     atom   21 type  1   force =     0.00000000    0.00000005    0.00000018
     atom   22 type  1   force =     0.00000000   -0.00000002    0.00000011
     atom   23 type  1   force =    -0.00000000   -0.00000001   -0.00000005
     atom   24 type  1   force =    -0.00000000    0.00000002    0.00000003
     atom   25 type  1   force =    -0.00000000   -0.00000000   -0.00000007
     atom   26 type  1   force =     0.00000000    0.00000002    0.00000003
     atom   27 type  1   force =     0.00000000   -0.00000002   -0.00000007
     atom   28 type  1   force =    -0.00000000   -0.00000004    0.00000003
     atom   29 type  1   force =     0.00000000    0.00000004   -0.00000002
     atom   30 type  1   force =     0.00000000    0.00000000    0.00000003
     atom   31 type  1   force =    -0.00000000   -0.00000009    0.00000016
     atom   32 type  1   force =    -0.00000000   -0.00000003    0.00000017
     atom   33 type  1   force =    -0.00000000    0.00000005    0.00000016
     atom   34 type  1   force =    -0.00000000    0.00000009    0.00000019
     atom   35 type  1   force =    -0.00000000   -0.00000003    0.00000021
     atom   36 type  1   force =     0.00000000   -0.00000004    0.00000009
     atom   37 type  1   force =     0.00000000    0.00000006    0.00000012
     atom   38 type  1   force =     0.00000000    0.00000001    0.00000009
     atom   39 type  1   force =     0.00000000    0.00000002   -0.00000004
     atom   40 type  1   force =     0.00000000   -0.00000005    0.00000002
     atom   41 type  1   force =    -0.00000000   -0.00000005    0.00000017
     atom   42 type  1   force =     0.00000000    0.00000008    0.00000009
     atom   43 type  1   force =     0.00000000   -0.00000001    0.00000018
     atom   44 type  1   force =     0.00000000   -0.00000008    0.00000019
     atom   45 type  1   force =    -0.00000000   -0.00000000    0.00000007
     atom   46 type  1   force =    -0.00000000    0.00000008    0.00000018
     atom   47 type  1   force =    -0.00000000    0.00000005    0.00000018
     atom   48 type  1   force =    -0.00000000   -0.00000002    0.00000011
     atom   49 type  1   force =     0.00000000   -0.00000001   -0.00000005
     atom   50 type  1   force =     0.00000000    0.00000002    0.00000003
     atom   51 type  1   force =     0.00000000   -0.00000000   -0.00000007
     atom   52 type  1   force =    -0.00000000    0.00000002    0.00000003

     Total force =     0.002471     Total SCF correction =     0.000001

     Writing all to output data dir ./Li/Lithium.save/ :
     XML data file
     init_run     :     26.62s CPU     36.77s WALL (       1 calls)
     electrons    :   3150.71s CPU   4347.89s WALL (       1 calls)
     forces       :     44.62s CPU     46.62s WALL (       1 calls)

     Called by init_run:
     wfcinit      :      4.68s CPU      6.38s WALL (       1 calls)
     wfcinit:wfcr :      4.32s CPU      6.02s WALL (      12 calls)
     potinit      :      0.81s CPU      0.88s WALL (       1 calls)
     hinit0       :      5.69s CPU      6.41s WALL (       1 calls)

     Called by electrons:
     c_bands      :   2422.59s CPU   3466.18s WALL (      60 calls)
     sum_band     :    129.32s CPU    183.65s WALL (      60 calls)
     v_of_rho     :      6.47s CPU      7.59s WALL (      61 calls)
     v_h          :      0.56s CPU      0.67s WALL (      61 calls)
     v_xc         :      5.91s CPU      6.92s WALL (      61 calls)
     newd         :      4.33s CPU      6.55s WALL (      61 calls)
     PAW_pot      :      0.64s CPU      0.79s WALL (      61 calls)
     mix_rho      :     21.24s CPU     24.89s WALL (      60 calls)

     Called by c_bands:
     init_us_2    :     23.79s CPU     24.00s WALL (    1464 calls)
     cegterg      :   2093.14s CPU   2610.72s WALL (     924 calls)

     Called by sum_band:
     sum_band:wei :      0.12s CPU      0.14s WALL (      60 calls)
     sum_band:loo :    124.71s CPU    175.90s WALL (      60 calls)
     sum_band:buf :      2.53s CPU      2.56s WALL (     720 calls)
     sum_band:ini :     11.89s CPU     11.93s WALL (     720 calls)
     sum_band:cal :     19.54s CPU     21.41s WALL (     720 calls)
     sum_band:bec :      0.17s CPU      0.21s WALL (     720 calls)
     addusdens    :      2.58s CPU      4.16s WALL (      60 calls)
                                        0.00s GPU  (      60 calls)
     addusd:skk   :      0.30s CPU      1.13s WALL (      60 calls)
                                        0.00s GPU  (      60 calls)

     Called by *egterg:
     cdiaghg      :    626.89s CPU    648.88s WALL (   12069 calls)
     cegterg:over :    119.54s CPU    131.04s WALL (   11209 calls)
     cegterg:upda :     96.69s CPU     99.51s WALL (   11209 calls)
     cegterg:last :     43.83s CPU     43.99s WALL (    1246 calls)
     h_psi        :   1058.15s CPU   1524.91s WALL (   12145 calls)
     s_psi        :    106.78s CPU    108.20s WALL (   12145 calls)
     g_psi        :      1.19s CPU      1.35s WALL (   11209 calls)

     Called by h_psi:
     h_psi:calbec :    128.10s CPU    141.95s WALL (   12145 calls)
     vloc_psi     :    817.71s CPU   1264.85s WALL (   12145 calls)
                                        0.00s GPU  (   12145 calls)
     add_vuspsi   :    107.28s CPU    108.54s WALL (   12145 calls)

     General routines
     calbec       :    148.77s CPU    164.62s WALL (   12913 calls)
     fft          :      5.43s CPU      6.99s WALL (     793 calls)
     ffts         :     11.96s CPU     14.40s WALL (    7378 calls)
     fftw         :    877.62s CPU   1359.75s WALL (  852930 calls)
     interpolate  :      1.13s CPU      1.27s WALL (      61 calls)

     Parallel routines

     PAW routines
     PAW_pot      :      0.64s CPU      0.79s WALL (      61 calls)
     PAW_symme    :      0.02s CPU      0.03s WALL (     121 calls)

     Environ routines

     PWSCF        :  53m42.18s CPU      1h13m WALL


   This run was terminated on:  13:23:47   5Jan2025            

=------------------------------------------------------------------------------=
   JOB DONE.
=------------------------------------------------------------------------------=
