
     Program PWSCF v.7.4 starts on  4Jan2025 at 19:15:18 

     This program is part of the open-source Quantum ESPRESSO suite
     for quantum simulation of materials; please cite
         "P. Giannozzi et al., J. Phys.:Condens. Matter 21 395502 (2009);
         "P. Giannozzi et al., J. Phys.:Condens. Matter 29 465901 (2017);
         "P. Giannozzi et al., J. Chem. Phys. 152 154105 (2020);
          URL http://www.quantum-espresso.org", 
     in publications or presentations arising from this work. More details at
     http://www.quantum-espresso.org/quote

     Parallel version (MPI & OpenMP), running on     512 processor cores
     Number of MPI processes:               512
     Threads/MPI process:                     1

     MPI processes distributed on     4 nodes
     232569 MiB available memory on the printing compute node when the environment starts

     Reading input from espresso.pwi
Warning: card &CELL ignored
Warning: card    PRESS_CONV_THR   = 0.1 ignored
Warning: card    CELL_DOFREE      = 'ALL' ignored
Warning: card / ignored
Warning: card &FCP ignored
Warning: card / ignored
Warning: card &RISM ignored
Warning: card / ignored

     Current dimensions of program PWSCF are:
     Max number of different atomic species (ntypx) = 10
     Max number of k-points (npk) =  40000
     Max angular momentum in pseudopotentials (lmaxx) =  4

     IMPORTANT: XC functional enforced from input :
     Exchange-correlation= PBE
                           (   1   4   3   4   0   0   0)
     Any further DFT definition will be discarded
     Please, verify this is what you really want


     Reading input from environ.in:
     * using ionic solvent mode
     * setting boundary derivatives method to SSCS default
     * setting electrolyte-boundary derivatives method to SSCS default

Environ Warning (1001): card EOF ignored

     

     K-points division:     npool     =       2
     R & G space division:  proc/nbgrp/npool/nimage =     256
     Subspace diagonalization in iterative solution of the eigenvalue problem:
     one sub-group per band group will be used
     ELPA distributed-memory algorithm (size of sub-group:  2*  2 procs)


     Parallelization info
     --------------------
     sticks:   dense  smooth     PW     G-vecs:    dense   smooth      PW
     Min          86      34      9                52542    13274    1767
     Max          87      35     10                52593    13321    1811
     Sum       22119    8865   2329             13455463  3404289  459339

     Using Slab Decomposition



     bravais-lattice index     =           12
     lattice parameter (alat)  =      18.3607  a.u.
     unit-cell volume          =   35212.2554 (a.u.)^3
     number of atoms/cell      =           68
     number of atomic types    =            1
     number of electrons       =       204.00
     number of Kohn-Sham states=          153
     kinetic-energy cutoff     =      80.0000  Ry
     charge density cutoff     =     800.0000  Ry
     scf convergence threshold =      1.0E-06
     mixing beta               =       0.2000
     number of iterations used =            8  local-TF  mixing
     energy convergence thresh.=      1.0E-05
     force convergence thresh. =      3.9E-04
     Exchange-correlation= PBE
                           (   1   4   3   4   0   0   0)
     nstep                     =          999


     ================================================================================

                                  Environ Setup Summary

     ================================================================================

     Please cite

          O. Andreussi, I. Dabo and N. Marzari, J. Chem. Phys. 136, 064102 (2012)
          F. Nattino, M. Truscott, N. Marzari, and O. Andreussi, J. Chem. Phys. 150, 041722 (2019)

     in publications or presentations arising from this work.

     ================================================================================

     Parameters
     ==========

     compensation onset threshold      =               0.1000E+00
     static permittivity               =                    89.90
     surface tension in input (dyn/cm) =                    37.30
     surface tension in internal units =               0.4792E-04

     Solvent Boundary
     ================

     solvent mode                      =                    ionic
     derivatives method                =                   lowmem
     electrolyte derivatives method    =                   lowmem
     numerical core for derivatives    =                      fft
     switching function adopted        =                     SCCS
     density limit for vacuum region   =               0.5000E-02
     density limit for bulk solvent    =               0.1000E-03
     soft-sphere radius mode           =                    bondi
     soft-sphere softness              =                     0.50
     alpha                             =                     1.32

     Electrostatic Setup
     ===================

     electrostatic problem to solve    =                    modpb
     numerical solver adopted          =                   newton
     type of auxiliary density adopted =                     none
     numerical core for poisson        =                      fft
     adopting a nested solver scheme
     inner solver                      =                       cg
     inner core                        =                      fft
     type of pbc corrections           =                parabolic
     numerical core for corrections    =                      1da

     ================================================================================


     >>>>> Grand-Canonical SCF is activated <<<<<
     Initial Total Charge  =     0.000000 e
     Target Fermi Energy   =    -1.904000 eV
     Thr. of Fermi Energy  =     0.001000 eV
     Wave-shift of Kerker  =     0.400000 bohr^-1
     Wave-shift of Hartree =     1.500000 bohr^-1
     Mixing Rate of Fermi  =     0.050000

     celldm(1)=  18.360747  celldm(2)=   1.060660  celldm(3)=   5.518976
     celldm(4)=  -0.235702  celldm(5)=   0.000000  celldm(6)=   0.000000

     crystal axes: (cart. coord. in units of alat)
               a(1) = (   1.000000   0.000000   0.000000 )  
               a(2) = (  -0.250000   1.030776   0.000000 )  
               a(3) = (   0.000000   0.000000   5.518976 )  

     reciprocal axes: (cart. coord. in units 2 pi/alat)
               b(1) = (  1.000000  0.242536 -0.000000 )  
               b(2) = (  0.000000  0.970143  0.000000 )  
               b(3) = (  0.000000 -0.000000  0.181193 )  


     PseudoPot. # 1 for Li read from file:
     /work/e89/e89/ba3g18/Repos/Pseudopotentials/Pslibrary/Li.pbe-sl-kjpaw_psl.1.0.0.UPF
     MD5 check sum: 3f4d2cafebb47c6c3aa8ed472e6f074d
     Pseudo is Projector augmented-wave, Zval =  3.0
     Generated using 'atomic' code by A. Dal Corso  v.7.4
     Shape of augmentation charge: PSQ
     Using radial grid of 1017 points,  4 beta functions with: 
                l(1) =   0
                l(2) =   0
                l(3) =   1
                l(4) =   1
     Q(r) pseudized with 0 coefficients 


     atomic species   valence    mass     pseudopotential
     Li                3.00     6.94000     Li( 1.00)

     No symmetry found


                                    s                        frac. trans.

      isym =  1     identity                                     

 cryst.   s( 1) = (     1          0          0      )
                  (     0          1          0      )
                  (     0          0          1      )

 cart.    s( 1) = (  1.0000000  0.0000000  0.0000000 )
                  (  0.0000000  1.0000000  0.0000000 )
                  (  0.0000000  0.0000000  1.0000000 )


     point group C_1 (1)    
     there are  1 classes
     the character table:

       E    
A      1.00

     the symmetry operations in each class and the name of the first element:

     E        1
          identity                                               

   Cartesian axes

     site n.     atom                  positions (alat units)
         1        Li     tau(   1) = (  -0.0002904   0.0112228   2.0608583  )
         2        Li     tau(   2) = (   0.0001966   0.6092127   3.4197301  )
         3        Li     tau(   3) = (   0.2502480   0.7823350   3.2697479  )
         4        Li     tau(   4) = (   0.2503256   0.1879401   3.3165885  )
         5        Li     tau(   5) = (   0.0001881   0.3654146   3.1632230  )
         6        Li     tau(   6) = (   0.2501704   0.5466118   3.0011369  )
         7        Li     tau(   7) = (   0.2499404   0.9071172   2.6586603  )
         8        Li     tau(   8) = (   0.0002426   0.9728210   3.0853143  )
         9        Li     tau(   9) = (   0.0001017   0.1204708   2.9125779  )
        10        Li     tau(  10) = (   0.2499762   0.3029051   2.7337038  )
        11        Li     tau(  11) = (  -0.0001634   0.4863092   2.5564304  )
        12        Li     tau(  12) = (   0.2498108   0.6611493   2.3932370  )
        13        Li     tau(  13) = (   0.0000467   0.7300679   2.8219114  )
        14        Li     tau(  14) = (   0.2498305   0.0577860   2.4902429  )
        15        Li     tau(  15) = (  -0.0002634   0.2475636   2.2993386  )
        16        Li     tau(  16) = (   0.2497559   0.4091309   2.1321319  )
        17        Li     tau(  17) = (  -0.0002325   0.8533343   2.2159500  )
        18        Li     tau(  18) = (   0.0002589   0.0555914   3.2196502  )
        19        Li     tau(  19) = (   0.0001908   0.6728150   3.1257235  )
        20        Li     tau(  20) = (   0.2501637   0.8476286   2.9626072  )
        21        Li     tau(  21) = (   0.2501687   0.2453938   3.0287437  )
        22        Li     tau(  22) = (   0.0000587   0.4268285   2.8603854  )
        23        Li     tau(  23) = (   0.2499537   0.6038884   2.6971201  )
        24        Li     tau(  24) = (   0.2498113   0.9685464   2.3557329  )
        25        Li     tau(  25) = (   0.0000227   1.0310540   2.7853239  )
        26        Li     tau(  26) = (  -0.0001070   0.1826837   2.6064843  )
        27        Li     tau(  27) = (   0.2497569   0.3611212   2.4336474  )
        28        Li     tau(  28) = (  -0.0002491   0.5515974   2.2492277  )
        29        Li     tau(  29) = (   0.2498030   0.7247394   2.0991463  )
        30        Li     tau(  30) = (  -0.0001695   0.7873365   2.5178872  )
        31        Li     tau(  31) = (   0.2496749   0.1152080   2.2023535  )
        32        Li     tau(  32) = (   0.0003060   0.2919798   3.4580151  )
        33        Li     tau(  33) = (   0.2502320   0.4805903   3.3029963  )
        34        Li     tau(  34) = (   0.0002424   0.9247992   3.3867735  )
        35        Li     tau(  35) = (   0.4996922   0.0112139   2.0608600  )
        36        Li     tau(  36) = (   0.5001985   0.6092088   3.4197362  )
        37        Li     tau(  37) = (   0.7502556   0.7823364   3.2697479  )
        38        Li     tau(  38) = (   0.7503267   0.1879392   3.3166015  )
        39        Li     tau(  39) = (   0.5001863   0.3654145   3.1632240  )
        40        Li     tau(  40) = (   0.7501660   0.5466118   3.0011341  )
        41        Li     tau(  41) = (   0.7499447   0.9071204   2.6586593  )
        42        Li     tau(  42) = (   0.5002426   0.9728242   3.0853040  )
        43        Li     tau(  43) = (   0.5001067   0.1204701   2.9125807  )
        44        Li     tau(  44) = (   0.7499782   0.3029072   2.7337105  )
        45        Li     tau(  45) = (   0.4998343   0.4863087   2.5564301  )
        46        Li     tau(  46) = (   0.7498070   0.6611489   2.3932313  )
        47        Li     tau(  47) = (   0.5000476   0.7300684   2.8219160  )
        48        Li     tau(  48) = (   0.7498293   0.0577886   2.4902268  )
        49        Li     tau(  49) = (   0.4997433   0.2475616   2.2993407  )
        50        Li     tau(  50) = (   0.7497617   0.4091416   2.1321413  )
        51        Li     tau(  51) = (   0.4997673   0.8533369   2.2159525  )
        52        Li     tau(  52) = (   0.5002641   0.0555911   3.2196514  )
        53        Li     tau(  53) = (   0.5001921   0.6728189   3.1257308  )
        54        Li     tau(  54) = (   0.7501665   0.8476299   2.9626060  )
        55        Li     tau(  55) = (   0.7501694   0.2453949   3.0287536  )
        56        Li     tau(  56) = (   0.5000560   0.4268262   2.8603847  )
        57        Li     tau(  57) = (   0.7499520   0.6038890   2.6971163  )
        58        Li     tau(  58) = (   0.7498134   0.9685486   2.3557299  )
        59        Li     tau(  59) = (   0.5000207   1.0310540   2.7853110  )
        60        Li     tau(  60) = (   0.4998975   0.1826827   2.6064878  )
        61        Li     tau(  61) = (   0.7497574   0.3611232   2.4336545  )
        62        Li     tau(  62) = (   0.4997457   0.5515948   2.2492250  )
        63        Li     tau(  63) = (   0.7498001   0.7247459   2.0991422  )
        64        Li     tau(  64) = (   0.4998333   0.7873393   2.5178916  )
        65        Li     tau(  65) = (   0.7496733   0.1152085   2.2023318  )
        66        Li     tau(  66) = (   0.5002948   0.2919741   3.4580159  )
        67        Li     tau(  67) = (   0.7502315   0.4805894   3.3029950  )
        68        Li     tau(  68) = (   0.5002406   0.9247913   3.3867606  )

   Crystallographic axes

     site n.     atom                  positions (cryst. coord.)
         1        Li     tau(   1) = (  0.0024315  0.0108877  0.3734132  )
         2        Li     tau(   2) = (  0.1479524  0.5910234  0.6196313  )
         3        Li     tau(   3) = (  0.4399922  0.7589767  0.5924555  )
         4        Li     tau(   4) = (  0.2959078  0.1823288  0.6009427  )
         5        Li     tau(   5) = (  0.0888142  0.3545044  0.5731540  )
         6        Li     tau(   6) = (  0.3827433  0.5302916  0.5437851  )
         7        Li     tau(   7) = (  0.4699487  0.8800333  0.4817307  )
         8        Li     tau(   8) = (  0.2361865  0.9437754  0.5590375  )
         9        Li     tau(   9) = (  0.0293201  0.1168739  0.5277388  )
        10        Li     tau(  10) = (  0.3234415  0.2938612  0.4953281  )
        11        Li     tau(  11) = (  0.1177840  0.4717894  0.4632074  )
        12        Li     tau(  12) = (  0.4101631  0.6414093  0.4336379  )
        13        Li     tau(  13) = (  0.1771143  0.7082702  0.5113107  )
        14        Li     tau(  14) = (  0.2638457  0.0560607  0.4512147  )
        15        Li     tau(  15) = (  0.0597796  0.2401721  0.4166241  )
        16        Li     tau(  16) = (  0.3489848  0.3969155  0.3863274  )
        17        Li     tau(  17) = (  0.2067315  0.8278562  0.4015147  )
        18        Li     tau(  18) = (  0.0137418  0.0539316  0.5833782  )
        19        Li     tau(  19) = (  0.1633725  0.6527267  0.5663593  )
        20        Li     tau(  20) = (  0.4557439  0.8223209  0.5368038  )
        21        Li     tau(  21) = (  0.3096854  0.2380671  0.5487873  )
        22        Li     tau(  22) = (  0.1035799  0.4140846  0.5182819  )
        23        Li     tau(  23) = (  0.3964183  0.5858581  0.4886994  )
        24        Li     tau(  24) = (  0.4847185  0.9396284  0.4268424  )
        25        Li     tau(  25) = (  0.2500901  1.0002697  0.5046813  )
        26        Li     tau(  26) = (  0.0442003  0.1772293  0.4722768  )
        27        Li     tau(  27) = (  0.3373417  0.3503392  0.4409600  )
        28        Li     tau(  28) = (  0.1335330  0.5351282  0.4075444  )
        29        Li     tau(  29) = (  0.4255782  0.7031008  0.3803507  )
        30        Li     tau(  30) = (  0.1907877  0.7638289  0.4562236  )
        31        Li     tau(  31) = (  0.2776170  0.1117682  0.3990511  )
        32        Li     tau(  32) = (  0.0711215  0.2832621  0.6265682  )
        33        Li     tau(  33) = (  0.3667924  0.4662412  0.5984799  )
        34        Li     tau(  34) = (  0.2245392  0.8971874  0.6136598  )
        35        Li     tau(  35) = (  0.5024120  0.0108791  0.3734135  )
        36        Li     tau(  36) = (  0.6479534  0.5910196  0.6196324  )
        37        Li     tau(  37) = (  0.9400001  0.7589781  0.5924555  )
        38        Li     tau(  38) = (  0.7959087  0.1823279  0.6009451  )
        39        Li     tau(  39) = (  0.5888124  0.3545043  0.5731541  )
        40        Li     tau(  40) = (  0.8827389  0.5302915  0.5437846  )
        41        Li     tau(  41) = (  0.9699538  0.8800364  0.4817305  )
        42        Li     tau(  42) = (  0.7361872  0.9437785  0.5590356  )
        43        Li     tau(  43) = (  0.5293250  0.1168733  0.5277393  )
        44        Li     tau(  44) = (  0.8234440  0.2938632  0.4953293  )
        45        Li     tau(  45) = (  0.6177816  0.4717889  0.4632073  )
        46        Li     tau(  46) = (  0.9101592  0.6414089  0.4336368  )
        47        Li     tau(  47) = (  0.6771152  0.7082707  0.5113115  )
        48        Li     tau(  48) = (  0.7638451  0.0560632  0.4512117  )
        49        Li     tau(  49) = (  0.5597859  0.2401702  0.4166245  )
        50        Li     tau(  50) = (  0.8489931  0.3969258  0.3863292  )
        51        Li     tau(  51) = (  0.7067319  0.8278587  0.4015152  )
        52        Li     tau(  52) = (  0.5137469  0.0539313  0.5833784  )
        53        Li     tau(  53) = (  0.6633747  0.6527305  0.5663606  )
        54        Li     tau(  54) = (  0.9557470  0.8223221  0.5368036  )
        55        Li     tau(  55) = (  0.8096865  0.2380682  0.5487891  )
        56        Li     tau(  56) = (  0.6035766  0.4140824  0.5182818  )
        57        Li     tau(  57) = (  0.8964167  0.5858586  0.4886987  )
        58        Li     tau(  58) = (  0.9847210  0.9396305  0.4268418  )
        59        Li     tau(  59) = (  0.7500882  1.0002697  0.5046789  )
        60        Li     tau(  60) = (  0.5442046  0.1772284  0.4722774  )
        61        Li     tau(  61) = (  0.8373427  0.3503411  0.4409612  )
        62        Li     tau(  62) = (  0.6335271  0.5351257  0.4075439  )
        63        Li     tau(  63) = (  0.9255769  0.7031071  0.3803499  )
        64        Li     tau(  64) = (  0.6907912  0.7638316  0.4562244  )
        65        Li     tau(  65) = (  0.7776155  0.1117687  0.3990472  )
        66        Li     tau(  66) = (  0.5711089  0.2832566  0.6265684  )
        67        Li     tau(  67) = (  0.8667916  0.4662404  0.5984797  )
        68        Li     tau(  68) = (  0.7245355  0.8971797  0.6136574  )

     number of k points=    25  Marzari-Vanderbilt smearing, width (Ry)=  0.0100
                       cart. coord. in units 2pi/alat
        k(    1) = (   0.0000000   0.0000000   0.0000000), wk =   0.0408163
        k(    2) = (   0.0000000   0.1385918   0.0000000), wk =   0.0816327
        k(    3) = (   0.0000000   0.2771837   0.0000000), wk =   0.0816327
        k(    4) = (   0.0000000   0.4157755   0.0000000), wk =   0.0816327
        k(    5) = (   0.1428571   0.0346480   0.0000000), wk =   0.0816327
        k(    6) = (   0.1428571   0.1732398   0.0000000), wk =   0.0816327
        k(    7) = (   0.1428571   0.3118316   0.0000000), wk =   0.0816327
        k(    8) = (   0.1428571   0.4504235   0.0000000), wk =   0.0816327
        k(    9) = (   0.1428571  -0.3811276   0.0000000), wk =   0.0816327
        k(   10) = (   0.1428571  -0.2425357   0.0000000), wk =   0.0816327
        k(   11) = (   0.1428571  -0.1039439   0.0000000), wk =   0.0816327
        k(   12) = (   0.2857143   0.0692959   0.0000000), wk =   0.0816327
        k(   13) = (   0.2857143   0.2078878   0.0000000), wk =   0.0816327
        k(   14) = (   0.2857143   0.3464796   0.0000000), wk =   0.0816327
        k(   15) = (   0.2857143   0.4850714   0.0000000), wk =   0.0816327
        k(   16) = (   0.2857143  -0.3464796   0.0000000), wk =   0.0816327
        k(   17) = (   0.2857143  -0.2078878   0.0000000), wk =   0.0816327
        k(   18) = (   0.2857143  -0.0692959   0.0000000), wk =   0.0816327
        k(   19) = (   0.4285714   0.1039439   0.0000000), wk =   0.0816327
        k(   20) = (   0.4285714   0.2425357   0.0000000), wk =   0.0816327
        k(   21) = (   0.4285714   0.3811276   0.0000000), wk =   0.0816327
        k(   22) = (   0.4285714   0.5197194   0.0000000), wk =   0.0816327
        k(   23) = (   0.4285714  -0.3118316   0.0000000), wk =   0.0816327
        k(   24) = (   0.4285714  -0.1732398   0.0000000), wk =   0.0816327
        k(   25) = (   0.4285714  -0.0346480   0.0000000), wk =   0.0816327

                       cryst. coord.
        k(    1) = (   0.0000000   0.0000000   0.0000000), wk =   0.0408163
        k(    2) = (   0.0000000   0.1428571   0.0000000), wk =   0.0816327
        k(    3) = (   0.0000000   0.2857143   0.0000000), wk =   0.0816327
        k(    4) = (   0.0000000   0.4285714   0.0000000), wk =   0.0816327
        k(    5) = (   0.1428571   0.0000000   0.0000000), wk =   0.0816327
        k(    6) = (   0.1428571   0.1428571   0.0000000), wk =   0.0816327
        k(    7) = (   0.1428571   0.2857143   0.0000000), wk =   0.0816327
        k(    8) = (   0.1428571   0.4285714   0.0000000), wk =   0.0816327
        k(    9) = (   0.1428571  -0.4285714   0.0000000), wk =   0.0816327
        k(   10) = (   0.1428571  -0.2857143   0.0000000), wk =   0.0816327
        k(   11) = (   0.1428571  -0.1428571   0.0000000), wk =   0.0816327
        k(   12) = (   0.2857143   0.0000000   0.0000000), wk =   0.0816327
        k(   13) = (   0.2857143   0.1428571   0.0000000), wk =   0.0816327
        k(   14) = (   0.2857143   0.2857143   0.0000000), wk =   0.0816327
        k(   15) = (   0.2857143   0.4285714   0.0000000), wk =   0.0816327
        k(   16) = (   0.2857143  -0.4285714   0.0000000), wk =   0.0816327
        k(   17) = (   0.2857143  -0.2857143   0.0000000), wk =   0.0816327
        k(   18) = (   0.2857143  -0.1428571   0.0000000), wk =   0.0816327
        k(   19) = (   0.4285714   0.0000000   0.0000000), wk =   0.0816327
        k(   20) = (   0.4285714   0.1428571   0.0000000), wk =   0.0816327
        k(   21) = (   0.4285714   0.2857143   0.0000000), wk =   0.0816327
        k(   22) = (   0.4285714   0.4285714   0.0000000), wk =   0.0816327
        k(   23) = (   0.4285714  -0.4285714   0.0000000), wk =   0.0816327
        k(   24) = (   0.4285714  -0.2857143   0.0000000), wk =   0.0816327
        k(   25) = (   0.4285714  -0.1428571   0.0000000), wk =   0.0816327

     Dense  grid: 13455463 G-vectors     FFT dimensions: ( 180, 180, 960)

     Smooth grid:  3404289 G-vectors     FFT dimensions: ( 108, 120, 600)

     Dynamical RAM for                 wfc:       3.88 MB

     Dynamical RAM for     wfc (w. buffer):      54.32 MB

     Dynamical RAM for           str. fact:       0.80 MB

     Dynamical RAM for           local pot:       0.00 MB

     Dynamical RAM for          nlocal pot:      13.80 MB

     Dynamical RAM for                qrad:       0.65 MB

     Dynamical RAM for          rho,v,vnew:       5.37 MB

     Dynamical RAM for               rhoin:       1.79 MB

     Dynamical RAM for            rho*nmix:      12.84 MB

     Dynamical RAM for           G-vectors:       3.11 MB

     Dynamical RAM for          h,s,v(r/c):       4.29 MB

     Dynamical RAM for          <psi|beta>:       1.27 MB

     Dynamical RAM for                 psi:      15.52 MB

     Dynamical RAM for                hpsi:      15.52 MB

     Dynamical RAM for                spsi:      15.52 MB

     Dynamical RAM for      wfcinit/wfcrot:       8.30 MB

     Dynamical RAM for           addusdens:      44.93 MB

     Dynamical RAM for          addusforce:      98.75 MB

     Estimated static dynamical RAM per process >      86.39 MB

     Estimated max dynamical RAM per process >     205.31 MB

     Estimated total dynamical RAM >      95.78 GB

     Initial potential from superposition of free atoms

     starting charge     203.6866, renormalised to     204.0000

     negative rho (up, down):  6.044E-03 0.000E+00
     Starting wfcs are random
     Checking if some PAW data can be deallocated... 

     total cpu time spent up to now is       48.3 secs

     Self-consistent Calculation

     iteration #  1     ecut=    80.00 Ry     beta= 0.20
     Davidson diagonalization with overlap

---- Real-time Memory Report at c_bands before calling an iterative solver
          1219 MiB given to the printing process from OS
             0 MiB allocation reported by mallinfo(arena+hblkhd)
        211280 MiB available memory on the node where the printing process lives
------------------
     c_bands:  1 eigenvalues not converged
     c_bands:  1 eigenvalues not converged
     c_bands:  2 eigenvalues not converged
     c_bands:  1 eigenvalues not converged
     c_bands:  2 eigenvalues not converged
     ethr =  1.00E-12,  avg # of iterations =138.1

     negative rho (up, down):  4.504E-03 0.000E+00

     total cpu time spent up to now is      732.2 secs

     total energy              =   -1022.37463826 Ry
     estimated scf accuracy    <       0.21663510 Ry

     total charge of GC-SCF    =      -0.03917086 e
     the Fermi energy          =      -4.27418591 eV
                        (error :       2.37018591 eV)
     electrostatic embedding   =       0.00000000 Ry
     cavitation energy         =       0.04229762 Ry
     electrolyte free energy   =       0.01515579 Ry
     correction to one-el term =      -0.00000000 Ry

     iteration #  2     ecut=    80.00 Ry     beta= 0.20
     Davidson diagonalization with overlap

---- Real-time Memory Report at c_bands before calling an iterative solver
          1219 MiB given to the printing process from OS
             0 MiB allocation reported by mallinfo(arena+hblkhd)
        205013 MiB available memory on the node where the printing process lives
------------------
     ethr =  1.00E-05,  avg # of iterations = 12.0

     negative rho (up, down):  3.554E-03 0.000E+00

     total cpu time spent up to now is      805.1 secs

     total energy              =   -1022.66579441 Ry
     estimated scf accuracy    <       0.12158020 Ry

     total charge of GC-SCF    =      -0.05261985 e
     the Fermi energy          =      -2.86755772 eV
                        (error :       0.96355772 eV)
     electrostatic embedding   =      -0.00035647 Ry
     cavitation energy         =       0.04229762 Ry
     electrolyte free energy   =       0.01515579 Ry
     correction to one-el term =      -0.00000000 Ry

     iteration #  3     ecut=    80.00 Ry     beta= 0.20
     Davidson diagonalization with overlap

---- Real-time Memory Report at c_bands before calling an iterative solver
          1219 MiB given to the printing process from OS
             0 MiB allocation reported by mallinfo(arena+hblkhd)
        204727 MiB available memory on the node where the printing process lives
------------------
     ethr =  1.00E-05,  avg # of iterations = 10.1

     negative rho (up, down):  2.680E-03 0.000E+00

     add environment contribution to local potential

     total cpu time spent up to now is      871.3 secs

     total energy              =   -1022.39419239 Ry
     estimated scf accuracy    <       0.06350600 Ry

     total charge of GC-SCF    =      -0.08042777 e
     the Fermi energy          =      -2.68603360 eV
                        (error :       0.78203360 eV)
     electrostatic embedding   =      -0.00047886 Ry
     cavitation energy         =       0.04229762 Ry
     electrolyte free energy   =       0.01515579 Ry
     correction to one-el term =      -0.00000000 Ry

     iteration #  4     ecut=    80.00 Ry     beta= 0.20
     Davidson diagonalization with overlap

---- Real-time Memory Report at c_bands before calling an iterative solver
          1219 MiB given to the printing process from OS
             0 MiB allocation reported by mallinfo(arena+hblkhd)
        204595 MiB available memory on the node where the printing process lives
------------------
     ethr =  1.00E-05,  avg # of iterations = 32.8

     negative rho (up, down):  2.292E-03 0.000E+00

     add environment contribution to local potential

     total cpu time spent up to now is     1018.4 secs

     total energy              =   -1022.54787103 Ry
     estimated scf accuracy    <       0.02472977 Ry

     total charge of GC-SCF    =      -0.19841115 e
     the Fermi energy          =      -2.54659310 eV
                        (error :       0.64259310 eV)
     electrostatic embedding   =      -0.04156366 Ry
     cavitation energy         =       0.04229762 Ry
     electrolyte free energy   =      -0.00113683 Ry
     correction to one-el term =       9.43488709 Ry

     iteration #  5     ecut=    80.00 Ry     beta= 0.20
     Davidson diagonalization with overlap

---- Real-time Memory Report at c_bands before calling an iterative solver
          1219 MiB given to the printing process from OS
             0 MiB allocation reported by mallinfo(arena+hblkhd)
        204508 MiB available memory on the node where the printing process lives
------------------
     ethr =  1.00E-05,  avg # of iterations =  9.5

     negative rho (up, down):  2.158E-03 0.000E+00

     add environment contribution to local potential

     total cpu time spent up to now is     1078.9 secs

     total energy              =   -1022.37622750 Ry
     estimated scf accuracy    <       0.01685231 Ry

     total charge of GC-SCF    =      -0.81769652 e
     the Fermi energy          =      -2.63979393 eV
                        (error :       0.73579393 eV)
     electrostatic embedding   =      -0.05371548 Ry
     cavitation energy         =       0.04229762 Ry
     electrolyte free energy   =      -0.00150513 Ry
     correction to one-el term =      12.85049379 Ry

     iteration #  6     ecut=    80.00 Ry     beta= 0.20
     Davidson diagonalization with overlap

---- Real-time Memory Report at c_bands before calling an iterative solver
          1219 MiB given to the printing process from OS
             0 MiB allocation reported by mallinfo(arena+hblkhd)
        204522 MiB available memory on the node where the printing process lives
------------------
     ethr =  8.23E-06,  avg # of iterations = 13.8

     negative rho (up, down):  1.858E-03 0.000E+00

     add environment contribution to local potential

     total cpu time spent up to now is     1175.0 secs

     total energy              =   -1022.51820768 Ry
     estimated scf accuracy    <       0.01382605 Ry

     total charge of GC-SCF    =      -1.00449712 e
     the Fermi energy          =      -2.73631243 eV
                        (error :       0.83231243 eV)
     electrostatic embedding   =      -0.17529672 Ry
     cavitation energy         =       0.04229762 Ry
     electrolyte free energy   =      -0.00226074 Ry
     correction to one-el term =      40.24915266 Ry

     iteration #  7     ecut=    80.00 Ry     beta= 0.20
     Davidson diagonalization with overlap

---- Real-time Memory Report at c_bands before calling an iterative solver
          1219 MiB given to the printing process from OS
             0 MiB allocation reported by mallinfo(arena+hblkhd)
        204596 MiB available memory on the node where the printing process lives
------------------
     ethr =  6.74E-06,  avg # of iterations = 17.5

     negative rho (up, down):  1.658E-03 0.000E+00

     add environment contribution to local potential

     total cpu time spent up to now is     1277.0 secs

     total energy              =   -1022.57618902 Ry
     estimated scf accuracy    <       0.00364999 Ry

     total charge of GC-SCF    =      -1.26015252 e
     the Fermi energy          =      -2.43092263 eV
                        (error :       0.52692263 eV)
     electrostatic embedding   =      -0.22237839 Ry
     cavitation energy         =       0.04229762 Ry
     electrolyte free energy   =      -0.00062044 Ry
     correction to one-el term =      50.27478498 Ry

     iteration #  8     ecut=    80.00 Ry     beta= 0.20
     Davidson diagonalization with overlap

---- Real-time Memory Report at c_bands before calling an iterative solver
          1219 MiB given to the printing process from OS
             0 MiB allocation reported by mallinfo(arena+hblkhd)
        204365 MiB available memory on the node where the printing process lives
------------------
     ethr =  1.78E-06,  avg # of iterations = 17.9

     negative rho (up, down):  1.573E-03 0.000E+00

     add environment contribution to local potential

     total cpu time spent up to now is     1396.9 secs

     total energy              =   -1022.57336032 Ry
     estimated scf accuracy    <       0.01281620 Ry

     total charge of GC-SCF    =      -1.53239943 e
     the Fermi energy          =      -2.23637082 eV
                        (error :       0.33237082 eV)
     electrostatic embedding   =      -0.29748662 Ry
     cavitation energy         =       0.04229762 Ry
     electrolyte free energy   =      -0.00176312 Ry
     correction to one-el term =      61.71943082 Ry

     iteration #  9     ecut=    80.00 Ry     beta= 0.20
     Davidson diagonalization with overlap

---- Real-time Memory Report at c_bands before calling an iterative solver
          1219 MiB given to the printing process from OS
             0 MiB allocation reported by mallinfo(arena+hblkhd)
        204220 MiB available memory on the node where the printing process lives
------------------
     ethr =  1.78E-06,  avg # of iterations = 12.2

     negative rho (up, down):  1.555E-03 0.000E+00

     add environment contribution to local potential

     total cpu time spent up to now is     1470.0 secs

     total energy              =   -1022.57766690 Ry
     estimated scf accuracy    <       0.00611959 Ry

     total charge of GC-SCF    =      -1.96882251 e
     the Fermi energy          =      -2.29706074 eV
                        (error :       0.39306074 eV)
     electrostatic embedding   =      -0.40057113 Ry
     cavitation energy         =       0.04229762 Ry
     electrolyte free energy   =      -0.00200720 Ry
     correction to one-el term =      71.81641932 Ry

     iteration # 10     ecut=    80.00 Ry     beta= 0.20
     Davidson diagonalization with overlap

---- Real-time Memory Report at c_bands before calling an iterative solver
          1219 MiB given to the printing process from OS
             0 MiB allocation reported by mallinfo(arena+hblkhd)
        204213 MiB available memory on the node where the printing process lives
------------------
     ethr =  1.78E-06,  avg # of iterations = 10.1

     negative rho (up, down):  1.384E-03 0.000E+00

     add environment contribution to local potential

     total cpu time spent up to now is     1539.0 secs

     total energy              =   -1022.60513419 Ry
     estimated scf accuracy    <       0.00376107 Ry

     total charge of GC-SCF    =      -2.28599579 e
     the Fermi energy          =      -2.28604005 eV
                        (error :       0.38204005 eV)
     electrostatic embedding   =      -0.59561143 Ry
     cavitation energy         =       0.04229762 Ry
     electrolyte free energy   =      -0.00336081 Ry
     correction to one-el term =      88.29419392 Ry

     iteration # 11     ecut=    80.00 Ry     beta= 0.20
     Davidson diagonalization with overlap

---- Real-time Memory Report at c_bands before calling an iterative solver
          1219 MiB given to the printing process from OS
             0 MiB allocation reported by mallinfo(arena+hblkhd)
        204116 MiB available memory on the node where the printing process lives
------------------
     ethr =  1.78E-06,  avg # of iterations = 13.2

     negative rho (up, down):  1.147E-03 0.000E+00

     add environment contribution to local potential

     total cpu time spent up to now is     1619.4 secs

     total energy              =   -1022.61633705 Ry
     estimated scf accuracy    <       0.00113383 Ry

     total charge of GC-SCF    =      -2.81843353 e
     the Fermi energy          =      -2.37235918 eV
                        (error :       0.46835918 eV)
     electrostatic embedding   =      -0.75086885 Ry
     cavitation energy         =       0.04229762 Ry
     electrolyte free energy   =      -0.00405892 Ry
     correction to one-el term =      97.75206725 Ry

     iteration # 12     ecut=    80.00 Ry     beta= 0.20
     Davidson diagonalization with overlap

---- Real-time Memory Report at c_bands before calling an iterative solver
          1219 MiB given to the printing process from OS
             0 MiB allocation reported by mallinfo(arena+hblkhd)
        204051 MiB available memory on the node where the printing process lives
------------------
     ethr =  5.48E-07,  avg # of iterations = 31.8

     negative rho (up, down):  1.096E-03 0.000E+00

     add environment contribution to local potential

     total cpu time spent up to now is     1775.4 secs

     total energy              =   -1022.61819381 Ry
     estimated scf accuracy    <       0.00900555 Ry

     total charge of GC-SCF    =      -3.10528821 e
     the Fermi energy          =      -2.17897890 eV
                        (error :       0.27497890 eV)
     electrostatic embedding   =      -1.04338881 Ry
     cavitation energy         =       0.04229762 Ry
     electrolyte free energy   =      -0.00734327 Ry
     correction to one-el term =     116.92095516 Ry

     iteration # 13     ecut=    80.00 Ry     beta= 0.20
     Davidson diagonalization with overlap

---- Real-time Memory Report at c_bands before calling an iterative solver
          1219 MiB given to the printing process from OS
             0 MiB allocation reported by mallinfo(arena+hblkhd)
        204174 MiB available memory on the node where the printing process lives
------------------
     ethr =  5.48E-07,  avg # of iterations = 15.0

     negative rho (up, down):  9.399E-04 0.000E+00

     add environment contribution to local potential

     total cpu time spent up to now is     1882.6 secs

     total energy              =   -1022.66129084 Ry
     estimated scf accuracy    <       0.00060372 Ry

     total charge of GC-SCF    =      -3.51640363 e
     the Fermi energy          =      -2.32766376 eV
                        (error :       0.42366376 eV)
     electrostatic embedding   =      -1.24360103 Ry
     cavitation energy         =       0.04229762 Ry
     electrolyte free energy   =      -0.00824590 Ry
     correction to one-el term =     126.15308369 Ry

     iteration # 14     ecut=    80.00 Ry     beta= 0.20
     Davidson diagonalization with overlap

---- Real-time Memory Report at c_bands before calling an iterative solver
          1219 MiB given to the printing process from OS
             0 MiB allocation reported by mallinfo(arena+hblkhd)
        204165 MiB available memory on the node where the printing process lives
------------------
     ethr =  2.91E-07,  avg # of iterations = 14.1

     negative rho (up, down):  8.591E-04 0.000E+00

     add environment contribution to local potential

     total cpu time spent up to now is     1988.8 secs

     total energy              =   -1022.68380878 Ry
     estimated scf accuracy    <       0.00147945 Ry

     total charge of GC-SCF    =      -3.80722877 e
     the Fermi energy          =      -2.23791800 eV
                        (error :       0.33391800 eV)
     electrostatic embedding   =      -1.52618009 Ry
     cavitation energy         =       0.04229762 Ry
     electrolyte free energy   =      -0.01136563 Ry
     correction to one-el term =     140.31208936 Ry

     iteration # 15     ecut=    80.00 Ry     beta= 0.20
     Davidson diagonalization with overlap

---- Real-time Memory Report at c_bands before calling an iterative solver
          1219 MiB given to the printing process from OS
             0 MiB allocation reported by mallinfo(arena+hblkhd)
        204132 MiB available memory on the node where the printing process lives
------------------
     ethr =  2.91E-07,  avg # of iterations = 11.6

     negative rho (up, down):  7.873E-04 0.000E+00

     add environment contribution to local potential

     total cpu time spent up to now is     2071.6 secs

     total energy              =   -1022.68790781 Ry
     estimated scf accuracy    <       0.00098539 Ry

     total charge of GC-SCF    =      -4.24094891 e
     the Fermi energy          =      -2.22818627 eV
                        (error :       0.32418627 eV)
     electrostatic embedding   =      -1.74713651 Ry
     cavitation energy         =       0.04229762 Ry
     electrolyte free energy   =      -0.01374793 Ry
     correction to one-el term =     149.75583556 Ry

     iteration # 16     ecut=    80.00 Ry     beta= 0.20
     Davidson diagonalization with overlap

---- Real-time Memory Report at c_bands before calling an iterative solver
          1219 MiB given to the printing process from OS
             0 MiB allocation reported by mallinfo(arena+hblkhd)
        203964 MiB available memory on the node where the printing process lives
------------------
     ethr =  2.91E-07,  avg # of iterations = 12.5

     negative rho (up, down):  7.529E-04 0.000E+00

     add environment contribution to local potential

     total cpu time spent up to now is     2167.4 secs

     total energy              =   -1022.72320785 Ry
     estimated scf accuracy    <       0.00103519 Ry

     total charge of GC-SCF    =      -4.32370265 e
     the Fermi energy          =      -2.18134757 eV
                        (error :       0.27734757 eV)
     electrostatic embedding   =      -2.09209531 Ry
     cavitation energy         =       0.04229762 Ry
     electrolyte free energy   =      -0.01808913 Ry
     correction to one-el term =     163.24688180 Ry

     iteration # 17     ecut=    80.00 Ry     beta= 0.20
     Davidson diagonalization with overlap

---- Real-time Memory Report at c_bands before calling an iterative solver
          1219 MiB given to the printing process from OS
             0 MiB allocation reported by mallinfo(arena+hblkhd)
        204157 MiB available memory on the node where the printing process lives
------------------
     ethr =  2.91E-07,  avg # of iterations = 11.5

     negative rho (up, down):  7.157E-04 0.000E+00

     add environment contribution to local potential

     total cpu time spent up to now is     2239.6 secs

     total energy              =   -1022.70728696 Ry
     estimated scf accuracy    <       0.00034097 Ry

     total charge of GC-SCF    =      -4.79577715 e
     the Fermi energy          =      -2.21813097 eV
                        (error :       0.31413097 eV)
     electrostatic embedding   =      -2.16435894 Ry
     cavitation energy         =       0.04229762 Ry
     electrolyte free energy   =      -0.01876096 Ry
     correction to one-el term =     165.43193094 Ry

     iteration # 18     ecut=    80.00 Ry     beta= 0.20
     Davidson diagonalization with overlap

---- Real-time Memory Report at c_bands before calling an iterative solver
          1219 MiB given to the printing process from OS
             0 MiB allocation reported by mallinfo(arena+hblkhd)
        204031 MiB available memory on the node where the printing process lives
------------------
     ethr =  1.63E-07,  avg # of iterations = 12.3

     negative rho (up, down):  6.969E-04 0.000E+00

     add environment contribution to local potential

     total cpu time spent up to now is     2337.4 secs

     total energy              =   -1022.73288501 Ry
     estimated scf accuracy    <       0.00027872 Ry

     total charge of GC-SCF    =      -5.65944711 e
     the Fermi energy          =      -2.17299340 eV
                        (error :       0.26899340 eV)
     electrostatic embedding   =      -2.59349516 Ry
     cavitation energy         =       0.04229762 Ry
     electrolyte free energy   =      -0.02488469 Ry
     correction to one-el term =     180.65481671 Ry

     iteration # 19     ecut=    80.00 Ry     beta= 0.20
     Davidson diagonalization with overlap

---- Real-time Memory Report at c_bands before calling an iterative solver
          1219 MiB given to the printing process from OS
             0 MiB allocation reported by mallinfo(arena+hblkhd)
        204066 MiB available memory on the node where the printing process lives
------------------
     ethr =  1.33E-07,  avg # of iterations = 25.9

     negative rho (up, down):  6.845E-04 0.000E+00

     add environment contribution to local potential

     total cpu time spent up to now is     2469.8 secs

     total energy              =   -1022.74862104 Ry
     estimated scf accuracy    <       0.00019467 Ry

     total charge of GC-SCF    =      -6.08027030 e
     the Fermi energy          =      -2.07033681 eV
                        (error :       0.16633681 eV)
     electrostatic embedding   =      -3.47894850 Ry
     cavitation energy         =       0.04229762 Ry
     electrolyte free energy   =      -0.03993601 Ry
     correction to one-el term =     208.50543873 Ry

     iteration # 20     ecut=    80.00 Ry     beta= 0.20
     Davidson diagonalization with overlap

---- Real-time Memory Report at c_bands before calling an iterative solver
          1219 MiB given to the printing process from OS
             0 MiB allocation reported by mallinfo(arena+hblkhd)
        203991 MiB available memory on the node where the printing process lives
------------------
     ethr =  9.27E-08,  avg # of iterations = 11.8

     negative rho (up, down):  6.640E-04 0.000E+00

     add environment contribution to local potential

     total cpu time spent up to now is     2565.9 secs

     total energy              =   -1022.75886592 Ry
     estimated scf accuracy    <       0.00006271 Ry

     total charge of GC-SCF    =      -6.44037999 e
     the Fermi energy          =      -2.04160571 eV
                        (error :       0.13760571 eV)
     electrostatic embedding   =      -3.95581731 Ry
     cavitation energy         =       0.04229762 Ry
     electrolyte free energy   =      -0.04906902 Ry
     correction to one-el term =     221.72922185 Ry

     iteration # 21     ecut=    80.00 Ry     beta= 0.20
     Davidson diagonalization with overlap

---- Real-time Memory Report at c_bands before calling an iterative solver
          1219 MiB given to the printing process from OS
             0 MiB allocation reported by mallinfo(arena+hblkhd)
        204008 MiB available memory on the node where the printing process lives
------------------
     ethr =  2.98E-08,  avg # of iterations = 26.8

     negative rho (up, down):  6.430E-04 0.000E+00

     add environment contribution to local potential

     total cpu time spent up to now is     2705.3 secs

     total energy              =   -1022.76252106 Ry
     estimated scf accuracy    <       0.00010607 Ry

     total charge of GC-SCF    =      -6.70921585 e
     the Fermi energy          =      -1.97974475 eV
                        (error :       0.07574475 eV)
     electrostatic embedding   =      -4.37626973 Ry
     cavitation energy         =       0.04229762 Ry
     electrolyte free energy   =      -0.05819376 Ry
     correction to one-el term =     232.71189099 Ry

     iteration # 22     ecut=    80.00 Ry     beta= 0.20
     Davidson diagonalization with overlap

---- Real-time Memory Report at c_bands before calling an iterative solver
          1219 MiB given to the printing process from OS
             0 MiB allocation reported by mallinfo(arena+hblkhd)
        203916 MiB available memory on the node where the printing process lives
------------------
     ethr =  2.98E-08,  avg # of iterations = 15.4

     negative rho (up, down):  6.223E-04 0.000E+00

     add environment contribution to local potential

     total cpu time spent up to now is     2816.2 secs

     total energy              =   -1022.76533905 Ry
     estimated scf accuracy    <       0.00002283 Ry

     total charge of GC-SCF    =      -6.82994144 e
     the Fermi energy          =      -1.97117192 eV
                        (error :       0.06717192 eV)
     electrostatic embedding   =      -4.70139631 Ry
     cavitation energy         =       0.04229762 Ry
     electrolyte free energy   =      -0.06536988 Ry
     correction to one-el term =     240.40920055 Ry

     iteration # 23     ecut=    80.00 Ry     beta= 0.20
     Davidson diagonalization with overlap

---- Real-time Memory Report at c_bands before calling an iterative solver
          1219 MiB given to the printing process from OS
             0 MiB allocation reported by mallinfo(arena+hblkhd)
        203855 MiB available memory on the node where the printing process lives
------------------
     ethr =  1.08E-08,  avg # of iterations = 20.1

     negative rho (up, down):  6.071E-04 0.000E+00

     add environment contribution to local potential

     total cpu time spent up to now is     2934.9 secs

     total energy              =   -1022.76613494 Ry
     estimated scf accuracy    <       0.00001602 Ry

     total charge of GC-SCF    =      -6.96902291 e
     the Fermi energy          =      -1.94841721 eV
                        (error :       0.04441721 eV)
     electrostatic embedding   =      -4.84344580 Ry
     cavitation energy         =       0.04229762 Ry
     electrolyte free energy   =      -0.06892176 Ry
     correction to one-el term =     243.68086080 Ry

     iteration # 24     ecut=    80.00 Ry     beta= 0.20
     Davidson diagonalization with overlap

---- Real-time Memory Report at c_bands before calling an iterative solver
          1219 MiB given to the printing process from OS
             0 MiB allocation reported by mallinfo(arena+hblkhd)
        204053 MiB available memory on the node where the printing process lives
------------------
     ethr =  7.59E-09,  avg # of iterations = 24.8

     negative rho (up, down):  5.949E-04 0.000E+00

     add environment contribution to local potential

     total cpu time spent up to now is     3064.1 secs

     total energy              =   -1022.76800334 Ry
     estimated scf accuracy    <       0.00003978 Ry

     total charge of GC-SCF    =      -7.16399133 e
     the Fermi energy          =      -1.92062409 eV
                        (error :       0.01662409 eV)
     electrostatic embedding   =      -5.01532156 Ry
     cavitation energy         =       0.04229762 Ry
     electrolyte free energy   =      -0.07324949 Ry
     correction to one-el term =     247.77505986 Ry

     iteration # 25     ecut=    80.00 Ry     beta= 0.20
     Davidson diagonalization with overlap

---- Real-time Memory Report at c_bands before calling an iterative solver
          1219 MiB given to the printing process from OS
             0 MiB allocation reported by mallinfo(arena+hblkhd)
        203917 MiB available memory on the node where the printing process lives
------------------
     ethr =  7.59E-09,  avg # of iterations = 20.8

     negative rho (up, down):  5.907E-04 0.000E+00

     add environment contribution to local potential

     total cpu time spent up to now is     3175.0 secs

     total energy              =   -1022.76922272 Ry
     estimated scf accuracy    <       0.00000530 Ry

     total charge of GC-SCF    =      -7.01215919 e
     the Fermi energy          =      -1.90369134 eV
                        (error :       0.00030866 eV)
     electrostatic embedding   =      -5.26728591 Ry
     cavitation energy         =       0.04229762 Ry
     electrolyte free energy   =      -0.07943294 Ry
     correction to one-el term =     253.54618004 Ry

     iteration # 26     ecut=    80.00 Ry     beta= 0.20
     Davidson diagonalization with overlap

---- Real-time Memory Report at c_bands before calling an iterative solver
          1219 MiB given to the printing process from OS
             0 MiB allocation reported by mallinfo(arena+hblkhd)
        203868 MiB available memory on the node where the printing process lives
------------------
     ethr =  2.51E-09,  avg # of iterations = 36.0

     negative rho (up, down):  5.835E-04 0.000E+00

     add environment contribution to local potential

     total cpu time spent up to now is     3350.6 secs

     total energy              =   -1022.76773708 Ry
     estimated scf accuracy    <       0.00000322 Ry

     total charge of GC-SCF    =      -7.16338082 e
     the Fermi energy          =      -1.93180459 eV
                        (error :       0.02780459 eV)
     electrostatic embedding   =      -5.05976891 Ry
     cavitation energy         =       0.04229762 Ry
     electrolyte free energy   =      -0.07438614 Ry
     correction to one-el term =     248.40324531 Ry

     iteration # 27     ecut=    80.00 Ry     beta= 0.20
     Davidson diagonalization with overlap

---- Real-time Memory Report at c_bands before calling an iterative solver
          1219 MiB given to the printing process from OS
             0 MiB allocation reported by mallinfo(arena+hblkhd)
        203844 MiB available memory on the node where the printing process lives
------------------
     ethr =  1.52E-09,  avg # of iterations = 28.1

     negative rho (up, down):  5.783E-04 0.000E+00

     add environment contribution to local potential

     total cpu time spent up to now is     3496.1 secs

     total energy              =   -1022.76712325 Ry
     estimated scf accuracy    <       0.00000266 Ry

     total charge of GC-SCF    =      -7.19164792 e
     the Fermi energy          =      -1.90756910 eV
                        (error :       0.00356910 eV)
     electrostatic embedding   =      -5.25520733 Ry
     cavitation energy         =       0.04229762 Ry
     electrolyte free energy   =      -0.07930576 Ry
     correction to one-el term =     252.95025168 Ry

     iteration # 28     ecut=    80.00 Ry     beta= 0.20
     Davidson diagonalization with overlap

---- Real-time Memory Report at c_bands before calling an iterative solver
          1219 MiB given to the printing process from OS
             0 MiB allocation reported by mallinfo(arena+hblkhd)
        203784 MiB available memory on the node where the printing process lives
------------------
     ethr =  1.26E-09,  avg # of iterations = 21.4

     negative rho (up, down):  5.752E-04 0.000E+00

     add environment contribution to local potential

     total cpu time spent up to now is     3634.5 secs

     total energy              =   -1022.76718338 Ry
     estimated scf accuracy    <       0.00000048 Ry

     total charge of GC-SCF    =      -7.21899428 e
     the Fermi energy          =      -1.90731382 eV
                        (error :       0.00331382 eV)
     electrostatic embedding   =      -5.28756458 Ry
     cavitation energy         =       0.04229762 Ry
     electrolyte free energy   =      -0.08018065 Ry
     correction to one-el term =     253.54645681 Ry

     iteration # 29     ecut=    80.00 Ry     beta= 0.20
     Davidson diagonalization with overlap

---- Real-time Memory Report at c_bands before calling an iterative solver
          1219 MiB given to the printing process from OS
             0 MiB allocation reported by mallinfo(arena+hblkhd)
        204064 MiB available memory on the node where the printing process lives
------------------
     ethr =  2.26E-10,  avg # of iterations = 20.6

     negative rho (up, down):  5.684E-04 0.000E+00

     total cpu time spent up to now is     3723.3 secs

     End of self-consistent calculation

          k = 0.0000 0.0000 0.0000 (425513 PWs)   bands (ev):

   -49.0338 -49.0337 -49.0333 -49.0333 -48.9171 -48.9171 -48.9166 -48.9165
   -48.8968 -48.8967 -48.8961 -48.8961 -48.5411 -48.5409 -48.5408 -48.5405
   -48.5321 -48.5320 -48.5315 -48.5315 -48.4999 -48.4998 -48.4994 -48.4994
   -48.4560 -48.4559 -48.4556 -48.4555 -48.4438 -48.4425 -48.4400 -48.4391
   -48.4295 -48.4243 -48.4238 -48.4235 -48.4213 -48.4200 -48.4199 -48.4191
   -48.4179 -48.4169 -48.4166 -48.4155 -48.4139 -48.4139 -48.4138 -48.4124
   -48.4092 -48.4086 -48.4075 -48.4066 -48.4033 -48.4024 -48.4021 -48.4018
   -48.3959 -48.3953 -48.3932 -48.3921 -48.3698 -48.3693 -48.3692 -48.3687
   -48.3465 -48.3462 -48.3459 -48.3456  -5.3792  -5.1009  -4.6479  -4.2574
    -4.2572  -4.1172  -4.1161  -4.0635  -3.9664  -3.9644  -3.8285  -3.8262
    -3.5507  -3.5478  -3.4865  -3.4844  -3.4306  -3.3684  -3.3506  -3.2520
    -3.2358  -2.8603  -2.8565  -2.8042  -2.7865  -2.7178  -2.7106  -2.7023
    -2.4840  -2.4793  -2.2383  -2.1972  -2.1711  -2.1706  -2.1646  -2.1265
    -2.1118  -2.0055  -1.8435  -1.7117  -1.6764  -1.6219  -1.5495  -1.4916
    -1.4740  -1.4650  -1.3128  -1.2661  -1.2249  -1.1730  -1.1254  -1.0732
    -1.0210  -0.9672  -0.9347  -0.9282  -0.9244  -0.8524  -0.8041  -0.7606
    -0.7392  -0.7338  -0.5971  -0.5369  -0.4996  -0.4267  -0.3322  -0.2360
    -0.1453  -0.1310  -0.1192  -0.1136  -0.0855  -0.0713  -0.0273  -0.0218
     0.0983   0.1469   0.1981   0.2989   0.3430   0.3781   0.3952   0.6138
     0.6319

     occupation numbers 
     1.0000   1.0000   1.0000   1.0000   1.0000   1.0000   1.0000   1.0000
     1.0000   1.0000   1.0000   1.0000   1.0000   1.0000   1.0000   1.0000
     1.0000   1.0000   1.0000   1.0000   1.0000   1.0000   1.0000   1.0000
     1.0000   1.0000   1.0000   1.0000   1.0000   1.0000   1.0000   1.0000
     1.0000   1.0000   1.0000   1.0000   1.0000   1.0000   1.0000   1.0000
     1.0000   1.0000   1.0000   1.0000   1.0000   1.0000   1.0000   1.0000
     1.0000   1.0000   1.0000   1.0000   1.0000   1.0000   1.0000   1.0000
     1.0000   1.0000   1.0000   1.0000   1.0000   1.0000   1.0000   1.0000
     1.0000   1.0000   1.0000   1.0000   1.0000   1.0000   1.0000   1.0000
     1.0000   1.0000   1.0000   1.0000   1.0000   1.0000   1.0000   1.0000
     1.0000   1.0000   1.0000   1.0000   1.0000   1.0000   1.0000   1.0000
     1.0000   1.0000   1.0000   1.0000   1.0000   1.0000   1.0000   1.0000
     1.0000   1.0000   1.0120   1.0288   1.0446   1.0449   1.0489   1.0739
     1.0806   0.9201   0.1575   0.0058   0.0018   0.0002   0.0000   0.0000
     0.0000   0.0000   0.0000   0.0000   0.0000   0.0000   0.0000   0.0000
     0.0000   0.0000   0.0000   0.0000   0.0000   0.0000   0.0000   0.0000
     0.0000   0.0000   0.0000   0.0000   0.0000   0.0000   0.0000   0.0000
     0.0000   0.0000   0.0000   0.0000   0.0000   0.0000   0.0000   0.0000
     0.0000   0.0000   0.0000   0.0000   0.0000   0.0000   0.0000   0.0000
     0.0000

          k = 0.0000 0.1386 0.0000 (425461 PWs)   bands (ev):

   -49.0338 -49.0337 -49.0333 -49.0333 -48.9171 -48.9171 -48.9166 -48.9165
   -48.8968 -48.8967 -48.8961 -48.8961 -48.5411 -48.5409 -48.5408 -48.5405
   -48.5321 -48.5320 -48.5315 -48.5315 -48.4999 -48.4998 -48.4994 -48.4994
   -48.4560 -48.4559 -48.4556 -48.4555 -48.4437 -48.4425 -48.4400 -48.4391
   -48.4295 -48.4244 -48.4238 -48.4235 -48.4212 -48.4200 -48.4199 -48.4191
   -48.4179 -48.4169 -48.4166 -48.4155 -48.4139 -48.4139 -48.4138 -48.4124
   -48.4092 -48.4086 -48.4075 -48.4067 -48.4033 -48.4024 -48.4021 -48.4018
   -48.3959 -48.3953 -48.3932 -48.3921 -48.3698 -48.3693 -48.3692 -48.3687
   -48.3465 -48.3462 -48.3459 -48.3456  -5.3564  -5.0778  -4.6246  -4.5542
    -4.2643  -4.1751  -4.0439  -4.0120  -3.9109  -3.8863  -3.7868  -3.7694
    -3.7189  -3.6220  -3.4773  -3.4128  -3.4065  -3.2895  -3.2394  -3.1653
    -3.1396  -2.9925  -2.9870  -2.8388  -2.7973  -2.6913  -2.6284  -2.5250
    -2.5232  -2.4863  -2.4761  -2.3775  -2.1623  -2.1276  -2.0232  -2.0208
    -1.8691  -1.8559  -1.8535  -1.8101  -1.7448  -1.6998  -1.6582  -1.5414
    -1.5132  -1.3739  -1.3654  -1.3381  -1.3302  -1.2824  -1.2393  -1.1690
    -1.1479  -1.0647  -0.9706  -0.9582  -0.9021  -0.8855  -0.8499  -0.6984
    -0.6477  -0.5674  -0.5371  -0.4585  -0.4053  -0.3336  -0.2876  -0.2306
    -0.2227  -0.1558  -0.1382  -0.0829  -0.0542   0.0456   0.0877   0.1174
     0.1319   0.1738   0.2341   0.2990   0.3696   0.3710   0.4561   0.6319
     0.6440

     occupation numbers 
     1.0000   1.0000   1.0000   1.0000   1.0000   1.0000   1.0000   1.0000
     1.0000   1.0000   1.0000   1.0000   1.0000   1.0000   1.0000   1.0000
     1.0000   1.0000   1.0000   1.0000   1.0000   1.0000   1.0000   1.0000
     1.0000   1.0000   1.0000   1.0000   1.0000   1.0000   1.0000   1.0000
     1.0000   1.0000   1.0000   1.0000   1.0000   1.0000   1.0000   1.0000
     1.0000   1.0000   1.0000   1.0000   1.0000   1.0000   1.0000   1.0000
     1.0000   1.0000   1.0000   1.0000   1.0000   1.0000   1.0000   1.0000
     1.0000   1.0000   1.0000   1.0000   1.0000   1.0000   1.0000   1.0000
     1.0000   1.0000   1.0000   1.0000   1.0000   1.0000   1.0000   1.0000
     1.0000   1.0000   1.0000   1.0000   1.0000   1.0000   1.0000   1.0000
     1.0000   1.0000   1.0000   1.0000   1.0000   1.0000   1.0000   1.0000
     1.0000   1.0000   1.0000   1.0000   1.0000   1.0000   1.0000   1.0000
     1.0000   1.0000   1.0000   1.0001   1.0505   1.0733   0.9819   0.9744
     0.2441   0.1963   0.1882   0.0807   0.0157   0.0039   0.0009   0.0000
     0.0000   0.0000   0.0000   0.0000   0.0000   0.0000   0.0000   0.0000
     0.0000   0.0000   0.0000   0.0000   0.0000   0.0000   0.0000   0.0000
     0.0000   0.0000   0.0000   0.0000   0.0000   0.0000   0.0000   0.0000
     0.0000   0.0000   0.0000   0.0000   0.0000   0.0000   0.0000   0.0000
     0.0000   0.0000   0.0000   0.0000   0.0000   0.0000   0.0000   0.0000
     0.0000

          k = 0.0000 0.2772 0.0000 (425344 PWs)   bands (ev):

   -49.0338 -49.0337 -49.0333 -49.0333 -48.9171 -48.9171 -48.9166 -48.9165
   -48.8968 -48.8967 -48.8961 -48.8961 -48.5411 -48.5408 -48.5408 -48.5405
   -48.5321 -48.5320 -48.5315 -48.5315 -48.4999 -48.4998 -48.4994 -48.4994
   -48.4560 -48.4559 -48.4556 -48.4555 -48.4437 -48.4425 -48.4399 -48.4391
   -48.4297 -48.4244 -48.4238 -48.4235 -48.4211 -48.4200 -48.4199 -48.4190
   -48.4180 -48.4169 -48.4166 -48.4154 -48.4140 -48.4139 -48.4138 -48.4124
   -48.4092 -48.4086 -48.4075 -48.4067 -48.4033 -48.4024 -48.4021 -48.4018
   -48.3959 -48.3952 -48.3932 -48.3922 -48.3698 -48.3693 -48.3692 -48.3687
   -48.3465 -48.3462 -48.3459 -48.3456  -5.2877  -5.0084  -4.8059  -4.5641
    -4.5072  -4.1868  -4.0612  -3.9520  -3.9433  -3.8984  -3.8587  -3.6512
    -3.5676  -3.5238  -3.4506  -3.4252  -3.3167  -3.2273  -3.1691  -3.1452
    -3.0860  -2.9919  -2.8418  -2.8168  -2.7922  -2.7543  -2.6865  -2.5851
    -2.5581  -2.4700  -2.3395  -2.1876  -2.1702  -2.1520  -2.0929  -2.0640
    -1.9648  -1.9540  -1.8676  -1.8249  -1.8006  -1.6940  -1.6552  -1.6366
    -1.6182  -1.5272  -1.4943  -1.4816  -1.4495  -1.2989  -1.2642  -1.1932
    -1.1358  -1.0881  -1.0714  -0.9698  -0.9374  -0.9131  -0.7699  -0.6757
    -0.6085  -0.5180  -0.4279  -0.4090  -0.4060  -0.3071  -0.2778  -0.2177
    -0.1594  -0.1450   0.0079   0.0256   0.0656   0.1828   0.2089   0.2612
     0.2765   0.3187   0.3228   0.3519   0.3778   0.3885   0.5460   0.5592
     0.6445

     occupation numbers 
     1.0000   1.0000   1.0000   1.0000   1.0000   1.0000   1.0000   1.0000
     1.0000   1.0000   1.0000   1.0000   1.0000   1.0000   1.0000   1.0000
     1.0000   1.0000   1.0000   1.0000   1.0000   1.0000   1.0000   1.0000
     1.0000   1.0000   1.0000   1.0000   1.0000   1.0000   1.0000   1.0000
     1.0000   1.0000   1.0000   1.0000   1.0000   1.0000   1.0000   1.0000
     1.0000   1.0000   1.0000   1.0000   1.0000   1.0000   1.0000   1.0000
     1.0000   1.0000   1.0000   1.0000   1.0000   1.0000   1.0000   1.0000
     1.0000   1.0000   1.0000   1.0000   1.0000   1.0000   1.0000   1.0000
     1.0000   1.0000   1.0000   1.0000   1.0000   1.0000   1.0000   1.0000
     1.0000   1.0000   1.0000   1.0000   1.0000   1.0000   1.0000   1.0000
     1.0000   1.0000   1.0000   1.0000   1.0000   1.0000   1.0000   1.0000
     1.0000   1.0000   1.0000   1.0000   1.0000   1.0000   1.0000   1.0000
     1.0000   1.0000   1.0006   1.0342   1.0452   1.0576   1.0831   1.0665
     0.7291   0.6708   0.2380   0.1099   0.0652   0.0032   0.0008   0.0004
     0.0002   0.0000   0.0000   0.0000   0.0000   0.0000   0.0000   0.0000
     0.0000   0.0000   0.0000   0.0000   0.0000   0.0000   0.0000   0.0000
     0.0000   0.0000   0.0000   0.0000   0.0000   0.0000   0.0000   0.0000
     0.0000   0.0000   0.0000   0.0000   0.0000   0.0000   0.0000   0.0000
     0.0000   0.0000   0.0000   0.0000   0.0000   0.0000   0.0000   0.0000
     0.0000

          k = 0.0000 0.4158 0.0000 (425441 PWs)   bands (ev):

   -49.0338 -49.0337 -49.0333 -49.0333 -48.9171 -48.9171 -48.9166 -48.9165
   -48.8968 -48.8967 -48.8961 -48.8961 -48.5411 -48.5408 -48.5408 -48.5405
   -48.5321 -48.5320 -48.5316 -48.5315 -48.4999 -48.4998 -48.4994 -48.4994
   -48.4560 -48.4559 -48.4556 -48.4555 -48.4437 -48.4425 -48.4399 -48.4391
   -48.4298 -48.4244 -48.4238 -48.4235 -48.4210 -48.4200 -48.4199 -48.4189
   -48.4180 -48.4169 -48.4166 -48.4154 -48.4140 -48.4139 -48.4138 -48.4125
   -48.4092 -48.4086 -48.4075 -48.4067 -48.4033 -48.4023 -48.4021 -48.4018
   -48.3959 -48.3952 -48.3932 -48.3922 -48.3698 -48.3693 -48.3692 -48.3687
   -48.3465 -48.3462 -48.3459 -48.3456  -5.1735  -5.0127  -4.8921  -4.7300
    -4.4305  -4.2655  -4.1517  -4.0700  -3.8626  -3.8358  -3.7807  -3.6635
    -3.6629  -3.4250  -3.3962  -3.3732  -3.2923  -3.1926  -3.1220  -3.0906
    -3.0130  -2.8899  -2.7998  -2.7917  -2.6855  -2.6561  -2.6208  -2.6145
    -2.4693  -2.3540  -2.3497  -2.3262  -2.3044  -2.2836  -2.2746  -2.1372
    -2.0841  -1.9964  -1.9507  -1.9000  -1.8398  -1.8060  -1.7075  -1.5763
    -1.5741  -1.5171  -1.5093  -1.4682  -1.4077  -1.3181  -1.3133  -1.2564
    -1.2218  -1.1421  -1.1305  -0.9464  -0.8268  -0.7983  -0.7294  -0.6697
    -0.6115  -0.5959  -0.4799  -0.3973  -0.2500  -0.2253  -0.1776  -0.1242
    -0.1131   0.0131   0.0398   0.1004   0.1237   0.1596   0.1708   0.1736
     0.2783   0.2783   0.3650   0.3726   0.3766   0.4074   0.4410   0.4773
     0.5461

     occupation numbers 
     1.0000   1.0000   1.0000   1.0000   1.0000   1.0000   1.0000   1.0000
     1.0000   1.0000   1.0000   1.0000   1.0000   1.0000   1.0000   1.0000
     1.0000   1.0000   1.0000   1.0000   1.0000   1.0000   1.0000   1.0000
     1.0000   1.0000   1.0000   1.0000   1.0000   1.0000   1.0000   1.0000
     1.0000   1.0000   1.0000   1.0000   1.0000   1.0000   1.0000   1.0000
     1.0000   1.0000   1.0000   1.0000   1.0000   1.0000   1.0000   1.0000
     1.0000   1.0000   1.0000   1.0000   1.0000   1.0000   1.0000   1.0000
     1.0000   1.0000   1.0000   1.0000   1.0000   1.0000   1.0000   1.0000
     1.0000   1.0000   1.0000   1.0000   1.0000   1.0000   1.0000   1.0000
     1.0000   1.0000   1.0000   1.0000   1.0000   1.0000   1.0000   1.0000
     1.0000   1.0000   1.0000   1.0000   1.0000   1.0000   1.0000   1.0000
     1.0000   1.0000   1.0000   1.0000   1.0000   1.0000   1.0000   1.0000
     1.0000   1.0003   1.0004   1.0009   1.0019   1.0036   1.0047   1.0676
     1.0812   0.8828   0.6528   0.3803   0.1470   0.0737   0.0051   0.0000
     0.0000   0.0000   0.0000   0.0000   0.0000   0.0000   0.0000   0.0000
     0.0000   0.0000   0.0000   0.0000   0.0000   0.0000   0.0000   0.0000
     0.0000   0.0000   0.0000   0.0000   0.0000   0.0000   0.0000   0.0000
     0.0000   0.0000   0.0000   0.0000   0.0000   0.0000   0.0000   0.0000
     0.0000   0.0000   0.0000   0.0000   0.0000   0.0000   0.0000   0.0000
     0.0000

          k = 0.1429 0.0346 0.0000 (425499 PWs)   bands (ev):

   -49.0338 -49.0337 -49.0333 -49.0333 -48.9171 -48.9171 -48.9166 -48.9165
   -48.8968 -48.8967 -48.8961 -48.8961 -48.5411 -48.5408 -48.5408 -48.5406
   -48.5320 -48.5320 -48.5315 -48.5315 -48.4999 -48.4998 -48.4994 -48.4994
   -48.4560 -48.4559 -48.4556 -48.4555 -48.4437 -48.4425 -48.4399 -48.4392
   -48.4293 -48.4247 -48.4243 -48.4231 -48.4212 -48.4199 -48.4195 -48.4191
   -48.4179 -48.4176 -48.4162 -48.4156 -48.4143 -48.4139 -48.4134 -48.4124
   -48.4092 -48.4085 -48.4076 -48.4067 -48.4033 -48.4024 -48.4021 -48.4018
   -48.3959 -48.3954 -48.3932 -48.3921 -48.3698 -48.3693 -48.3692 -48.3688
   -48.3465 -48.3462 -48.3459 -48.3456  -5.3535  -5.0749  -4.6214  -4.4513
    -4.3114  -4.1647  -4.1525  -4.0361  -4.0193  -3.8592  -3.8064  -3.7325
    -3.6975  -3.5399  -3.5067  -3.4397  -3.4036  -3.3773  -3.2417  -3.1068
    -3.0051  -2.9815  -2.9177  -2.9131  -2.8730  -2.7490  -2.6852  -2.5788
    -2.4989  -2.4573  -2.3799  -2.2856  -2.2357  -2.0715  -2.0706  -2.0545
    -1.9433  -1.8242  -1.8191  -1.7470  -1.7069  -1.5857  -1.5211  -1.5106
    -1.4208  -1.3856  -1.3722  -1.2686  -1.2235  -1.2134  -1.1733  -1.1644
    -1.0945  -1.0670  -1.0082  -0.9516  -0.9088  -0.8937  -0.8011  -0.7464
    -0.7449  -0.7169  -0.5619  -0.5518  -0.4636  -0.4613  -0.4340  -0.3896
    -0.3125  -0.2443  -0.1428  -0.0926  -0.0809  -0.0411  -0.0227   0.0771
     0.1777   0.1907   0.2089   0.3140   0.3564   0.3771   0.3924   0.4707
     0.5303

     occupation numbers 
     1.0000   1.0000   1.0000   1.0000   1.0000   1.0000   1.0000   1.0000
     1.0000   1.0000   1.0000   1.0000   1.0000   1.0000   1.0000   1.0000
     1.0000   1.0000   1.0000   1.0000   1.0000   1.0000   1.0000   1.0000
     1.0000   1.0000   1.0000   1.0000   1.0000   1.0000   1.0000   1.0000
     1.0000   1.0000   1.0000   1.0000   1.0000   1.0000   1.0000   1.0000
     1.0000   1.0000   1.0000   1.0000   1.0000   1.0000   1.0000   1.0000
     1.0000   1.0000   1.0000   1.0000   1.0000   1.0000   1.0000   1.0000
     1.0000   1.0000   1.0000   1.0000   1.0000   1.0000   1.0000   1.0000
     1.0000   1.0000   1.0000   1.0000   1.0000   1.0000   1.0000   1.0000
     1.0000   1.0000   1.0000   1.0000   1.0000   1.0000   1.0000   1.0000
     1.0000   1.0000   1.0000   1.0000   1.0000   1.0000   1.0000   1.0000
     1.0000   1.0000   1.0000   1.0000   1.0000   1.0000   1.0000   1.0000
     1.0000   1.0000   1.0001   1.0034   1.0128   1.0738   1.0730   1.0539
     0.6120   0.1084   0.0976   0.0167   0.0050   0.0000   0.0000   0.0000
     0.0000   0.0000   0.0000   0.0000   0.0000   0.0000   0.0000   0.0000
     0.0000   0.0000   0.0000   0.0000   0.0000   0.0000   0.0000   0.0000
     0.0000   0.0000   0.0000   0.0000   0.0000   0.0000   0.0000   0.0000
     0.0000   0.0000   0.0000   0.0000   0.0000   0.0000   0.0000   0.0000
     0.0000   0.0000   0.0000   0.0000   0.0000   0.0000   0.0000   0.0000
     0.0000

          k = 0.1429 0.1732 0.0000 (425402 PWs)   bands (ev):

   -49.0338 -49.0337 -49.0333 -49.0333 -48.9171 -48.9171 -48.9166 -48.9165
   -48.8968 -48.8967 -48.8961 -48.8961 -48.5411 -48.5408 -48.5408 -48.5406
   -48.5321 -48.5320 -48.5315 -48.5315 -48.4999 -48.4998 -48.4994 -48.4994
   -48.4560 -48.4559 -48.4556 -48.4555 -48.4437 -48.4425 -48.4399 -48.4392
   -48.4294 -48.4247 -48.4243 -48.4231 -48.4211 -48.4200 -48.4195 -48.4191
   -48.4179 -48.4176 -48.4162 -48.4156 -48.4143 -48.4140 -48.4134 -48.4124
   -48.4092 -48.4085 -48.4076 -48.4067 -48.4033 -48.4024 -48.4021 -48.4018
   -48.3959 -48.3953 -48.3932 -48.3922 -48.3698 -48.3693 -48.3692 -48.3688
   -48.3465 -48.3462 -48.3459 -48.3456  -5.3192  -5.0402  -4.5973  -4.5863
    -4.4977  -4.3070  -4.2115  -4.0053  -3.8287  -3.7946  -3.7437  -3.6149
    -3.5354  -3.5060  -3.4507  -3.3677  -3.3207  -3.2382  -3.2242  -3.2069
    -3.1567  -3.1342  -3.0221  -2.9225  -2.8341  -2.7379  -2.6687  -2.6615
    -2.5273  -2.5244  -2.4213  -2.3923  -2.1994  -2.0904  -2.0351  -1.9417
    -1.8785  -1.7810  -1.7590  -1.7335  -1.6995  -1.6625  -1.5436  -1.5305
    -1.5275  -1.4348  -1.4185  -1.4164  -1.3119  -1.1996  -1.1910  -1.1586
    -1.1343  -1.0609  -1.0551  -1.0288  -0.8972  -0.8969  -0.8473  -0.7118
    -0.6852  -0.6651  -0.5540  -0.5537  -0.3805  -0.3569  -0.2526  -0.2251
    -0.1688  -0.1502  -0.1149  -0.0863  -0.0363   0.0088   0.0352   0.0518
     0.1688   0.1972   0.2538   0.2824   0.3366   0.3864   0.4401   0.5240
     0.6472

     occupation numbers 
     1.0000   1.0000   1.0000   1.0000   1.0000   1.0000   1.0000   1.0000
     1.0000   1.0000   1.0000   1.0000   1.0000   1.0000   1.0000   1.0000
     1.0000   1.0000   1.0000   1.0000   1.0000   1.0000   1.0000   1.0000
     1.0000   1.0000   1.0000   1.0000   1.0000   1.0000   1.0000   1.0000
     1.0000   1.0000   1.0000   1.0000   1.0000   1.0000   1.0000   1.0000
     1.0000   1.0000   1.0000   1.0000   1.0000   1.0000   1.0000   1.0000
     1.0000   1.0000   1.0000   1.0000   1.0000   1.0000   1.0000   1.0000
     1.0000   1.0000   1.0000   1.0000   1.0000   1.0000   1.0000   1.0000
     1.0000   1.0000   1.0000   1.0000   1.0000   1.0000   1.0000   1.0000
     1.0000   1.0000   1.0000   1.0000   1.0000   1.0000   1.0000   1.0000
     1.0000   1.0000   1.0000   1.0000   1.0000   1.0000   1.0000   1.0000
     1.0000   1.0000   1.0000   1.0000   1.0000   1.0000   1.0000   1.0000
     1.0000   1.0000   1.0000   1.0001   1.0276   1.0828   1.0150   0.6029
     0.2819   0.0411   0.0233   0.0113   0.0039   0.0011   0.0000   0.0000
     0.0000   0.0000   0.0000   0.0000   0.0000   0.0000   0.0000   0.0000
     0.0000   0.0000   0.0000   0.0000   0.0000   0.0000   0.0000   0.0000
     0.0000   0.0000   0.0000   0.0000   0.0000   0.0000   0.0000   0.0000
     0.0000   0.0000   0.0000   0.0000   0.0000   0.0000   0.0000   0.0000
     0.0000   0.0000   0.0000   0.0000   0.0000   0.0000   0.0000   0.0000
     0.0000

          k = 0.1429 0.3118 0.0000 (425381 PWs)   bands (ev):

   -49.0338 -49.0337 -49.0333 -49.0333 -48.9171 -48.9171 -48.9166 -48.9165
   -48.8968 -48.8967 -48.8961 -48.8961 -48.5411 -48.5408 -48.5408 -48.5406
   -48.5321 -48.5320 -48.5315 -48.5315 -48.4999 -48.4998 -48.4994 -48.4994
   -48.4560 -48.4559 -48.4556 -48.4555 -48.4436 -48.4425 -48.4399 -48.4392
   -48.4295 -48.4247 -48.4243 -48.4231 -48.4210 -48.4200 -48.4195 -48.4190
   -48.4179 -48.4176 -48.4162 -48.4156 -48.4143 -48.4140 -48.4134 -48.4125
   -48.4092 -48.4085 -48.4076 -48.4068 -48.4033 -48.4024 -48.4021 -48.4018
   -48.3959 -48.3953 -48.3932 -48.3922 -48.3698 -48.3693 -48.3692 -48.3688
   -48.3465 -48.3462 -48.3459 -48.3456  -5.2390  -4.9595  -4.8371  -4.5612
    -4.4977  -4.4914  -4.2115  -4.0887  -3.9044  -3.7437  -3.6149  -3.5355
    -3.4798  -3.4507  -3.3966  -3.3207  -3.2654  -3.2382  -3.2241  -3.1567
    -3.1342  -3.1019  -2.9225  -2.8341  -2.8226  -2.7380  -2.6688  -2.6302
    -2.5365  -2.5244  -2.4213  -2.2127  -2.1992  -2.1010  -2.0903  -2.0352
    -2.0348  -1.9418  -1.9205  -1.7810  -1.7331  -1.6524  -1.6311  -1.6175
    -1.5443  -1.5283  -1.4344  -1.4189  -1.3118  -1.3089  -1.2704  -1.2094
    -1.1997  -1.1344  -1.0605  -0.8971  -0.8801  -0.8472  -0.7389  -0.7115
    -0.6748  -0.6526  -0.5534  -0.4443  -0.3698  -0.3569  -0.2871  -0.1691
    -0.1354  -0.1148   0.0110   0.0356   0.0365   0.0736   0.1307   0.1688
     0.2065   0.2826   0.2947   0.3170   0.3384   0.3632   0.4443   0.5244
     0.5826

     occupation numbers 
     1.0000   1.0000   1.0000   1.0000   1.0000   1.0000   1.0000   1.0000
     1.0000   1.0000   1.0000   1.0000   1.0000   1.0000   1.0000   1.0000
     1.0000   1.0000   1.0000   1.0000   1.0000   1.0000   1.0000   1.0000
     1.0000   1.0000   1.0000   1.0000   1.0000   1.0000   1.0000   1.0000
     1.0000   1.0000   1.0000   1.0000   1.0000   1.0000   1.0000   1.0000
     1.0000   1.0000   1.0000   1.0000   1.0000   1.0000   1.0000   1.0000
     1.0000   1.0000   1.0000   1.0000   1.0000   1.0000   1.0000   1.0000
     1.0000   1.0000   1.0000   1.0000   1.0000   1.0000   1.0000   1.0000
     1.0000   1.0000   1.0000   1.0000   1.0000   1.0000   1.0000   1.0000
     1.0000   1.0000   1.0000   1.0000   1.0000   1.0000   1.0000   1.0000
     1.0000   1.0000   1.0000   1.0000   1.0000   1.0000   1.0000   1.0000
     1.0000   1.0000   1.0000   1.0000   1.0000   1.0000   1.0000   1.0000
     1.0000   1.0000   1.0000   1.0212   1.0277   1.0831   1.0828   1.0152
     1.0142   0.6032   0.4865   0.0411   0.0112   0.0007   0.0003   0.0002
     0.0000   0.0000   0.0000   0.0000   0.0000   0.0000   0.0000   0.0000
     0.0000   0.0000   0.0000   0.0000   0.0000   0.0000   0.0000   0.0000
     0.0000   0.0000   0.0000   0.0000   0.0000   0.0000   0.0000   0.0000
     0.0000   0.0000   0.0000   0.0000   0.0000   0.0000   0.0000   0.0000
     0.0000   0.0000   0.0000   0.0000   0.0000   0.0000   0.0000   0.0000
     0.0000

          k = 0.1429 0.4504 0.0000 (425406 PWs)   bands (ev):

   -49.0337 -49.0337 -49.0333 -49.0333 -48.9171 -48.9171 -48.9166 -48.9165
   -48.8968 -48.8967 -48.8961 -48.8961 -48.5411 -48.5408 -48.5408 -48.5406
   -48.5321 -48.5320 -48.5315 -48.5315 -48.4999 -48.4998 -48.4994 -48.4994
   -48.4560 -48.4559 -48.4556 -48.4555 -48.4436 -48.4425 -48.4399 -48.4392
   -48.4296 -48.4247 -48.4243 -48.4231 -48.4209 -48.4199 -48.4195 -48.4189
   -48.4179 -48.4176 -48.4162 -48.4156 -48.4143 -48.4141 -48.4134 -48.4125
   -48.4092 -48.4085 -48.4076 -48.4068 -48.4033 -48.4024 -48.4021 -48.4018
   -48.3959 -48.3952 -48.3932 -48.3923 -48.3698 -48.3693 -48.3692 -48.3688
   -48.3465 -48.3462 -48.3459 -48.3456  -5.1137  -5.0321  -4.8321  -4.7493
    -4.4513  -4.3689  -4.2857  -4.1647  -3.8064  -3.7717  -3.7325  -3.6974
    -3.6848  -3.5067  -3.4397  -3.2417  -3.1264  -3.1068  -3.0356  -3.0051
    -2.9815  -2.9536  -2.9177  -2.8729  -2.7167  -2.6631  -2.5788  -2.4987
    -2.4574  -2.4308  -2.4090  -2.3800  -2.3065  -2.2854  -2.2043  -2.0715
    -2.0542  -1.9766  -1.9422  -1.8201  -1.7472  -1.7291  -1.7079  -1.6742
    -1.5857  -1.5218  -1.5202  -1.4402  -1.4210  -1.3099  -1.2990  -1.2236
    -1.2135  -1.1732  -1.1646  -0.9508  -0.7630  -0.7442  -0.7169  -0.7167
    -0.6495  -0.6117  -0.5618  -0.4613  -0.4064  -0.2436  -0.2379  -0.1717
    -0.1052  -0.0923  -0.0551  -0.0250   0.0772   0.1163   0.1798   0.1907
     0.2419   0.2722   0.3122   0.3141   0.3500   0.3622   0.3776   0.4880
     0.5281

     occupation numbers 
     1.0000   1.0000   1.0000   1.0000   1.0000   1.0000   1.0000   1.0000
     1.0000   1.0000   1.0000   1.0000   1.0000   1.0000   1.0000   1.0000
     1.0000   1.0000   1.0000   1.0000   1.0000   1.0000   1.0000   1.0000
     1.0000   1.0000   1.0000   1.0000   1.0000   1.0000   1.0000   1.0000
     1.0000   1.0000   1.0000   1.0000   1.0000   1.0000   1.0000   1.0000
     1.0000   1.0000   1.0000   1.0000   1.0000   1.0000   1.0000   1.0000
     1.0000   1.0000   1.0000   1.0000   1.0000   1.0000   1.0000   1.0000
     1.0000   1.0000   1.0000   1.0000   1.0000   1.0000   1.0000   1.0000
     1.0000   1.0000   1.0000   1.0000   1.0000   1.0000   1.0000   1.0000
     1.0000   1.0000   1.0000   1.0000   1.0000   1.0000   1.0000   1.0000
     1.0000   1.0000   1.0000   1.0000   1.0000   1.0000   1.0000   1.0000
     1.0000   1.0000   1.0000   1.0000   1.0000   1.0000   1.0000   1.0000
     1.0000   1.0000   1.0000   1.0001   1.0018   1.0034   1.0251   1.0738
     1.0535   0.7897   0.6059   0.0997   0.0168   0.0099   0.0051   0.0016
     0.0000   0.0000   0.0000   0.0000   0.0000   0.0000   0.0000   0.0000
     0.0000   0.0000   0.0000   0.0000   0.0000   0.0000   0.0000   0.0000
     0.0000   0.0000   0.0000   0.0000   0.0000   0.0000   0.0000   0.0000
     0.0000   0.0000   0.0000   0.0000   0.0000   0.0000   0.0000   0.0000
     0.0000   0.0000   0.0000   0.0000   0.0000   0.0000   0.0000   0.0000
     0.0000

          k = 0.1429-0.3811 0.0000 (425398 PWs)   bands (ev):

   -49.0338 -49.0337 -49.0333 -49.0333 -48.9171 -48.9171 -48.9166 -48.9165
   -48.8968 -48.8967 -48.8961 -48.8961 -48.5411 -48.5408 -48.5408 -48.5406
   -48.5321 -48.5320 -48.5315 -48.5315 -48.4999 -48.4998 -48.4994 -48.4994
   -48.4560 -48.4559 -48.4556 -48.4555 -48.4436 -48.4425 -48.4399 -48.4392
   -48.4296 -48.4248 -48.4243 -48.4231 -48.4209 -48.4199 -48.4196 -48.4190
   -48.4179 -48.4175 -48.4163 -48.4156 -48.4143 -48.4140 -48.4134 -48.4125
   -48.4092 -48.4085 -48.4076 -48.4068 -48.4033 -48.4024 -48.4021 -48.4018
   -48.3958 -48.3952 -48.3932 -48.3923 -48.3698 -48.3693 -48.3692 -48.3688
[...]
     atom   64 type  1   force =     0.00000000    0.00000000    0.00000000
     atom   65 type  1   force =     0.00000000    0.00000000    0.00000000
     atom   66 type  1   force =     0.00000000    0.00000000    0.00000000
     atom   67 type  1   force =     0.00000000    0.00000000    0.00000000
     atom   68 type  1   force =     0.00000000    0.00000000    0.00000000
     The Hubbard contrib.    to forces
     atom    1 type  1   force =     0.00000000    0.00000000    0.00000000
     atom    2 type  1   force =     0.00000000    0.00000000    0.00000000
     atom    3 type  1   force =     0.00000000    0.00000000    0.00000000
     atom    4 type  1   force =     0.00000000    0.00000000    0.00000000
     atom    5 type  1   force =     0.00000000    0.00000000    0.00000000
     atom    6 type  1   force =     0.00000000    0.00000000    0.00000000
     atom    7 type  1   force =     0.00000000    0.00000000    0.00000000
     atom    8 type  1   force =     0.00000000    0.00000000    0.00000000
     atom    9 type  1   force =     0.00000000    0.00000000    0.00000000
     atom   10 type  1   force =     0.00000000    0.00000000    0.00000000
     atom   11 type  1   force =     0.00000000    0.00000000    0.00000000
     atom   12 type  1   force =     0.00000000    0.00000000    0.00000000
     atom   13 type  1   force =     0.00000000    0.00000000    0.00000000
     atom   14 type  1   force =     0.00000000    0.00000000    0.00000000
     atom   15 type  1   force =     0.00000000    0.00000000    0.00000000
     atom   16 type  1   force =     0.00000000    0.00000000    0.00000000
     atom   17 type  1   force =     0.00000000    0.00000000    0.00000000
     atom   18 type  1   force =     0.00000000    0.00000000    0.00000000
     atom   19 type  1   force =     0.00000000    0.00000000    0.00000000
     atom   20 type  1   force =     0.00000000    0.00000000    0.00000000
     atom   21 type  1   force =     0.00000000    0.00000000    0.00000000
     atom   22 type  1   force =     0.00000000    0.00000000    0.00000000
     atom   23 type  1   force =     0.00000000    0.00000000    0.00000000
     atom   24 type  1   force =     0.00000000    0.00000000    0.00000000
     atom   25 type  1   force =     0.00000000    0.00000000    0.00000000
     atom   26 type  1   force =     0.00000000    0.00000000    0.00000000
     atom   27 type  1   force =     0.00000000    0.00000000    0.00000000
     atom   28 type  1   force =     0.00000000    0.00000000    0.00000000
     atom   29 type  1   force =     0.00000000    0.00000000    0.00000000
     atom   30 type  1   force =     0.00000000    0.00000000    0.00000000
     atom   31 type  1   force =     0.00000000    0.00000000    0.00000000
     atom   32 type  1   force =     0.00000000    0.00000000    0.00000000
     atom   33 type  1   force =     0.00000000    0.00000000    0.00000000
     atom   34 type  1   force =     0.00000000    0.00000000    0.00000000
     atom   35 type  1   force =     0.00000000    0.00000000    0.00000000
     atom   36 type  1   force =     0.00000000    0.00000000    0.00000000
     atom   37 type  1   force =     0.00000000    0.00000000    0.00000000
     atom   38 type  1   force =     0.00000000    0.00000000    0.00000000
     atom   39 type  1   force =     0.00000000    0.00000000    0.00000000
     atom   40 type  1   force =     0.00000000    0.00000000    0.00000000
     atom   41 type  1   force =     0.00000000    0.00000000    0.00000000
     atom   42 type  1   force =     0.00000000    0.00000000    0.00000000
     atom   43 type  1   force =     0.00000000    0.00000000    0.00000000
     atom   44 type  1   force =     0.00000000    0.00000000    0.00000000
     atom   45 type  1   force =     0.00000000    0.00000000    0.00000000
     atom   46 type  1   force =     0.00000000    0.00000000    0.00000000
     atom   47 type  1   force =     0.00000000    0.00000000    0.00000000
     atom   48 type  1   force =     0.00000000    0.00000000    0.00000000
     atom   49 type  1   force =     0.00000000    0.00000000    0.00000000
     atom   50 type  1   force =     0.00000000    0.00000000    0.00000000
     atom   51 type  1   force =     0.00000000    0.00000000    0.00000000
     atom   52 type  1   force =     0.00000000    0.00000000    0.00000000
     atom   53 type  1   force =     0.00000000    0.00000000    0.00000000
     atom   54 type  1   force =     0.00000000    0.00000000    0.00000000
     atom   55 type  1   force =     0.00000000    0.00000000    0.00000000
     atom   56 type  1   force =     0.00000000    0.00000000    0.00000000
     atom   57 type  1   force =     0.00000000    0.00000000    0.00000000
     atom   58 type  1   force =     0.00000000    0.00000000    0.00000000
     atom   59 type  1   force =     0.00000000    0.00000000    0.00000000
     atom   60 type  1   force =     0.00000000    0.00000000    0.00000000
     atom   61 type  1   force =     0.00000000    0.00000000    0.00000000
     atom   62 type  1   force =     0.00000000    0.00000000    0.00000000
     atom   63 type  1   force =     0.00000000    0.00000000    0.00000000
     atom   64 type  1   force =     0.00000000    0.00000000    0.00000000
     atom   65 type  1   force =     0.00000000    0.00000000    0.00000000
     atom   66 type  1   force =     0.00000000    0.00000000    0.00000000
     atom   67 type  1   force =     0.00000000    0.00000000    0.00000000
     atom   68 type  1   force =     0.00000000    0.00000000    0.00000000
     The SCF correction term to forces
     atom    1 type  1   force =    -0.00000002    0.00000017    0.00000283
     atom    2 type  1   force =     0.00000000   -0.00000010   -0.00000147
     atom    3 type  1   force =     0.00000000    0.00000005   -0.00000141
     atom    4 type  1   force =    -0.00000000    0.00000004   -0.00000180
     atom    5 type  1   force =     0.00000000   -0.00000026   -0.00000141
     atom    6 type  1   force =     0.00000000   -0.00000021   -0.00000145
     atom    7 type  1   force =     0.00000001    0.00000029   -0.00000024
     atom    8 type  1   force =    -0.00000000    0.00000025   -0.00000144
     atom    9 type  1   force =    -0.00000000    0.00000016   -0.00000124
     atom   10 type  1   force =     0.00000001   -0.00000016   -0.00000058
     atom   11 type  1   force =    -0.00000000   -0.00000025    0.00000032
     atom   12 type  1   force =     0.00000001   -0.00000005    0.00000085
     atom   13 type  1   force =     0.00000001   -0.00000000   -0.00000088
     atom   14 type  1   force =     0.00000000    0.00000020    0.00000068
     atom   15 type  1   force =    -0.00000001   -0.00000002    0.00000118
     atom   16 type  1   force =     0.00000000   -0.00000020    0.00000179
     atom   17 type  1   force =     0.00000000    0.00000002    0.00000158
     atom   18 type  1   force =    -0.00000000    0.00000013   -0.00000147
     atom   19 type  1   force =     0.00000000   -0.00000011   -0.00000146
     atom   20 type  1   force =     0.00000001    0.00000017   -0.00000134
     atom   21 type  1   force =     0.00000000   -0.00000005   -0.00000156
     atom   22 type  1   force =    -0.00000000   -0.00000032   -0.00000104
     atom   23 type  1   force =     0.00000001   -0.00000019   -0.00000042
     atom   24 type  1   force =     0.00000001    0.00000028    0.00000087
     atom   25 type  1   force =     0.00000001    0.00000030   -0.00000073
     atom   26 type  1   force =    -0.00000000    0.00000004    0.00000010
     atom   27 type  1   force =    -0.00000000   -0.00000018    0.00000076
     atom   28 type  1   force =     0.00000000   -0.00000012    0.00000129
     atom   29 type  1   force =    -0.00000000    0.00000004    0.00000160
     atom   30 type  1   force =     0.00000000    0.00000006    0.00000047
     atom   31 type  1   force =     0.00000001    0.00000005    0.00000171
     atom   32 type  1   force =     0.00000000   -0.00000014   -0.00000264
     atom   33 type  1   force =     0.00000000   -0.00000007   -0.00000172
     atom   34 type  1   force =     0.00000001    0.00000020   -0.00000167
     atom   35 type  1   force =    -0.00000000    0.00000015    0.00000283
     atom   36 type  1   force =    -0.00000000   -0.00000010   -0.00000148
     atom   37 type  1   force =    -0.00000001    0.00000005   -0.00000140
     atom   38 type  1   force =    -0.00000001    0.00000003   -0.00000181
     atom   39 type  1   force =    -0.00000000   -0.00000026   -0.00000141
     atom   40 type  1   force =    -0.00000001   -0.00000020   -0.00000145
     atom   41 type  1   force =    -0.00000000    0.00000029   -0.00000022
     atom   42 type  1   force =    -0.00000000    0.00000025   -0.00000146
     atom   43 type  1   force =     0.00000000    0.00000015   -0.00000126
     atom   44 type  1   force =    -0.00000000   -0.00000017   -0.00000058
     atom   45 type  1   force =     0.00000000   -0.00000025    0.00000032
     atom   46 type  1   force =    -0.00000000   -0.00000005    0.00000086
     atom   47 type  1   force =    -0.00000001    0.00000000   -0.00000088
     atom   48 type  1   force =    -0.00000001    0.00000019    0.00000069
     atom   49 type  1   force =     0.00000000   -0.00000001    0.00000120
     atom   50 type  1   force =    -0.00000001   -0.00000021    0.00000176
     atom   51 type  1   force =    -0.00000000    0.00000002    0.00000158
     atom   52 type  1   force =     0.00000001    0.00000012   -0.00000148
     atom   53 type  1   force =    -0.00000000   -0.00000011   -0.00000146
     atom   54 type  1   force =     0.00000000    0.00000017   -0.00000135
     atom   55 type  1   force =    -0.00000000   -0.00000004   -0.00000157
     atom   56 type  1   force =    -0.00000000   -0.00000031   -0.00000103
     atom   57 type  1   force =    -0.00000000   -0.00000019   -0.00000043
     atom   58 type  1   force =    -0.00000001    0.00000028    0.00000086
     atom   59 type  1   force =    -0.00000001    0.00000029   -0.00000074
     atom   60 type  1   force =     0.00000000    0.00000004    0.00000010
     atom   61 type  1   force =    -0.00000001   -0.00000018    0.00000076
     atom   62 type  1   force =    -0.00000000   -0.00000012    0.00000129
     atom   63 type  1   force =     0.00000001    0.00000004    0.00000159
     atom   64 type  1   force =    -0.00000001    0.00000006    0.00000046
     atom   65 type  1   force =    -0.00000000    0.00000005    0.00000174
     atom   66 type  1   force =     0.00000000   -0.00000014   -0.00000262
     atom   67 type  1   force =    -0.00000000   -0.00000007   -0.00000171
     atom   68 type  1   force =     0.00000002    0.00000020   -0.00000166

     Total force =     0.001674     Total SCF correction =     0.000011
     Energy error            =      4.0E-06 Ry
     Gradient error          =      3.1E-04 Ry/Bohr

     bfgs converged in  25 scf cycles and  24 bfgs steps
     (criteria: energy <  1.0E-05 Ry, force <  3.9E-04 Ry/Bohr)

     End of BFGS Geometry Optimization

     Final energy             =   -1022.7700715987 Ry

     File ./Li/Lithium.bfgs deleted, as requested
Begin final coordinates

ATOMIC_POSITIONS (angstrom)
Li              -0.0025079503        0.0582584984       20.0880153562
Li               0.0019991572        5.9239350616       33.2006905786
Li               2.4312856861        7.6014142095       31.7853981726
Li               2.4316219180        1.8098948185       32.3173612267
Li               0.0019898145        3.5890031541       30.6840221592
Li               2.4307476289        5.2935260450       29.1874691582
Li               2.4284661878        8.7939705509       25.8723457220
Li               0.0019982227        9.4693249728       29.9299758628
Li               0.0010560727        1.1761868594       28.2910738982
Li               2.4288957430        2.9312117480       26.6128669762
Li              -0.0017045343        4.7378407869       24.7986719351
Li               2.4271122635        6.4036675922       23.2636647443
Li               0.0002910375        7.1083376485       27.4009178448
Li               2.4273004811        0.5803133138       24.1203810546
Li              -0.0025371048        2.3842422829       22.3572645475
Li               2.4268674401        4.0013219186       20.7796624484
Li              -0.0022581088        8.3168427391       21.4905913060
Li               0.0024959137        0.5612825972       31.2662542795
Li               0.0019094656        6.5571395436       30.3593205052
Li               2.4307386394        8.2229824270       28.8226377449
Li               2.4307479120        2.3652031951       29.5017112416
Li               0.0005544410        4.1668557700       27.7484866935
Li               2.4287473426        5.8525690952       26.2198308822
Li               2.4270243034        9.3716065714       22.9392460081
Li               0.0001226778       10.0295123851       27.0079380080
Li              -0.0010926606        1.7693941426       25.3300022888
Li               2.4270344337        3.4914703631       23.6926512292
Li              -0.0022767745        5.3593595177       21.8384233300
Li               2.4270225726        7.0368235022       20.4244247690
Li              -0.0017245363        7.6672583171       24.4341678989
Li               2.4264188819        1.1356724472       21.3069365590
Li               0.0025622401        2.8872335103       33.5373879737
Li               2.4312793582        4.6438710182       32.1336341812
Li               0.0021492785        8.9593733370       32.8453040647
Li               4.8554628570        0.0582123031       20.0880346367
Li               4.8600709469        5.9239174367       33.2007234328
Li               7.2893848475        7.6014215073       31.7853955733
Li               7.2896814321        1.8098918374       32.3174420587
Li               4.8600039977        3.5890118813       30.6840139068
Li               7.2887585381        5.2935341037       29.1874265380
Li               7.2865393587        8.7939860149       25.8723438609
Li               4.8600385368        9.4693499926       29.9299046240
Li               4.8591358586        1.1761831094       28.2910811099
Li               7.2869573818        2.9312245039       26.6129153290
Li               4.8563207927        4.7378334169       24.7986709962
Li               7.2851371824        6.4036609536       23.2636222299
Li               4.8583456146        7.1083374945       27.4009536350
Li               7.2853313867        0.5803171441       24.1202793277
Li               4.8555576319        2.3842190507       22.3572848383
Li               7.2849127663        4.0013794402       20.7797180477
Li               4.8557823405        8.3168543994       21.4906413670
Li               4.8605735202        0.5612893860       31.2662533690
Li               4.8599687261        6.5571774400       30.3593690212
Li               7.2887981241        8.2229940447       28.8226370190
Li               7.2887922194        2.3652263924       29.5017727874
Li               4.8585724662        4.1668429193       27.7484713035
Li               7.2867796788        5.8525768100       26.2197948405
Li               7.2851051229        9.3716232199       22.9392262207
Li               4.8581551088       10.0295168259       27.0078559502
Li               4.8569867313        1.7693979250       25.3300291100
Li               7.2850814473        3.4914766009       23.6926937459
Li               4.8557298689        5.3593424831       21.8384303369
Li               7.2850262180        7.0368699862       20.4243968272
Li               4.8563472319        7.6672629280       24.4342114870
Li               7.2844606263        1.1356846277       21.3068043243
Li               4.8605654986        2.8872068746       33.5373694484
Li               7.2893175211        4.6438565882       32.1335921202
Li               4.8601896460        8.9593284573       32.8452183423
End final coordinates



     Writing all to output data dir ./Li/Lithium.save/ :
     XML data file
     init_run     :     35.38s CPU     48.10s WALL (       1 calls)
     electrons    :  40317.22s CPU  52667.03s WALL (      25 calls)
     update_pot   :      4.71s CPU      5.51s WALL (      24 calls)
     forces       :   2707.16s CPU   2857.86s WALL (      25 calls)

     Called by init_run:
     wfcinit      :      7.76s CPU     10.76s WALL (       1 calls)
     wfcinit:wfcr :      7.15s CPU     10.13s WALL (      13 calls)
     potinit      :      1.20s CPU      1.28s WALL (       1 calls)
     hinit0       :     11.23s CPU     20.42s WALL (       1 calls)

     Called by electrons:
     c_bands      :  30422.76s CPU  40567.73s WALL (     571 calls)
     sum_band     :   2067.76s CPU   2896.44s WALL (     571 calls)
     v_of_rho     :     79.87s CPU     92.30s WALL (     572 calls)
     v_h          :      6.37s CPU      7.62s WALL (     572 calls)
     v_xc         :     73.47s CPU     84.62s WALL (     572 calls)
     newd         :     67.23s CPU    111.88s WALL (     572 calls)
     PAW_pot      :      6.25s CPU      8.48s WALL (     596 calls)
     mix_rho      :    227.74s CPU    272.75s WALL (     571 calls)

     Called by c_bands:
     init_us_2    :    391.94s CPU    393.81s WALL (   15496 calls)
     cegterg      :  28517.17s CPU  36065.54s WALL (    8213 calls)

     Called by sum_band:
     sum_band:wei :      1.44s CPU      1.60s WALL (     571 calls)
     sum_band:loo :   2005.07s CPU   2828.48s WALL (     571 calls)
     sum_band:buf :     42.02s CPU     43.06s WALL (    7423 calls)
     sum_band:ini :    188.53s CPU    188.90s WALL (    7423 calls)
     sum_band:cal :    396.22s CPU    422.95s WALL (    7735 calls)
     sum_band:bec :      3.08s CPU      3.64s WALL (    7735 calls)
     addusdens    :     49.33s CPU     49.72s WALL (     571 calls)
                                        0.00s GPU  (     571 calls)
     addusd:skk   :     14.01s CPU     14.04s WALL (     571 calls)
                                        0.00s GPU  (     571 calls)

     Called by *egterg:
     cdiaghg      :   8095.01s CPU   9246.50s WALL (  103623 calls)
     cegterg:over :   2280.38s CPU   2530.92s WALL (   96283 calls)
     cegterg:upda :   1857.65s CPU   1926.58s WALL (   96283 calls)
     cegterg:last :    554.20s CPU    595.58s WALL (    9095 calls)
     cdiaghg:chol :    390.46s CPU    743.68s WALL (  103623 calls)
     cdiaghg:inve :    177.72s CPU    197.19s WALL (  103623 calls)
     cdiaghg:para :   2265.75s CPU   2647.65s WALL (  207246 calls)
     h_psi        :  13695.82s CPU  19687.18s WALL (  104509 calls)
     s_psi        :   1602.14s CPU   1607.89s WALL (  104509 calls)
     g_psi        :     29.54s CPU     31.78s WALL (   96283 calls)

     Called by h_psi:
     h_psi:calbec :   1941.22s CPU   2110.88s WALL (  104509 calls)
     vloc_psi     :  10055.01s CPU  15859.41s WALL (  104509 calls)
                                        0.00s GPU  (  104509 calls)
     add_vuspsi   :   1593.08s CPU   1605.72s WALL (  104509 calls)

     General routines
     calbec       :   2396.80s CPU   2597.01s WALL (  113544 calls)
     fft          :     56.39s CPU     82.91s WALL (    7484 calls)
     ffts         :    110.01s CPU    137.50s WALL (   65349 calls)
     fftw         :  11014.37s CPU  17399.58s WALL ( 9526273 calls)
     interpolate  :      6.51s CPU      7.96s WALL (     572 calls)

     Parallel routines

     PAW routines
     PAW_pot      :      6.25s CPU      8.48s WALL (     596 calls)

     Environ routines

     PWSCF        :     12h 7m CPU     15h37m WALL


   This run was terminated on:  10:52:33   5Jan2025            

=------------------------------------------------------------------------------=
   JOB DONE.
=------------------------------------------------------------------------------=
