
     Program PWSCF v.7.4 starts on  2Jan2025 at  7:44:25 

     This program is part of the open-source Quantum ESPRESSO suite
     for quantum simulation of materials; please cite
         "P. Giannozzi et al., J. Phys.:Condens. Matter 21 395502 (2009);
         "P. Giannozzi et al., J. Phys.:Condens. Matter 29 465901 (2017);
         "P. Giannozzi et al., J. Chem. Phys. 152 154105 (2020);
          URL http://www.quantum-espresso.org", 
     in publications or presentations arising from this work. More details at
     http://www.quantum-espresso.org/quote

     Parallel version (MPI & OpenMP), running on     512 processor cores
     Number of MPI processes:               512
     Threads/MPI process:                     1

     MPI processes distributed on     4 nodes
     231685 MiB available memory on the printing compute node when the environment starts

     Reading input from espresso.pwi
Warning: card &CELL ignored
Warning: card    PRESS_CONV_THR   = 0.1 ignored
Warning: card    CELL_DOFREE      = 'ALL' ignored
Warning: card / ignored
Warning: card &FCP ignored
Warning: card / ignored
Warning: card &RISM ignored
Warning: card / ignored

     Current dimensions of program PWSCF are:
     Max number of different atomic species (ntypx) = 10
     Max number of k-points (npk) =  40000
     Max angular momentum in pseudopotentials (lmaxx) =  4

     IMPORTANT: XC functional enforced from input :
     Exchange-correlation= PBE
                           (   1   4   3   4   0   0   0)
     Any further DFT definition will be discarded
     Please, verify this is what you really want


     Reading input from environ.in:
     * using ionic solvent mode
     * setting boundary derivatives method to SSCS default
     * setting electrolyte-boundary derivatives method to SSCS default

Environ Warning (1001): card EOF ignored

     

     K-points division:     npool     =       2
     R & G space division:  proc/nbgrp/npool/nimage =     256
     Subspace diagonalization in iterative solution of the eigenvalue problem:
     a serial algorithm will be used


     Parallelization info
     --------------------
     sticks:   dense  smooth     PW     G-vecs:    dense   smooth      PW
     Min          49      19      5                30863     7773    1061
     Max          50      20      6                30904     7852    1116
     Sum       12597    5037   1349              7904519  1999739  278317

     Using Slab Decomposition



     bravais-lattice index     =            8
     lattice parameter (alat)  =      18.3607  a.u.
     unit-cell volume          =   20684.8735 (a.u.)^3
     number of atoms/cell      =           44
     number of atomic types    =            1
     number of electrons       =       132.00
     number of Kohn-Sham states=           99
     kinetic-energy cutoff     =      80.0000  Ry
     charge density cutoff     =     800.0000  Ry
     scf convergence threshold =      1.0E-14
     mixing beta               =       0.2000
     number of iterations used =            8  local-TF  mixing
     Exchange-correlation= PBE
                           (   1   4   3   4   0   0   0)

     ================================================================================

                                  Environ Setup Summary

     ================================================================================

     Please cite

          O. Andreussi, I. Dabo and N. Marzari, J. Chem. Phys. 136, 064102 (2012)
          F. Nattino, M. Truscott, N. Marzari, and O. Andreussi, J. Chem. Phys. 150, 041722 (2019)

     in publications or presentations arising from this work.

     ================================================================================

     Parameters
     ==========

     compensation onset threshold      =               0.1000E+00
     static permittivity               =                    89.90
     surface tension in input (dyn/cm) =                    37.30
     surface tension in internal units =               0.4792E-04

     Solvent Boundary
     ================

     solvent mode                      =                    ionic
     derivatives method                =                   lowmem
     electrolyte derivatives method    =                   lowmem
     numerical core for derivatives    =                      fft
     switching function adopted        =                     SCCS
     density limit for vacuum region   =               0.5000E-02
     density limit for bulk solvent    =               0.1000E-03
     soft-sphere radius mode           =                    bondi
     soft-sphere softness              =                     0.50
     alpha                             =                     1.32

     Electrostatic Setup
     ===================

     electrostatic problem to solve    =                    modpb
     numerical solver adopted          =                   newton
     type of auxiliary density adopted =                     none
     numerical core for poisson        =                      fft
     adopting a nested solver scheme
     inner solver                      =                       cg
     inner core                        =                      fft
     type of pbc corrections           =                parabolic
     numerical core for corrections    =                      1da

     ================================================================================


     >>>>> Grand-Canonical SCF is activated <<<<<
     Initial Total Charge  =     0.000000 e
     Target Fermi Energy   =    -3.404000 eV
     Thr. of Fermi Energy  =     0.001000 eV
     Wave-shift of Kerker  =     0.400000 bohr^-1
     Wave-shift of Hartree =     1.500000 bohr^-1
     Mixing Rate of Fermi  =     0.050000

     celldm(1)=  18.360747  celldm(2)=   0.586302  celldm(3)=   5.699811
     celldm(4)=   0.000000  celldm(5)=   0.000000  celldm(6)=   0.000000

     crystal axes: (cart. coord. in units of alat)
               a(1) = (   1.000000   0.000000   0.000000 )  
               a(2) = (   0.000000   0.586302   0.000000 )  
               a(3) = (   0.000000   0.000000   5.699811 )  

     reciprocal axes: (cart. coord. in units 2 pi/alat)
               b(1) = (  1.000000  0.000000  0.000000 )  
               b(2) = (  0.000000  1.705606  0.000000 )  
               b(3) = (  0.000000  0.000000  0.175444 )  


     PseudoPot. # 1 for Li read from file:
     /work/e89/e89/ba3g18/Repos/Pseudopotentials/Pslibrary/Li.pbe-sl-kjpaw_psl.1.0.0.UPF
     MD5 check sum: 3f4d2cafebb47c6c3aa8ed472e6f074d
     Pseudo is Projector augmented-wave, Zval =  3.0
     Generated using 'atomic' code by A. Dal Corso  v.7.4
     Shape of augmentation charge: PSQ
     Using radial grid of 1017 points,  4 beta functions with: 
                l(1) =   0
                l(2) =   0
                l(3) =   1
                l(4) =   1
     Q(r) pseudized with 0 coefficients 


     atomic species   valence    mass     pseudopotential
     Li                3.00     6.94000     Li( 1.00)

      2 Sym. Ops. (no inversion) found


                                    s                        frac. trans.

      isym =  1     identity                                     

 cryst.   s( 1) = (     1          0          0      )
                  (     0          1          0      )
                  (     0          0          1      )

 cart.    s( 1) = (  1.0000000  0.0000000  0.0000000 )
                  (  0.0000000  1.0000000  0.0000000 )
                  (  0.0000000  0.0000000  1.0000000 )


      isym =  2     inv. 180 deg rotation - cart. axis [1,0,0]   

 cryst.   s( 2) = (    -1          0          0      )
                  (     0          1          0      )
                  (     0          0          1      )

 cart.    s( 2) = ( -1.0000000  0.0000000  0.0000000 )
                  (  0.0000000  1.0000000  0.0000000 )
                  (  0.0000000  0.0000000  1.0000000 )


     point group C_s (m)    
     there are  2 classes
     the character table:

       E     s    
A'     1.00  1.00
A''    1.00 -1.00

     the symmetry operations in each class and the name of the first element:

     E        1
          identity                                               
     s        2
          inv. 180 deg rotation - cart. axis [1,0,0]             

   Cartesian axes

     site n.     atom                  positions (alat units)
         1        Li     tau(   1) = (   0.5000000   0.5503132   3.6621398  )
         2        Li     tau(   2) = (   0.2499953   0.4623325   2.0376823  )
         3        Li     tau(   3) = (   0.2500010   0.1032907   2.2512439  )
         4        Li     tau(   4) = (   0.5000000   0.2188711   2.1050240  )
         5        Li     tau(   5) = (  -0.0000000   0.5066824   2.2586254  )
         6        Li     tau(   6) = (   0.5000000   0.1953147   2.4238291  )
         7        Li     tau(   7) = (   0.2500027   0.3208651   2.6529205  )
         8        Li     tau(   8) = (   0.2499986   0.5850096   2.8332004  )
         9        Li     tau(   9) = (   0.2500011   0.3792102   2.3462331  )
        10        Li     tau(  10) = (   0.2499983   0.0446850   2.5371974  )
        11        Li     tau(  11) = (  -0.0000000   0.4697994   2.5660240  )
        12        Li     tau(  12) = (   0.5000000   0.1511706   2.7367538  )
        13        Li     tau(  13) = (   0.5000000   0.4276957   2.8665893  )
        14        Li     tau(  14) = (   0.5000000   0.1055345   3.0468898  )
        15        Li     tau(  15) = (   0.2499965   0.5429032   3.1337920  )
        16        Li     tau(  16) = (   0.2500010   0.2310860   3.2759784  )
        17        Li     tau(  17) = (   0.2500024   0.2752278   2.9630555  )
        18        Li     tau(  18) = (  -0.0000000   0.3817134   3.1626332  )
        19        Li     tau(  19) = (   0.5000000   0.0471993   3.3535829  )
        20        Li     tau(  20) = (   0.5000000   0.3231336   3.4485098  )
        21        Li     tau(  21) = (   0.2499881   0.5060228   3.4411886  )
        22        Li     tau(  22) = (   0.2500622   0.2075323   3.5947832  )
        23        Li     tau(  23) = (   1.0000000   0.5504249   3.6621189  )
        24        Li     tau(  24) = (   0.7500047   0.4623325   2.0376823  )
        25        Li     tau(  25) = (   0.7499990   0.1032907   2.2512439  )
        26        Li     tau(  26) = (   1.0000000   0.2188677   2.1050267  )
        27        Li     tau(  27) = (   0.5000000   0.5066809   2.2586138  )
        28        Li     tau(  28) = (   1.0000000   0.1953181   2.4238285  )
        29        Li     tau(  29) = (   0.7499972   0.3208651   2.6529205  )
        30        Li     tau(  30) = (   0.7500014   0.5850096   2.8332004  )
        31        Li     tau(  31) = (   0.7499989   0.3792102   2.3462331  )
        32        Li     tau(  32) = (   0.7500017   0.0446850   2.5371974  )
        33        Li     tau(  33) = (   0.5000000   0.4698015   2.5660076  )
        34        Li     tau(  34) = (   1.0000000   0.1511751   2.7367496  )
        35        Li     tau(  35) = (   1.0000000   0.4276900   2.8666240  )
        36        Li     tau(  36) = (   1.0000000   0.1055369   3.0468833  )
        37        Li     tau(  37) = (   0.7500035   0.5429032   3.1337920  )
        38        Li     tau(  38) = (   0.7499990   0.2310860   3.2759784  )
        39        Li     tau(  39) = (   0.7499976   0.2752278   2.9630555  )
        40        Li     tau(  40) = (   0.5000000   0.3817190   3.1625858  )
        41        Li     tau(  41) = (   1.0000000   0.0471833   3.3535658  )
        42        Li     tau(  42) = (   1.0000000   0.3230921   3.4486123  )
        43        Li     tau(  43) = (   0.7500119   0.5060228   3.4411886  )
        44        Li     tau(  44) = (   0.7499377   0.2075323   3.5947832  )

   Crystallographic axes

     site n.     atom                  positions (cryst. coord.)
         1        Li     tau(   1) = (  0.5000000  0.9386174  0.6425020  )
         2        Li     tau(   2) = (  0.2499953  0.7885569  0.3575000  )
         3        Li     tau(   3) = (  0.2500010  0.1761732  0.3949682  )
         4        Li     tau(   4) = (  0.5000000  0.3733079  0.3693147  )
         5        Li     tau(   5) = (  0.0000000  0.8642003  0.3962632  )
         6        Li     tau(   6) = (  0.5000000  0.3331299  0.4252473  )
         7        Li     tau(   7) = (  0.2500027  0.5472693  0.4654401  )
         8        Li     tau(   8) = (  0.2499986  0.9977956  0.4970692  )
         9        Li     tau(   9) = (  0.2500011  0.6467830  0.4116335  )
        10        Li     tau(  10) = (  0.2499983  0.0762150  0.4451371  )
        11        Li     tau(  11) = (  0.0000000  0.8012925  0.4501946  )
        12        Li     tau(  12) = (  0.5000000  0.2578374  0.4801482  )
        13        Li     tau(  13) = (  0.5000000  0.7294802  0.5029271  )
        14        Li     tau(  14) = (  0.5000000  0.1800003  0.5345598  )
        15        Li     tau(  15) = (  0.2499965  0.9259788  0.5498063  )
        16        Li     tau(  16) = (  0.2500010  0.3941417  0.5747521  )
        17        Li     tau(  17) = (  0.2500024  0.4694300  0.5198515  )
        18        Li     tau(  18) = (  0.0000000  0.6510526  0.5548663  )
        19        Li     tau(  19) = (  0.5000000  0.0805034  0.5883674  )
        20        Li     tau(  20) = (  0.5000000  0.5511385  0.6050218  )
        21        Li     tau(  21) = (  0.2499881  0.8630753  0.6037373  )
        22        Li     tau(  22) = (  0.2500622  0.3539683  0.6306846  )
        23        Li     tau(  23) = (  1.0000000  0.9388078  0.6424983  )
        24        Li     tau(  24) = (  0.7500047  0.7885569  0.3575000  )
        25        Li     tau(  25) = (  0.7499990  0.1761732  0.3949682  )
        26        Li     tau(  26) = (  1.0000000  0.3733020  0.3693152  )
        27        Li     tau(  27) = (  0.5000000  0.8641978  0.3962612  )
        28        Li     tau(  28) = (  1.0000000  0.3331356  0.4252472  )
        29        Li     tau(  29) = (  0.7499972  0.5472693  0.4654401  )
        30        Li     tau(  30) = (  0.7500014  0.9977956  0.4970692  )
        31        Li     tau(  31) = (  0.7499989  0.6467830  0.4116335  )
        32        Li     tau(  32) = (  0.7500017  0.0762150  0.4451371  )
        33        Li     tau(  33) = (  0.5000000  0.8012960  0.4501917  )
        34        Li     tau(  34) = (  1.0000000  0.2578450  0.4801474  )
        35        Li     tau(  35) = (  1.0000000  0.7294704  0.5029332  )
        36        Li     tau(  36) = (  1.0000000  0.1800044  0.5345587  )
        37        Li     tau(  37) = (  0.7500035  0.9259788  0.5498063  )
        38        Li     tau(  38) = (  0.7499990  0.3941417  0.5747521  )
        39        Li     tau(  39) = (  0.7499976  0.4694300  0.5198515  )
        40        Li     tau(  40) = (  0.5000000  0.6510622  0.5548580  )
        41        Li     tau(  41) = (  1.0000000  0.0804761  0.5883644  )
        42        Li     tau(  42) = (  1.0000000  0.5510677  0.6050398  )
        43        Li     tau(  43) = (  0.7500119  0.8630753  0.6037373  )
        44        Li     tau(  44) = (  0.7499377  0.3539683  0.6306846  )

     number of k points=    28  Marzari-Vanderbilt smearing, width (Ry)=  0.0100
                       cart. coord. in units 2pi/alat
        k(    1) = (   0.0000000   0.0000000   0.0000000), wk =   0.0238095
        k(    2) = (   0.0000000   0.1421338   0.0000000), wk =   0.0476190
        k(    3) = (   0.0000000   0.2842676   0.0000000), wk =   0.0476190
        k(    4) = (   0.0000000   0.4264014   0.0000000), wk =   0.0476190
        k(    5) = (   0.0000000   0.5685352   0.0000000), wk =   0.0476190
        k(    6) = (   0.0000000   0.7106690   0.0000000), wk =   0.0476190
        k(    7) = (   0.0000000  -0.8528028   0.0000000), wk =   0.0238095
        k(    8) = (   0.1428571   0.0000000   0.0000000), wk =   0.0476190
        k(    9) = (   0.1428571   0.1421338   0.0000000), wk =   0.0952381
        k(   10) = (   0.1428571   0.2842676   0.0000000), wk =   0.0952381
        k(   11) = (   0.1428571   0.4264014   0.0000000), wk =   0.0952381
        k(   12) = (   0.1428571   0.5685352   0.0000000), wk =   0.0952381
        k(   13) = (   0.1428571   0.7106690   0.0000000), wk =   0.0952381
        k(   14) = (   0.1428571  -0.8528028   0.0000000), wk =   0.0476190
        k(   15) = (   0.2857143   0.0000000   0.0000000), wk =   0.0476190
        k(   16) = (   0.2857143   0.1421338   0.0000000), wk =   0.0952381
        k(   17) = (   0.2857143   0.2842676   0.0000000), wk =   0.0952381
        k(   18) = (   0.2857143   0.4264014   0.0000000), wk =   0.0952381
        k(   19) = (   0.2857143   0.5685352   0.0000000), wk =   0.0952381
        k(   20) = (   0.2857143   0.7106690   0.0000000), wk =   0.0952381
        k(   21) = (   0.2857143  -0.8528028   0.0000000), wk =   0.0476190
        k(   22) = (   0.4285714   0.0000000   0.0000000), wk =   0.0476190
        k(   23) = (   0.4285714   0.1421338   0.0000000), wk =   0.0952381
        k(   24) = (   0.4285714   0.2842676   0.0000000), wk =   0.0952381
        k(   25) = (   0.4285714   0.4264014   0.0000000), wk =   0.0952381
        k(   26) = (   0.4285714   0.5685352   0.0000000), wk =   0.0952381
        k(   27) = (   0.4285714   0.7106690   0.0000000), wk =   0.0952381
        k(   28) = (   0.4285714  -0.8528028   0.0000000), wk =   0.0476190

                       cryst. coord.
        k(    1) = (   0.0000000   0.0000000   0.0000000), wk =   0.0238095
        k(    2) = (   0.0000000   0.0833333   0.0000000), wk =   0.0476190
        k(    3) = (   0.0000000   0.1666667   0.0000000), wk =   0.0476190
        k(    4) = (   0.0000000   0.2500000   0.0000000), wk =   0.0476190
        k(    5) = (   0.0000000   0.3333333   0.0000000), wk =   0.0476190
        k(    6) = (   0.0000000   0.4166667   0.0000000), wk =   0.0476190
        k(    7) = (   0.0000000  -0.5000000   0.0000000), wk =   0.0238095
        k(    8) = (   0.1428571   0.0000000   0.0000000), wk =   0.0476190
        k(    9) = (   0.1428571   0.0833333   0.0000000), wk =   0.0952381
        k(   10) = (   0.1428571   0.1666667   0.0000000), wk =   0.0952381
        k(   11) = (   0.1428571   0.2500000   0.0000000), wk =   0.0952381
        k(   12) = (   0.1428571   0.3333333   0.0000000), wk =   0.0952381
        k(   13) = (   0.1428571   0.4166667   0.0000000), wk =   0.0952381
        k(   14) = (   0.1428571  -0.5000000   0.0000000), wk =   0.0476190
        k(   15) = (   0.2857143   0.0000000   0.0000000), wk =   0.0476190
        k(   16) = (   0.2857143   0.0833333   0.0000000), wk =   0.0952381
        k(   17) = (   0.2857143   0.1666667   0.0000000), wk =   0.0952381
        k(   18) = (   0.2857143   0.2500000   0.0000000), wk =   0.0952381
        k(   19) = (   0.2857143   0.3333333   0.0000000), wk =   0.0952381
        k(   20) = (   0.2857143   0.4166667   0.0000000), wk =   0.0952381
        k(   21) = (   0.2857143  -0.5000000   0.0000000), wk =   0.0476190
        k(   22) = (   0.4285714   0.0000000   0.0000000), wk =   0.0476190
        k(   23) = (   0.4285714   0.0833333   0.0000000), wk =   0.0952381
        k(   24) = (   0.4285714   0.1666667   0.0000000), wk =   0.0952381
        k(   25) = (   0.4285714   0.2500000   0.0000000), wk =   0.0952381
        k(   26) = (   0.4285714   0.3333333   0.0000000), wk =   0.0952381
        k(   27) = (   0.4285714   0.4166667   0.0000000), wk =   0.0952381
        k(   28) = (   0.4285714  -0.5000000   0.0000000), wk =   0.0476190

     Dense  grid:  7904519 G-vectors     FFT dimensions: ( 180, 100, 960)

     Smooth grid:  1999739 G-vectors     FFT dimensions: ( 108,  64, 600)

     Dynamical RAM for                 wfc:       1.47 MB

     Dynamical RAM for     wfc (w. buffer):      22.12 MB

     Dynamical RAM for           str. fact:       0.47 MB

     Dynamical RAM for           local pot:       0.00 MB

     Dynamical RAM for          nlocal pot:       5.24 MB

     Dynamical RAM for                qrad:       0.65 MB

     Dynamical RAM for          rho,v,vnew:       3.06 MB

     Dynamical RAM for               rhoin:       1.02 MB

     Dynamical RAM for            rho*nmix:       7.54 MB

     Dynamical RAM for           G-vectors:       1.83 MB

     Dynamical RAM for          h,s,v(r/c):       7.18 MB

     Dynamical RAM for          <psi|beta>:       0.53 MB

     Dynamical RAM for                 psi:       5.90 MB

     Dynamical RAM for                hpsi:       5.90 MB

     Dynamical RAM for                spsi:       5.90 MB

     Dynamical RAM for      wfcinit/wfcrot:       3.17 MB

     Dynamical RAM for           addusdens:      20.73 MB

     Dynamical RAM for          addusforce:      41.02 MB

     Estimated static dynamical RAM per process >      38.07 MB

     Estimated max dynamical RAM per process >     120.61 MB

     Estimated total dynamical RAM >      41.43 GB

     Initial potential from superposition of free atoms

     starting charge     131.7972, renormalised to     132.0000

     negative rho (up, down):  3.318E-03 0.000E+00
     Starting wfcs are random
     Checking if some PAW data can be deallocated... 

     total cpu time spent up to now is       27.6 secs

     Self-consistent Calculation

     iteration #  1     ecut=    80.00 Ry     beta= 0.20
     Davidson diagonalization with overlap

---- Real-time Memory Report at c_bands before calling an iterative solver
           540 MiB given to the printing process from OS
             0 MiB allocation reported by mallinfo(arena+hblkhd)
        216698 MiB available memory on the node where the printing process lives
------------------
     c_bands:  2 eigenvalues not converged
     c_bands:  1 eigenvalues not converged
     ethr =  1.00E-12,  avg # of iterations =112.4

     negative rho (up, down):  2.510E-03 0.000E+00

     total cpu time spent up to now is      268.2 secs

     total energy              =    -661.41674562 Ry
     estimated scf accuracy    <       0.11223857 Ry

     total charge of GC-SCF    =       0.03307383 e
     the Fermi energy          =      -4.13364298 eV
                        (error :       0.72964298 eV)
     electrostatic embedding   =       0.00000000 Ry
     cavitation energy         =       0.02490908 Ry
     electrolyte free energy   =       0.00890302 Ry
     correction to one-el term =      -0.00000000 Ry

     iteration #  2     ecut=    80.00 Ry     beta= 0.20
     Davidson diagonalization with overlap

---- Real-time Memory Report at c_bands before calling an iterative solver
           540 MiB given to the printing process from OS
             0 MiB allocation reported by mallinfo(arena+hblkhd)
        215321 MiB available memory on the node where the printing process lives
------------------
     ethr =  1.00E-05,  avg # of iterations = 11.5

     negative rho (up, down):  1.968E-03 0.000E+00

     add environment contribution to local potential

     total cpu time spent up to now is      299.7 secs

     total energy              =    -661.73199171 Ry
     estimated scf accuracy    <       0.07598372 Ry

     total charge of GC-SCF    =       0.06599994 e
     the Fermi energy          =      -3.04866062 eV
                        (error :       0.35533938 eV)
     electrostatic embedding   =       0.00033153 Ry
     cavitation energy         =       0.02490908 Ry
     electrolyte free energy   =       0.00890302 Ry
     correction to one-el term =      -0.00000000 Ry

     iteration #  3     ecut=    80.00 Ry     beta= 0.20
     Davidson diagonalization with overlap

---- Real-time Memory Report at c_bands before calling an iterative solver
           540 MiB given to the printing process from OS
             0 MiB allocation reported by mallinfo(arena+hblkhd)
        215163 MiB available memory on the node where the printing process lives
------------------
     ethr =  1.00E-05,  avg # of iterations = 31.6

     negative rho (up, down):  1.552E-03 0.000E+00

     add environment contribution to local potential

     total cpu time spent up to now is      356.0 secs

     total energy              =    -661.60997366 Ry
     estimated scf accuracy    <       0.04313745 Ry

     total charge of GC-SCF    =       0.08835477 e
     the Fermi energy          =      -3.01780494 eV
                        (error :       0.38619506 eV)
     electrostatic embedding   =      -0.02409022 Ry
     cavitation energy         =       0.02490908 Ry
     electrolyte free energy   =      -0.00386297 Ry
     correction to one-el term =      -0.87863154 Ry

     iteration #  4     ecut=    80.00 Ry     beta= 0.20
     Davidson diagonalization with overlap

---- Real-time Memory Report at c_bands before calling an iterative solver
           540 MiB given to the printing process from OS
             0 MiB allocation reported by mallinfo(arena+hblkhd)
        215212 MiB available memory on the node where the printing process lives
------------------
     ethr =  1.00E-05,  avg # of iterations = 14.5

     negative rho (up, down):  1.239E-03 0.000E+00

     add environment contribution to local potential

     total cpu time spent up to now is      395.4 secs

     total energy              =    -661.66303966 Ry
     estimated scf accuracy    <       0.01765975 Ry

     total charge of GC-SCF    =       0.13051670 e
     the Fermi energy          =      -3.41264966 eV
                        (error :       0.00864966 eV)
     electrostatic embedding   =      -0.02081093 Ry
     cavitation energy         =       0.02490908 Ry
     electrolyte free energy   =      -0.00537658 Ry
     correction to one-el term =       0.39540299 Ry

     iteration #  5     ecut=    80.00 Ry     beta= 0.20
     Davidson diagonalization with overlap

---- Real-time Memory Report at c_bands before calling an iterative solver
           540 MiB given to the printing process from OS
             0 MiB allocation reported by mallinfo(arena+hblkhd)
        215196 MiB available memory on the node where the printing process lives
------------------
     ethr =  1.00E-05,  avg # of iterations = 18.5

     negative rho (up, down):  1.002E-03 0.000E+00

     add environment contribution to local potential

     total cpu time spent up to now is      434.3 secs

     total energy              =    -661.63858989 Ry
     estimated scf accuracy    <       0.00795870 Ry

     total charge of GC-SCF    =       0.30965087 e
     the Fermi energy          =      -3.10331456 eV
                        (error :       0.30068544 eV)
     electrostatic embedding   =      -0.01866780 Ry
     cavitation energy         =       0.02490908 Ry
     electrolyte free energy   =      -0.00349557 Ry
     correction to one-el term =      -0.80434701 Ry

     iteration #  6     ecut=    80.00 Ry     beta= 0.20
     Davidson diagonalization with overlap

---- Real-time Memory Report at c_bands before calling an iterative solver
           540 MiB given to the printing process from OS
             0 MiB allocation reported by mallinfo(arena+hblkhd)
        215152 MiB available memory on the node where the printing process lives
------------------
     ethr =  6.04E-06,  avg # of iterations = 19.7

     negative rho (up, down):  8.779E-04 0.000E+00

     add environment contribution to local potential

     total cpu time spent up to now is      478.1 secs

     total energy              =    -661.69355361 Ry
     estimated scf accuracy    <       0.00226628 Ry

     total charge of GC-SCF    =       0.51569081 e
     the Fermi energy          =      -2.79399225 eV
                        (error :       0.61000775 eV)
     electrostatic embedding   =      -0.02142629 Ry
     cavitation energy         =       0.02490908 Ry
     electrolyte free energy   =      -0.00158363 Ry
     correction to one-el term =      -3.73060635 Ry

     iteration #  7     ecut=    80.00 Ry     beta= 0.20
     Davidson diagonalization with overlap

---- Real-time Memory Report at c_bands before calling an iterative solver
           540 MiB given to the printing process from OS
             0 MiB allocation reported by mallinfo(arena+hblkhd)
        215150 MiB available memory on the node where the printing process lives
------------------
     ethr =  1.72E-06,  avg # of iterations = 13.0

     negative rho (up, down):  8.000E-04 0.000E+00

     add environment contribution to local potential

     total cpu time spent up to now is      514.2 secs

     total energy              =    -661.69909133 Ry
     estimated scf accuracy    <       0.00195876 Ry

     total charge of GC-SCF    =       0.68029983 e
     the Fermi energy          =      -2.92127743 eV
                        (error :       0.48272257 eV)
     electrostatic embedding   =      -0.03510025 Ry
     cavitation energy         =       0.02490908 Ry
     electrolyte free energy   =      -0.00229729 Ry
     correction to one-el term =      -8.52628510 Ry

     iteration #  8     ecut=    80.00 Ry     beta= 0.20
     Davidson diagonalization with overlap

---- Real-time Memory Report at c_bands before calling an iterative solver
           540 MiB given to the printing process from OS
             0 MiB allocation reported by mallinfo(arena+hblkhd)
        215126 MiB available memory on the node where the printing process lives
------------------
     ethr =  1.49E-06,  avg # of iterations = 14.3

     negative rho (up, down):  7.046E-04 0.000E+00

     add environment contribution to local potential

     total cpu time spent up to now is      550.9 secs

     total energy              =    -661.70206647 Ry
     estimated scf accuracy    <       0.00504872 Ry

     total charge of GC-SCF    =       0.74054700 e
     the Fermi energy          =      -3.09650072 eV
                        (error :       0.30749928 eV)
     electrostatic embedding   =      -0.05091675 Ry
     cavitation energy         =       0.02490908 Ry
     electrolyte free energy   =      -0.00339118 Ry
     correction to one-el term =     -13.21789251 Ry

     iteration #  9     ecut=    80.00 Ry     beta= 0.20
     Davidson diagonalization with overlap

---- Real-time Memory Report at c_bands before calling an iterative solver
           540 MiB given to the printing process from OS
             0 MiB allocation reported by mallinfo(arena+hblkhd)
        215106 MiB available memory on the node where the printing process lives
------------------
     ethr =  1.49E-06,  avg # of iterations = 14.9

     negative rho (up, down):  6.561E-04 0.000E+00

     add environment contribution to local potential

     total cpu time spent up to now is      586.8 secs

     total energy              =    -661.69562494 Ry
     estimated scf accuracy    <       0.00103807 Ry

     total charge of GC-SCF    =       0.95813677 e
     the Fermi energy          =      -2.99931497 eV
                        (error :       0.40468503 eV)
     electrostatic embedding   =      -0.06160263 Ry
     cavitation energy         =       0.02490908 Ry
     electrolyte free energy   =      -0.00303638 Ry
     correction to one-el term =     -15.55633978 Ry

     iteration # 10     ecut=    80.00 Ry     beta= 0.20
     Davidson diagonalization with overlap

---- Real-time Memory Report at c_bands before calling an iterative solver
           540 MiB given to the printing process from OS
             0 MiB allocation reported by mallinfo(arena+hblkhd)
        215066 MiB available memory on the node where the printing process lives
------------------
     ethr =  7.92E-07,  avg # of iterations = 16.3

     negative rho (up, down):  6.136E-04 0.000E+00

     add environment contribution to local potential

     total cpu time spent up to now is      628.2 secs

     total energy              =    -661.71017490 Ry
     estimated scf accuracy    <       0.00045694 Ry

     total charge of GC-SCF    =       1.13931824 e
     the Fermi energy          =      -3.05922398 eV
                        (error :       0.34477602 eV)
     electrostatic embedding   =      -0.10304466 Ry
     cavitation energy         =       0.02490908 Ry
     electrolyte free energy   =      -0.00400330 Ry
     correction to one-el term =     -23.27285293 Ry

     iteration # 11     ecut=    80.00 Ry     beta= 0.20
     Davidson diagonalization with overlap

---- Real-time Memory Report at c_bands before calling an iterative solver
           540 MiB given to the printing process from OS
             0 MiB allocation reported by mallinfo(arena+hblkhd)
        214973 MiB available memory on the node where the printing process lives
------------------
     ethr =  3.49E-07,  avg # of iterations = 36.7

     negative rho (up, down):  5.612E-04 0.000E+00

     add environment contribution to local potential

     total cpu time spent up to now is      691.9 secs

     total energy              =    -661.70879635 Ry
     estimated scf accuracy    <       0.00681212 Ry

     total charge of GC-SCF    =       1.18784478 e
     the Fermi energy          =      -3.38569818 eV
                        (error :       0.01830182 eV)
     electrostatic embedding   =      -0.14312968 Ry
     cavitation energy         =       0.02490908 Ry
     electrolyte free energy   =      -0.00651657 Ry
     correction to one-el term =     -29.25875117 Ry

     iteration # 12     ecut=    80.00 Ry     beta= 0.20
     Davidson diagonalization with overlap

---- Real-time Memory Report at c_bands before calling an iterative solver
           540 MiB given to the printing process from OS
             0 MiB allocation reported by mallinfo(arena+hblkhd)
        214961 MiB available memory on the node where the printing process lives
------------------
     ethr =  3.49E-07,  avg # of iterations = 33.5

     negative rho (up, down):  5.236E-04 0.000E+00

     add environment contribution to local potential

     total cpu time spent up to now is      751.2 secs

     total energy              =    -661.72037427 Ry
     estimated scf accuracy    <       0.00031100 Ry

     total charge of GC-SCF    =       1.32357799 e
     the Fermi energy          =      -3.18967716 eV
                        (error :       0.21432284 eV)
     electrostatic embedding   =      -0.16400576 Ry
     cavitation energy         =       0.02490908 Ry
     electrolyte free energy   =      -0.00590817 Ry
     correction to one-el term =     -31.83643750 Ry

     iteration # 13     ecut=    80.00 Ry     beta= 0.20
     Davidson diagonalization with overlap

---- Real-time Memory Report at c_bands before calling an iterative solver
           540 MiB given to the printing process from OS
             0 MiB allocation reported by mallinfo(arena+hblkhd)
        214979 MiB available memory on the node where the printing process lives
------------------
     ethr =  2.38E-07,  avg # of iterations = 22.4

     negative rho (up, down):  5.040E-04 0.000E+00

     add environment contribution to local potential

     total cpu time spent up to now is      803.3 secs

     total energy              =    -661.72284631 Ry
     estimated scf accuracy    <       0.00036664 Ry

     total charge of GC-SCF    =       1.46534322 e
     the Fermi energy          =      -3.28100622 eV
                        (error :       0.12299378 eV)
     electrostatic embedding   =      -0.20800694 Ry
     cavitation energy         =       0.02490908 Ry
     electrolyte free energy   =      -0.00727255 Ry
     correction to one-el term =     -36.47136849 Ry

     iteration # 14     ecut=    80.00 Ry     beta= 0.20
     Davidson diagonalization with overlap

---- Real-time Memory Report at c_bands before calling an iterative solver
           540 MiB given to the printing process from OS
             0 MiB allocation reported by mallinfo(arena+hblkhd)
        214967 MiB available memory on the node where the printing process lives
------------------
     ethr =  2.38E-07,  avg # of iterations = 17.2

     negative rho (up, down):  4.752E-04 0.000E+00

     add environment contribution to local potential

     total cpu time spent up to now is      845.2 secs

     total energy              =    -661.73199041 Ry
     estimated scf accuracy    <       0.00016219 Ry

     total charge of GC-SCF    =       1.48485012 e
     the Fermi energy          =      -3.22511196 eV
                        (error :       0.17888804 eV)
     electrostatic embedding   =      -0.26387808 Ry
     cavitation energy         =       0.02490908 Ry
     electrolyte free energy   =      -0.00773066 Ry
     correction to one-el term =     -41.13283597 Ry

     iteration # 15     ecut=    80.00 Ry     beta= 0.20
     Davidson diagonalization with overlap

---- Real-time Memory Report at c_bands before calling an iterative solver
           540 MiB given to the printing process from OS
             0 MiB allocation reported by mallinfo(arena+hblkhd)
        214985 MiB available memory on the node where the printing process lives
------------------
     ethr =  1.24E-07,  avg # of iterations = 14.5

     negative rho (up, down):  4.553E-04 0.000E+00

     add environment contribution to local potential

     total cpu time spent up to now is      878.0 secs

     total energy              =    -661.72985507 Ry
     estimated scf accuracy    <       0.00006439 Ry

     total charge of GC-SCF    =       1.57819353 e
     the Fermi energy          =      -3.24349359 eV
                        (error :       0.16050641 eV)
     electrostatic embedding   =      -0.27117235 Ry
     cavitation energy         =       0.02490908 Ry
     electrolyte free energy   =      -0.00792616 Ry
     correction to one-el term =     -41.66465847 Ry

     iteration # 16     ecut=    80.00 Ry     beta= 0.20
     Davidson diagonalization with overlap

---- Real-time Memory Report at c_bands before calling an iterative solver
           540 MiB given to the printing process from OS
             0 MiB allocation reported by mallinfo(arena+hblkhd)
        214966 MiB available memory on the node where the printing process lives
------------------
     ethr =  4.94E-08,  avg # of iterations = 27.8

     negative rho (up, down):  4.759E-04 0.000E+00

     add environment contribution to local potential

     total cpu time spent up to now is      933.2 secs

     total energy              =    -661.73302572 Ry
     estimated scf accuracy    <       0.00002693 Ry

     total charge of GC-SCF    =       1.81053831 e
     the Fermi energy          =      -3.28651579 eV
                        (error :       0.11748421 eV)
     electrostatic embedding   =      -0.30980704 Ry
     cavitation energy         =       0.02490908 Ry
     electrolyte free energy   =      -0.00876085 Ry
     correction to one-el term =     -44.54870418 Ry

     iteration # 17     ecut=    80.00 Ry     beta= 0.20
     Davidson diagonalization with overlap

---- Real-time Memory Report at c_bands before calling an iterative solver
           540 MiB given to the printing process from OS
             0 MiB allocation reported by mallinfo(arena+hblkhd)
        214988 MiB available memory on the node where the printing process lives
------------------
     c_bands:  2 eigenvalues not converged
     ethr =  2.07E-08,  avg # of iterations = 46.9

     negative rho (up, down):  4.654E-04 0.000E+00

     add environment contribution to local potential

     total cpu time spent up to now is     1021.3 secs

     total energy              =    -661.73321663 Ry
     estimated scf accuracy    <       0.00000826 Ry

     total charge of GC-SCF    =       1.81247164 e
     the Fermi energy          =      -3.39432690 eV
                        (error :       0.00967310 eV)
     electrostatic embedding   =      -0.41830174 Ry
     cavitation energy         =       0.02490908 Ry
     electrolyte free energy   =      -0.01106602 Ry
     correction to one-el term =     -51.80878536 Ry

     iteration # 18     ecut=    80.00 Ry     beta= 0.20
     Davidson diagonalization with overlap

---- Real-time Memory Report at c_bands before calling an iterative solver
           540 MiB given to the printing process from OS
             0 MiB allocation reported by mallinfo(arena+hblkhd)
        214938 MiB available memory on the node where the printing process lives
------------------
     ethr =  6.35E-09,  avg # of iterations = 15.2

     negative rho (up, down):  4.715E-04 0.000E+00

     add environment contribution to local potential

     total cpu time spent up to now is     1062.5 secs

     total energy              =    -661.73326027 Ry
     estimated scf accuracy    <       0.00000399 Ry

     total charge of GC-SCF    =       1.83969964 e
     the Fermi energy          =      -3.38457298 eV
                        (error :       0.01942702 eV)
     electrostatic embedding   =      -0.41980487 Ry
     cavitation energy         =       0.02490908 Ry
     electrolyte free energy   =      -0.01102696 Ry
     correction to one-el term =     -51.88763306 Ry

     iteration # 19     ecut=    80.00 Ry     beta= 0.20
     Davidson diagonalization with overlap

---- Real-time Memory Report at c_bands before calling an iterative solver
           540 MiB given to the printing process from OS
             0 MiB allocation reported by mallinfo(arena+hblkhd)
        214927 MiB available memory on the node where the printing process lives
------------------
     ethr =  3.07E-09,  avg # of iterations = 30.1

     negative rho (up, down):  4.645E-04 0.000E+00

     add environment contribution to local potential

     total cpu time spent up to now is     1120.0 secs

     total energy              =    -661.73324176 Ry
     estimated scf accuracy    <       0.00000108 Ry

     total charge of GC-SCF    =       1.83922891 e
     the Fermi energy          =      -3.39823727 eV
                        (error :       0.00576273 eV)
     electrostatic embedding   =      -0.43369410 Ry
     cavitation energy         =       0.02490908 Ry
     electrolyte free energy   =      -0.01131133 Ry
     correction to one-el term =     -52.72434698 Ry

     iteration # 20     ecut=    80.00 Ry     beta= 0.20
     Davidson diagonalization with overlap

---- Real-time Memory Report at c_bands before calling an iterative solver
           540 MiB given to the printing process from OS
             0 MiB allocation reported by mallinfo(arena+hblkhd)
        214941 MiB available memory on the node where the printing process lives
------------------
     ethr =  8.32E-10,  avg # of iterations = 16.3

     negative rho (up, down):  4.611E-04 0.000E+00

     add environment contribution to local potential

     total cpu time spent up to now is     1161.2 secs

     total energy              =    -661.73322865 Ry
     estimated scf accuracy    <       0.00000076 Ry

     total charge of GC-SCF    =       1.84642999 e
     the Fermi energy          =      -3.40122923 eV
                        (error :       0.00277077 eV)
     electrostatic embedding   =      -0.43338342 Ry
     cavitation energy         =       0.02490908 Ry
     electrolyte free energy   =      -0.01132494 Ry
     correction to one-el term =     -52.70628581 Ry

     iteration # 21     ecut=    80.00 Ry     beta= 0.20
     Davidson diagonalization with overlap

---- Real-time Memory Report at c_bands before calling an iterative solver
           540 MiB given to the printing process from OS
             0 MiB allocation reported by mallinfo(arena+hblkhd)
        214939 MiB available memory on the node where the printing process lives
------------------
     ethr =  5.85E-10,  avg # of iterations = 15.2

     negative rho (up, down):  4.526E-04 0.000E+00

     add environment contribution to local potential

     total cpu time spent up to now is     1202.6 secs

     total energy              =    -661.73321929 Ry
     estimated scf accuracy    <       0.00000019 Ry

     total charge of GC-SCF    =       1.84704588 e
     the Fermi energy          =      -3.40469373 eV
                        (error :       0.00069373 eV)
     electrostatic embedding   =      -0.43730061 Ry
     cavitation energy         =       0.02490908 Ry
     electrolyte free energy   =      -0.01141609 Ry
     correction to one-el term =     -52.96406529 Ry

     iteration # 22     ecut=    80.00 Ry     beta= 0.20
     Davidson diagonalization with overlap

---- Real-time Memory Report at c_bands before calling an iterative solver
           540 MiB given to the printing process from OS
             0 MiB allocation reported by mallinfo(arena+hblkhd)
        214913 MiB available memory on the node where the printing process lives
------------------
     ethr =  1.47E-10,  avg # of iterations = 14.2

     negative rho (up, down):  4.439E-04 0.000E+00

     add environment contribution to local potential

     total cpu time spent up to now is     1238.9 secs

     total energy              =    -661.73322423 Ry
     estimated scf accuracy    <       0.00000016 Ry

     total charge of GC-SCF    =       1.84018548 e
     the Fermi energy          =      -3.40417845 eV
                        (error :       0.00017845 eV)
     electrostatic embedding   =      -0.43770481 Ry
     cavitation energy         =       0.02490908 Ry
     electrolyte free energy   =      -0.01141945 Ry
     correction to one-el term =     -52.98930900 Ry

     iteration # 23     ecut=    80.00 Ry     beta= 0.20
     Davidson diagonalization with overlap

---- Real-time Memory Report at c_bands before calling an iterative solver
           540 MiB given to the printing process from OS
             0 MiB allocation reported by mallinfo(arena+hblkhd)
        214966 MiB available memory on the node where the printing process lives
------------------
     ethr =  1.22E-10,  avg # of iterations = 24.5

     negative rho (up, down):  4.405E-04 0.000E+00

     add environment contribution to local potential

     total cpu time spent up to now is     1289.0 secs

     total energy              =    -661.73322620 Ry
     estimated scf accuracy    <       0.00000015 Ry

     total charge of GC-SCF    =       1.84166254 e
     the Fermi energy          =      -3.40265098 eV
                        (error :       0.00134902 eV)
     electrostatic embedding   =      -0.43406237 Ry
     cavitation energy         =       0.02490908 Ry
     electrolyte free energy   =      -0.01135023 Ry
     correction to one-el term =     -52.76137163 Ry

     iteration # 24     ecut=    80.00 Ry     beta= 0.20
     Davidson diagonalization with overlap

---- Real-time Memory Report at c_bands before calling an iterative solver
           540 MiB given to the printing process from OS
             0 MiB allocation reported by mallinfo(arena+hblkhd)
        214933 MiB available memory on the node where the printing process lives
------------------
     ethr =  1.17E-10,  avg # of iterations = 13.9

     negative rho (up, down):  4.375E-04 0.000E+00

     add environment contribution to local potential

     total cpu time spent up to now is     1325.1 secs

     total energy              =    -661.73322511 Ry
     estimated scf accuracy    <       0.00000003 Ry

     total charge of GC-SCF    =       1.84329236 e
     the Fermi energy          =      -3.40304443 eV
                        (error :       0.00095557 eV)
     electrostatic embedding   =      -0.43486134 Ry
     cavitation energy         =       0.02490908 Ry
     electrolyte free energy   =      -0.01136608 Ry
     correction to one-el term =     -52.81215069 Ry

     iteration # 25     ecut=    80.00 Ry     beta= 0.20
     Davidson diagonalization with overlap

---- Real-time Memory Report at c_bands before calling an iterative solver
           540 MiB given to the printing process from OS
             0 MiB allocation reported by mallinfo(arena+hblkhd)
        214931 MiB available memory on the node where the printing process lives
------------------
     ethr =  2.00E-11,  avg # of iterations = 21.4

     negative rho (up, down):  4.354E-04 0.000E+00

     add environment contribution to local potential

     total cpu time spent up to now is     1374.9 secs

     total energy              =    -661.73322365 Ry
     estimated scf accuracy    <          9.0E-09 Ry

     total charge of GC-SCF    =       1.84494112 e
     the Fermi energy          =      -3.40353514 eV
                        (error :       0.00046486 eV)
     electrostatic embedding   =      -0.43571398 Ry
     cavitation energy         =       0.02490908 Ry
     electrolyte free energy   =      -0.01138207 Ry
     correction to one-el term =     -52.86399728 Ry

     iteration # 26     ecut=    80.00 Ry     beta= 0.20
     Davidson diagonalization with overlap

---- Real-time Memory Report at c_bands before calling an iterative solver
           540 MiB given to the printing process from OS
             0 MiB allocation reported by mallinfo(arena+hblkhd)
        214945 MiB available memory on the node where the printing process lives
------------------
     ethr =  6.88E-12,  avg # of iterations = 31.9

     negative rho (up, down):  4.329E-04 0.000E+00

     add environment contribution to local potential

     total cpu time spent up to now is     1437.1 secs

     total energy              =    -661.73322146 Ry
     estimated scf accuracy    <          3.7E-09 Ry

     total charge of GC-SCF    =       1.84457923 e
     the Fermi energy          =      -3.40408792 eV
                        (error :       0.00008792 eV)
     electrostatic embedding   =      -0.43657169 Ry
     cavitation energy         =       0.02490908 Ry
     electrolyte free energy   =      -0.01139929 Ry
     correction to one-el term =     -52.91741199 Ry

     iteration # 27     ecut=    80.00 Ry     beta= 0.20
     Davidson diagonalization with overlap

---- Real-time Memory Report at c_bands before calling an iterative solver
           540 MiB given to the printing process from OS
             0 MiB allocation reported by mallinfo(arena+hblkhd)
        214939 MiB available memory on the node where the printing process lives
------------------
     ethr =  2.87E-12,  avg # of iterations = 15.7

     negative rho (up, down):  4.311E-04 0.000E+00

     add environment contribution to local potential

     total cpu time spent up to now is     1479.5 secs

     total energy              =    -661.73322201 Ry
     estimated scf accuracy    <          2.3E-09 Ry

     total charge of GC-SCF    =       1.84435750 e
     the Fermi energy          =      -3.40394744 eV
                        (error :       0.00005256 eV)
     electrostatic embedding   =      -0.43637524 Ry
     cavitation energy         =       0.02490908 Ry
     electrolyte free energy   =      -0.01139532 Ry
     correction to one-el term =     -52.90529500 Ry

     iteration # 28     ecut=    80.00 Ry     beta= 0.20
     Davidson diagonalization with overlap

---- Real-time Memory Report at c_bands before calling an iterative solver
           540 MiB given to the printing process from OS
             0 MiB allocation reported by mallinfo(arena+hblkhd)
        214928 MiB available memory on the node where the printing process lives
------------------
     ethr =  1.80E-12,  avg # of iterations = 15.4

     negative rho (up, down):  4.295E-04 0.000E+00

     add environment contribution to local potential

     total cpu time spent up to now is     1520.1 secs

     total energy              =    -661.73322230 Ry
     estimated scf accuracy    <          6.9E-10 Ry

     total charge of GC-SCF    =       1.84428002 e
     the Fermi energy          =      -3.40387697 eV
                        (error :       0.00012303 eV)
     electrostatic embedding   =      -0.43625511 Ry
     cavitation energy         =       0.02490908 Ry
     electrolyte free energy   =      -0.01139318 Ry
     correction to one-el term =     -52.89823454 Ry

     iteration # 29     ecut=    80.00 Ry     beta= 0.20
     Davidson diagonalization with overlap

---- Real-time Memory Report at c_bands before calling an iterative solver
           540 MiB given to the printing process from OS
             0 MiB allocation reported by mallinfo(arena+hblkhd)
        214937 MiB available memory on the node where the printing process lives
------------------
     ethr =  5.32E-13,  avg # of iterations = 16.1

     negative rho (up, down):  4.285E-04 0.000E+00

     add environment contribution to local potential

     total cpu time spent up to now is     1562.2 secs

     total energy              =    -661.73322235 Ry
     estimated scf accuracy    <          3.1E-10 Ry

     total charge of GC-SCF    =       1.84456425 e
     the Fermi energy          =      -3.40387319 eV
                        (error :       0.00012681 eV)
     electrostatic embedding   =      -0.43621368 Ry
     cavitation energy         =       0.02490908 Ry
     electrolyte free energy   =      -0.01139245 Ry
     correction to one-el term =     -52.89562493 Ry

     iteration # 30     ecut=    80.00 Ry     beta= 0.20
     Davidson diagonalization with overlap

---- Real-time Memory Report at c_bands before calling an iterative solver
           540 MiB given to the printing process from OS
             0 MiB allocation reported by mallinfo(arena+hblkhd)
        214965 MiB available memory on the node where the printing process lives
------------------
     ethr =  2.39E-13,  avg # of iterations = 31.1

     negative rho (up, down):  4.277E-04 0.000E+00

     add environment contribution to local potential

     total cpu time spent up to now is     1623.5 secs

     total energy              =    -661.73322197 Ry
     estimated scf accuracy    <          5.1E-11 Ry

     total charge of GC-SCF    =       1.84459889 e
     the Fermi energy          =      -3.40397282 eV
                        (error :       0.00002718 eV)
     electrostatic embedding   =      -0.43636444 Ry
     cavitation energy         =       0.02490908 Ry
     electrolyte free energy   =      -0.01139538 Ry
     correction to one-el term =     -52.90481035 Ry

     iteration # 31     ecut=    80.00 Ry     beta= 0.20
     Davidson diagonalization with overlap

---- Real-time Memory Report at c_bands before calling an iterative solver
           540 MiB given to the printing process from OS
             0 MiB allocation reported by mallinfo(arena+hblkhd)
        214886 MiB available memory on the node where the printing process lives
------------------
     ethr =  1.00E-13,  avg # of iterations = 15.4

     negative rho (up, down):  4.270E-04 0.000E+00

     add environment contribution to local potential

     total cpu time spent up to now is     1663.7 secs

     total energy              =    -661.73322191 Ry
     estimated scf accuracy    <          2.4E-11 Ry

     total charge of GC-SCF    =       1.84460774 e
     the Fermi energy          =      -3.40399303 eV
                        (error :       0.00000697 eV)
     electrostatic embedding   =      -0.43638189 Ry
     cavitation energy         =       0.02490908 Ry
     electrolyte free energy   =      -0.01139575 Ry
     correction to one-el term =     -52.90581504 Ry

     iteration # 32     ecut=    80.00 Ry     beta= 0.20
     Davidson diagonalization with overlap

---- Real-time Memory Report at c_bands before calling an iterative solver
           540 MiB given to the printing process from OS
             0 MiB allocation reported by mallinfo(arena+hblkhd)
        214851 MiB available memory on the node where the printing process lives
------------------
     ethr =  1.00E-13,  avg # of iterations = 16.0

     negative rho (up, down):  4.264E-04 0.000E+00

     add environment contribution to local potential

     total cpu time spent up to now is     1701.5 secs

     total energy              =    -661.73322188 Ry
     estimated scf accuracy    <          1.8E-11 Ry

     total charge of GC-SCF    =       1.84465919 e
     the Fermi energy          =      -3.40400256 eV
                        (error :       0.00000256 eV)
     electrostatic embedding   =      -0.43638612 Ry
     cavitation energy         =       0.02490908 Ry
     electrolyte free energy   =      -0.01139585 Ry
     correction to one-el term =     -52.90604070 Ry

     iteration # 33     ecut=    80.00 Ry     beta= 0.20
     Davidson diagonalization with overlap

---- Real-time Memory Report at c_bands before calling an iterative solver
           540 MiB given to the printing process from OS
             0 MiB allocation reported by mallinfo(arena+hblkhd)
        214886 MiB available memory on the node where the printing process lives
------------------
     ethr =  1.00E-13,  avg # of iterations = 15.2

     negative rho (up, down):  4.260E-04 0.000E+00

     add environment contribution to local potential

     total cpu time spent up to now is     1739.5 secs

     total energy              =    -661.73322183 Ry
     estimated scf accuracy    <          1.4E-11 Ry

     total charge of GC-SCF    =       1.84461843 e
     the Fermi energy          =      -3.40400809 eV
                        (error :       0.00000809 eV)
     electrostatic embedding   =      -0.43641367 Ry
     cavitation energy         =       0.02490908 Ry
     electrolyte free energy   =      -0.01139633 Ry
     correction to one-el term =     -52.90774701 Ry

     iteration # 34     ecut=    80.00 Ry     beta= 0.20
     Davidson diagonalization with overlap

---- Real-time Memory Report at c_bands before calling an iterative solver
           540 MiB given to the printing process from OS
             0 MiB allocation reported by mallinfo(arena+hblkhd)
        214878 MiB available memory on the node where the printing process lives
------------------
     ethr =  1.00E-13,  avg # of iterations = 15.5

     negative rho (up, down):  4.256E-04 0.000E+00

     add environment contribution to local potential

     total cpu time spent up to now is     1777.5 secs

     total energy              =    -661.73322187 Ry
     estimated scf accuracy    <          2.6E-12 Ry

     total charge of GC-SCF    =       1.84463457 e
     the Fermi energy          =      -3.40399992 eV
                        (error :       0.00000008 eV)
     electrostatic embedding   =      -0.43639231 Ry
     cavitation energy         =       0.02490908 Ry
     electrolyte free energy   =      -0.01139595 Ry
     correction to one-el term =     -52.90644885 Ry

     iteration # 35     ecut=    80.00 Ry     beta= 0.20
     Davidson diagonalization with overlap

---- Real-time Memory Report at c_bands before calling an iterative solver
           540 MiB given to the printing process from OS
             0 MiB allocation reported by mallinfo(arena+hblkhd)
        214861 MiB available memory on the node where the printing process lives
------------------
     ethr =  1.00E-13,  avg # of iterations = 14.8

     negative rho (up, down):  4.254E-04 0.000E+00

     add environment contribution to local potential

     total cpu time spent up to now is     1811.5 secs

     total energy              =    -661.73322185 Ry
     estimated scf accuracy    <          2.0E-12 Ry

     total charge of GC-SCF    =       1.84462543 e
     the Fermi energy          =      -3.40400254 eV
                        (error :       0.00000254 eV)
     electrostatic embedding   =      -0.43640103 Ry
     cavitation energy         =       0.02490908 Ry
     electrolyte free energy   =      -0.01139611 Ry
     correction to one-el term =     -52.90699915 Ry

     iteration # 36     ecut=    80.00 Ry     beta= 0.20
     Davidson diagonalization with overlap

---- Real-time Memory Report at c_bands before calling an iterative solver
           540 MiB given to the printing process from OS
             0 MiB allocation reported by mallinfo(arena+hblkhd)
        214897 MiB available memory on the node where the printing process lives
------------------
     ethr =  1.00E-13,  avg # of iterations = 13.4

     negative rho (up, down):  4.252E-04 0.000E+00

     add environment contribution to local potential

     total cpu time spent up to now is     1842.8 secs

     total energy              =    -661.73322186 Ry
     estimated scf accuracy    <          5.4E-13 Ry

     total charge of GC-SCF    =       1.84462190 e
     the Fermi energy          =      -3.40399974 eV
                        (error :       0.00000026 eV)
     electrostatic embedding   =      -0.43639618 Ry
     cavitation energy         =       0.02490908 Ry
     electrolyte free energy   =      -0.01139601 Ry
     correction to one-el term =     -52.90669522 Ry

     iteration # 37     ecut=    80.00 Ry     beta= 0.20
     Davidson diagonalization with overlap

---- Real-time Memory Report at c_bands before calling an iterative solver
           540 MiB given to the printing process from OS
             0 MiB allocation reported by mallinfo(arena+hblkhd)
        214891 MiB available memory on the node where the printing process lives
------------------
     ethr =  1.00E-13,  avg # of iterations = 13.4

     negative rho (up, down):  4.250E-04 0.000E+00

     add environment contribution to local potential

     total cpu time spent up to now is     1873.8 secs

     total energy              =    -661.73322187 Ry
     estimated scf accuracy    <          2.0E-13 Ry

     total charge of GC-SCF    =       1.84462008 e
     the Fermi energy          =      -3.40399909 eV
                        (error :       0.00000091 eV)
     electrostatic embedding   =      -0.43639423 Ry
     cavitation energy         =       0.02490908 Ry
     electrolyte free energy   =      -0.01139597 Ry
     correction to one-el term =     -52.90656759 Ry

     iteration # 38     ecut=    80.00 Ry     beta= 0.20
     Davidson diagonalization with overlap

---- Real-time Memory Report at c_bands before calling an iterative solver
           540 MiB given to the printing process from OS
             0 MiB allocation reported by mallinfo(arena+hblkhd)
        214894 MiB available memory on the node where the printing process lives
------------------
     ethr =  1.00E-13,  avg # of iterations = 12.3

     negative rho (up, down):  4.249E-04 0.000E+00

     add environment contribution to local potential

     total cpu time spent up to now is     1904.0 secs

     total energy              =    -661.73322187 Ry
     estimated scf accuracy    <          1.1E-13 Ry

     total charge of GC-SCF    =       1.84462359 e
     the Fermi energy          =      -3.40399854 eV
                        (error :       0.00000146 eV)
     electrostatic embedding   =      -0.43639319 Ry
     cavitation energy         =       0.02490908 Ry
     electrolyte free energy   =      -0.01139595 Ry
     correction to one-el term =     -52.90649607 Ry

     iteration # 39     ecut=    80.00 Ry     beta= 0.20
     Davidson diagonalization with overlap

---- Real-time Memory Report at c_bands before calling an iterative solver
           540 MiB given to the printing process from OS
             0 MiB allocation reported by mallinfo(arena+hblkhd)
        214875 MiB available memory on the node where the printing process lives
------------------
     ethr =  1.00E-13,  avg # of iterations = 12.1

     negative rho (up, down):  4.248E-04 0.000E+00

     add environment contribution to local potential

     total cpu time spent up to now is     1933.5 secs

     total energy              =    -661.73322186 Ry
     estimated scf accuracy    <          3.9E-14 Ry

     total charge of GC-SCF    =       1.84462488 e
     the Fermi energy          =      -3.40399984 eV
                        (error :       0.00000016 eV)
     electrostatic embedding   =      -0.43639502 Ry
     cavitation energy         =       0.02490908 Ry
     electrolyte free energy   =      -0.01139599 Ry
     correction to one-el term =     -52.90660847 Ry

     iteration # 40     ecut=    80.00 Ry     beta= 0.20
     Davidson diagonalization with overlap

---- Real-time Memory Report at c_bands before calling an iterative solver
           540 MiB given to the printing process from OS
             0 MiB allocation reported by mallinfo(arena+hblkhd)
        214889 MiB available memory on the node where the printing process lives
------------------
     ethr =  1.00E-13,  avg # of iterations =  9.8

     negative rho (up, down):  4.247E-04 0.000E+00

     add environment contribution to local potential

     total cpu time spent up to now is     1958.7 secs

     total energy              =    -661.73322186 Ry
     estimated scf accuracy    <          2.8E-14 Ry

     total charge of GC-SCF    =       1.84462624 e
     the Fermi energy          =      -3.40400075 eV
                        (error :       0.00000075 eV)
     electrostatic embedding   =      -0.43639569 Ry
     cavitation energy         =       0.02490908 Ry
     electrolyte free energy   =      -0.01139600 Ry
     correction to one-el term =     -52.90665173 Ry

     iteration # 41     ecut=    80.00 Ry     beta= 0.20
     Davidson diagonalization with overlap

---- Real-time Memory Report at c_bands before calling an iterative solver
           540 MiB given to the printing process from OS
             0 MiB allocation reported by mallinfo(arena+hblkhd)
        214884 MiB available memory on the node where the printing process lives
------------------
     ethr =  1.00E-13,  avg # of iterations = 10.2

     negative rho (up, down):  4.246E-04 0.000E+00

     add environment contribution to local potential

     total cpu time spent up to now is     1985.4 secs

     total energy              =    -661.73322186 Ry
     estimated scf accuracy    <          2.0E-14 Ry

     total charge of GC-SCF    =       1.84462474 e
     the Fermi energy          =      -3.40400136 eV
                        (error :       0.00000136 eV)
     electrostatic embedding   =      -0.43639641 Ry
     cavitation energy         =       0.02490908 Ry
     electrolyte free energy   =      -0.01139602 Ry
     correction to one-el term =     -52.90669798 Ry

     iteration # 42     ecut=    80.00 Ry     beta= 0.20
     Davidson diagonalization with overlap

---- Real-time Memory Report at c_bands before calling an iterative solver
           540 MiB given to the printing process from OS
             0 MiB allocation reported by mallinfo(arena+hblkhd)
        214909 MiB available memory on the node where the printing process lives
------------------
     ethr =  1.00E-13,  avg # of iterations =  8.1

     negative rho (up, down):  4.245E-04 0.000E+00

     add environment contribution to local potential

     total cpu time spent up to now is     2008.1 secs

     total energy              =    -661.73322186 Ry
     estimated scf accuracy    <          2.2E-14 Ry

     total charge of GC-SCF    =       1.84462264 e
     the Fermi energy          =      -3.40400066 eV
                        (error :       0.00000066 eV)
     electrostatic embedding   =      -0.43639564 Ry
     cavitation energy         =       0.02490908 Ry
     electrolyte free energy   =      -0.01139600 Ry
     correction to one-el term =     -52.90665215 Ry

     iteration # 43     ecut=    80.00 Ry     beta= 0.20
     Davidson diagonalization with overlap

---- Real-time Memory Report at c_bands before calling an iterative solver
           540 MiB given to the printing process from OS
             0 MiB allocation reported by mallinfo(arena+hblkhd)
        214898 MiB available memory on the node where the printing process lives
------------------
     ethr =  1.00E-13,  avg # of iterations =  7.7

     negative rho (up, down):  4.245E-04 0.000E+00

     add environment contribution to local potential

     total cpu time spent up to now is     2030.0 secs

     total energy              =    -661.73322186 Ry
     estimated scf accuracy    <          1.1E-14 Ry

     total charge of GC-SCF    =       1.84462221 e
     the Fermi energy          =      -3.40400020 eV
                        (error :       0.00000020 eV)
     electrostatic embedding   =      -0.43639452 Ry
     cavitation energy         =       0.02490908 Ry
     electrolyte free energy   =      -0.01139598 Ry
     correction to one-el term =     -52.90658236 Ry

     iteration # 44     ecut=    80.00 Ry     beta= 0.20
     Davidson diagonalization with overlap

---- Real-time Memory Report at c_bands before calling an iterative solver
           540 MiB given to the printing process from OS
             0 MiB allocation reported by mallinfo(arena+hblkhd)
        214932 MiB available memory on the node where the printing process lives
------------------
     ethr =  1.00E-13,  avg # of iterations =  6.9

     negative rho (up, down):  4.243E-04 0.000E+00

     total cpu time spent up to now is     2045.1 secs

     End of self-consistent calculation

          k = 0.0000 0.0000 0.0000 (250151 PWs)   bands (ev):

   -51.2569 -51.2568 -51.2568 -51.2568 -50.8982 -50.8982 -50.8982 -50.8982
   -50.0554 -50.0552 -50.0549 -50.0547 -49.9900 -49.9900 -49.9899 -49.9899
   -49.9372 -49.9318 -49.9288 -49.9288 -49.9268 -49.9253 -49.9253 -49.9240
   -49.9225 -49.9225 -49.9203 -49.9196 -49.9185 -49.9178 -49.9178 -49.9128
   -49.9076 -49.9076 -49.9070 -49.9062 -49.8851 -49.8851 -49.8851 -49.8851
   -49.8735 -49.8735 -49.8729 -49.8729  -6.8560  -6.5807  -6.1320  -5.6664
    -5.6664  -5.5086  -5.3853  -5.3853  -4.9265  -4.9265  -4.7589  -4.2937
    -4.2937  -3.9381  -3.5482  -3.5482  -3.5075  -3.3917  -3.1068  -3.0819
    -3.0259  -3.0259  -3.0071  -2.7454  -2.6855  -2.6855  -2.6817  -2.6817
    -2.6631  -2.5836  -2.5532  -2.1865  -2.1865  -2.1475  -2.0833  -1.9687
    -1.7692  -1.7692  -1.7268  -1.5625  -1.5625  -1.3648  -1.3244  -1.2628
    -0.7023  -0.7023  -0.6107  -0.3096  -0.3095  -0.2183  -0.2170  -0.1954
    -0.1399  -0.1397  -0.1397

     occupation numbers 
     1.0000   1.0000   1.0000   1.0000   1.0000   1.0000   1.0000   1.0000
     1.0000   1.0000   1.0000   1.0000   1.0000   1.0000   1.0000   1.0000
     1.0000   1.0000   1.0000   1.0000   1.0000   1.0000   1.0000   1.0000
     1.0000   1.0000   1.0000   1.0000   1.0000   1.0000   1.0000   1.0000
     1.0000   1.0000   1.0000   1.0000   1.0000   1.0000   1.0000   1.0000
     1.0000   1.0000   1.0000   1.0000   1.0000   1.0000   1.0000   1.0000
     1.0000   1.0000   1.0000   1.0000   1.0000   1.0000   1.0000   1.0000
     1.0000   1.0000   1.0433   1.0432   0.9278   0.3410   0.0001   0.0000
     0.0000   0.0000   0.0000   0.0000   0.0000   0.0000   0.0000   0.0000
     0.0000   0.0000   0.0000   0.0000   0.0000   0.0000   0.0000   0.0000
     0.0000   0.0000   0.0000   0.0000   0.0000   0.0000   0.0000   0.0000
     0.0000   0.0000   0.0000   0.0000   0.0000   0.0000   0.0000   0.0000
     0.0000   0.0000   0.0000

          k = 0.0000 0.1421 0.0000 (249995 PWs)   bands (ev):

   -51.2569 -51.2568 -51.2568 -51.2568 -50.8982 -50.8982 -50.8982 -50.8982
   -50.0553 -50.0552 -50.0549 -50.0547 -49.9900 -49.9900 -49.9899 -49.9899
   -49.9370 -49.9317 -49.9287 -49.9287 -49.9268 -49.9253 -49.9253 -49.9240
   -49.9226 -49.9226 -49.9207 -49.9195 -49.9186 -49.9178 -49.9178 -49.9128
   -49.9077 -49.9077 -49.9069 -49.9062 -49.8852 -49.8851 -49.8851 -49.8851
   -49.8735 -49.8735 -49.8729 -49.8729  -6.8320  -6.5566  -6.1079  -5.6421
    -5.6421  -5.4844  -5.3610  -5.3610  -4.9025  -4.9025  -4.7352  -4.2707
    -4.2707  -3.9579  -3.9086  -3.6781  -3.5284  -3.5284  -3.2207  -3.1490
    -3.1490  -2.9755  -2.8186  -2.8186  -2.7928  -2.7553  -2.6762  -2.6762
    -2.6316  -2.5804  -2.4194  -2.3336  -2.3336  -2.0520  -2.0228  -1.9573
    -1.9117  -1.9117  -1.6542  -1.4525  -1.4524  -1.3900  -1.2318  -1.1911
    -0.6500  -0.6500  -0.5920  -0.3165  -0.3165  -0.2363  -0.1880  -0.1786
    -0.1275  -0.1067  -0.1067

     occupation numbers 
     1.0000   1.0000   1.0000   1.0000   1.0000   1.0000   1.0000   1.0000
     1.0000   1.0000   1.0000   1.0000   1.0000   1.0000   1.0000   1.0000
     1.0000   1.0000   1.0000   1.0000   1.0000   1.0000   1.0000   1.0000
     1.0000   1.0000   1.0000   1.0000   1.0000   1.0000   1.0000   1.0000
     1.0000   1.0000   1.0000   1.0000   1.0000   1.0000   1.0000   1.0000
     1.0000   1.0000   1.0000   1.0000   1.0000   1.0000   1.0000   1.0000
     1.0000   1.0000   1.0000   1.0000   1.0000   1.0000   1.0000   1.0000
     1.0000   1.0000   1.0000   1.0399   0.9975   0.9974   0.0077   0.0006
     0.0006   0.0000   0.0000   0.0000   0.0000   0.0000   0.0000   0.0000
     0.0000   0.0000   0.0000   0.0000   0.0000   0.0000   0.0000   0.0000
     0.0000   0.0000   0.0000   0.0000   0.0000   0.0000   0.0000   0.0000
     0.0000   0.0000   0.0000   0.0000   0.0000   0.0000   0.0000   0.0000
     0.0000   0.0000   0.0000

          k = 0.0000 0.2843 0.0000 (249899 PWs)   bands (ev):

   -51.2569 -51.2568 -51.2568 -51.2568 -50.8982 -50.8982 -50.8982 -50.8982
   -50.0553 -50.0551 -50.0549 -50.0547 -49.9900 -49.9900 -49.9899 -49.9899
   -49.9365 -49.9314 -49.9284 -49.9284 -49.9267 -49.9252 -49.9252 -49.9242
   -49.9227 -49.9227 -49.9214 -49.9194 -49.9189 -49.9179 -49.9179 -49.9129
   -49.9077 -49.9077 -49.9068 -49.9060 -49.8852 -49.8852 -49.8851 -49.8851
   -49.8735 -49.8735 -49.8729 -49.8729  -6.7599  -6.4843  -6.0353  -5.5693
    -5.5693  -5.4119  -5.2883  -5.2883  -4.8308  -4.8308  -4.6649  -4.4453
    -4.2021  -4.2021  -4.1629  -3.8698  -3.6808  -3.4778  -3.4778  -3.4376
    -3.4376  -3.1267  -3.1267  -3.0872  -2.8808  -2.7441  -2.7084  -2.7084
    -2.6197  -2.6197  -2.5373  -2.2423  -2.1696  -2.1339  -2.1339  -1.9582
    -1.8830  -1.8306  -1.4773  -1.4773  -1.4446  -1.3120  -1.1389  -0.9084
    -0.5566  -0.5566  -0.5311  -0.3094  -0.3094  -0.1965  -0.0985  -0.0975
    -0.0462  -0.0162   0.0192

     occupation numbers 
     1.0000   1.0000   1.0000   1.0000   1.0000   1.0000   1.0000   1.0000
     1.0000   1.0000   1.0000   1.0000   1.0000   1.0000   1.0000   1.0000
     1.0000   1.0000   1.0000   1.0000   1.0000   1.0000   1.0000   1.0000
     1.0000   1.0000   1.0000   1.0000   1.0000   1.0000   1.0000   1.0000
     1.0000   1.0000   1.0000   1.0000   1.0000   1.0000   1.0000   1.0000
     1.0000   1.0000   1.0000   1.0000   1.0000   1.0000   1.0000   1.0000
     1.0000   1.0000   1.0000   1.0000   1.0000   1.0000   1.0000   1.0000
     1.0000   1.0000   1.0000   1.0002   1.0382   0.7963   0.7963   0.5806
     0.5806   0.0003   0.0003   0.0000   0.0000   0.0000   0.0000   0.0000
     0.0000   0.0000   0.0000   0.0000   0.0000   0.0000   0.0000   0.0000
     0.0000   0.0000   0.0000   0.0000   0.0000   0.0000   0.0000   0.0000
     0.0000   0.0000   0.0000   0.0000   0.0000   0.0000   0.0000   0.0000
     0.0000   0.0000   0.0000

          k = 0.0000 0.4264 0.0000 (249905 PWs)   bands (ev):

   -51.2569 -51.2568 -51.2568 -51.2568 -50.8982 -50.8982 -50.8982 -50.8982
   -50.0553 -50.0551 -50.0549 -50.0547 -49.9900 -49.9900 -49.9899 -49.9899
   -49.9356 -49.9310 -49.9279 -49.9279 -49.9269 -49.9252 -49.9252 -49.9245
   -49.9230 -49.9230 -49.9221 -49.9196 -49.9193 -49.9180 -49.9180 -49.9129
   -49.9079 -49.9079 -49.9067 -49.9057 -49.8852 -49.8852 -49.8851 -49.8851
   -49.8735 -49.8735 -49.8728 -49.8728  -6.6396  -6.3637  -5.9142  -5.4483
    -5.4483  -5.2911  -5.1675  -5.1675  -4.9007  -4.7117  -4.7116  -4.6344
    -4.5290  -4.1683  -4.0898  -4.0898  -3.8006  -3.8006  -3.7363  -3.5327
    -3.5194  -3.5194  -3.3529  -3.3529  -3.0497  -3.0496  -2.9135  -2.7231
    -2.6790  -2.6790  -2.4149  -2.3803  -2.3703  -2.3703  -1.9774  -1.8021
    -1.6503  -1.6503  -1.6026  -1.5461  -1.2155  -0.9915  -0.9845  -0.6015
    -0.5587  -0.5587  -0.4507  -0.3766  -0.2326  -0.2326  -0.1441  -0.1234
    -0.0867   0.0531   0.0666

     occupation numbers 
     1.0000   1.0000   1.0000   1.0000   1.0000   1.0000   1.0000   1.0000
     1.0000   1.0000   1.0000   1.0000   1.0000   1.0000   1.0000   1.0000
     1.0000   1.0000   1.0000   1.0000   1.0000   1.0000   1.0000   1.0000
     1.0000   1.0000   1.0000   1.0000   1.0000   1.0000   1.0000   1.0000
     1.0000   1.0000   1.0000   1.0000   1.0000   1.0000   1.0000   1.0000
     1.0000   1.0000   1.0000   1.0000   1.0000   1.0000   1.0000   1.0000
     1.0000   1.0000   1.0000   1.0000   1.0000   1.0000   1.0000   1.0000
     1.0000   1.0000   1.0000   1.0000   1.0021   1.0021   1.0126   1.0090
     0.9702   0.9702   0.1865   0.1865   0.0000   0.0000   0.0000   0.0000
     0.0000   0.0000   0.0000   0.0000   0.0000   0.0000   0.0000   0.0000
     0.0000   0.0000   0.0000   0.0000   0.0000   0.0000   0.0000   0.0000
     0.0000   0.0000   0.0000   0.0000   0.0000   0.0000   0.0000   0.0000
     0.0000   0.0000   0.0000

          k = 0.0000 0.5685 0.0000 (249832 PWs)   bands (ev):

   -51.2569 -51.2568 -51.2568 -51.2568 -50.8982 -50.8982 -50.8982 -50.8982
   -50.0553 -50.0551 -50.0548 -50.0546 -49.9901 -49.9900 -49.9899 -49.9899
   -49.9345 -49.9306 -49.9273 -49.9273 -49.9273 -49.9252 -49.9252 -49.9247
   -49.9233 -49.9233 -49.9227 -49.9199 -49.9196 -49.9181 -49.9181 -49.9129
   -49.9080 -49.9080 -49.9066 -49.9054 -49.8853 -49.8853 -49.8852 -49.8852
   -49.8735 -49.8735 -49.8728 -49.8728  -6.4710  -6.1947  -5.7446  -5.3117
    -5.2797  -5.2797  -5.1212  -5.0327  -4.9993  -4.9993  -4.5756  -4.5464
    -4.5464  -4.3783  -4.1653  -4.1653  -3.9388  -3.9329  -3.9329  -3.8708
    -3.8708  -3.6102  -3.4229  -3.4229  -3.2373  -3.2373  -3.2317  -2.8607
    -2.8607  -2.5027  -2.4943  -2.4822  -2.4821  -2.1612  -2.1215  -1.8528
    -1.8528  -1.5846  -1.5690  -1.0468  -0.9824  -0.9668  -0.7698  -0.6708
    -0.6484  -0.5635  -0.5635  -0.4047  -0.2557  -0.2557  -0.2369  -0.0967
    -0.0832  -0.0312   0.0927

     occupation numbers 
     1.0000   1.0000   1.0000   1.0000   1.0000   1.0000   1.0000   1.0000
     1.0000   1.0000   1.0000   1.0000   1.0000   1.0000   1.0000   1.0000
     1.0000   1.0000   1.0000   1.0000   1.0000   1.0000   1.0000   1.0000
     1.0000   1.0000   1.0000   1.0000   1.0000   1.0000   1.0000   1.0000
     1.0000   1.0000   1.0000   1.0000   1.0000   1.0000   1.0000   1.0000
     1.0000   1.0000   1.0000   1.0000   1.0000   1.0000   1.0000   1.0000
     1.0000   1.0000   1.0000   1.0000   1.0000   1.0000   1.0000   1.0000
     1.0000   1.0000   1.0000   1.0000   1.0000   1.0000   1.0000   1.0002
     1.0002   1.0811   0.4995   0.4995   0.0127   0.0127   0.0107   0.0000
     0.0000   0.0000   0.0000   0.0000   0.0000   0.0000   0.0000   0.0000
     0.0000   0.0000   0.0000   0.0000   0.0000   0.0000   0.0000   0.0000
     0.0000   0.0000   0.0000   0.0000   0.0000   0.0000   0.0000   0.0000
     0.0000   0.0000   0.0000

          k = 0.0000 0.7107 0.0000 (249892 PWs)   bands (ev):

   -51.2569 -51.2568 -51.2568 -51.2568 -50.8982 -50.8982 -50.8982 -50.8982
   -50.0553 -50.0550 -50.0548 -50.0546 -49.9901 -49.9901 -49.9899 -49.9898
   -49.9333 -49.9305 -49.9279 -49.9267 -49.9267 -49.9255 -49.9255 -49.9248
   -49.9235 -49.9235 -49.9230 -49.9201 -49.9199 -49.9182 -49.9182 -49.9129
   -49.9080 -49.9080 -49.9065 -49.9053 -49.8853 -49.8853 -49.8852 -49.8852
   -49.8736 -49.8736 -49.8728 -49.8728  -6.2541  -5.9773  -5.6735  -5.5264
    -5.3951  -5.0649  -5.0649  -4.9543  -4.8891  -4.7858  -4.7858  -4.4995
    -4.4995  -4.3458  -4.3458  -4.3323  -4.2014  -4.2014  -4.1358  -3.8161
    -3.8161  -3.6698  -3.6698  -3.6073  -3.4234  -3.2472  -3.2472  -2.9930
    -2.9930  -2.6587  -2.5530  -2.5530  -2.2213  -2.1245  -1.9897  -1.9897
    -1.8829  -1.5636  -1.4498  -1.3123  -1.1070  -1.0371  -0.6026  -0.6026
    -0.5965  -0.5611  -0.5033  -0.4783  -0.2902  -0.2418  -0.2418  -0.1267
    -0.0882   0.0190   0.2629

     occupation numbers 
     1.0000   1.0000   1.0000   1.0000   1.0000   1.0000   1.0000   1.0000
     1.0000   1.0000   1.0000   1.0000   1.0000   1.0000   1.0000   1.0000
[...]
     atom   10 type  1   force =    -0.00002559    0.03397192   -6.63527275
     atom   11 type  1   force =    -0.00000001   -0.02874497   -6.05389077
     atom   12 type  1   force =    -0.00000001    0.03834903   -2.40674331
     atom   13 type  1   force =    -0.00000001   -0.03559484    0.34635112
     atom   14 type  1   force =    -0.00000001    0.03581770    4.17156863
     atom   15 type  1   force =    -0.00002463    0.02873617    6.05410998
     atom   16 type  1   force =    -0.00019486   -0.04664253    9.04722833
     atom   17 type  1   force =    -0.00006143   -0.03835198    2.40677820
     atom   18 type  1   force =     0.00000000   -0.03405384    6.63584672
     atom   19 type  1   force =    -0.00000001    0.07162502   10.70313495
     atom   20 type  1   force =    -0.00000001   -0.07498539   12.83846295
     atom   21 type  1   force =    -0.00009313    0.01243221   12.64126664
     atom   22 type  1   force =    -0.00017605    0.02548701   15.34397314
     atom   23 type  1   force =     0.00000002    0.00144437   16.01080515
     atom   24 type  1   force =     0.00000672   -0.00144416  -16.01088628
     atom   25 type  1   force =     0.00000711    0.07501658  -12.83958500
     atom   26 type  1   force =     0.00000001   -0.02548273  -15.34396431
     atom   27 type  1   force =    -0.00000000   -0.01241665  -12.64138196
     atom   28 type  1   force =     0.00000002    0.04663923   -9.04721690
     atom   29 type  1   force =     0.00005276   -0.03586267   -4.17151327
     atom   30 type  1   force =     0.00005277    0.03560108   -0.34669271
     atom   31 type  1   force =     0.00002123   -0.07170331  -10.70294556
     atom   32 type  1   force =     0.00002559    0.03397190   -6.63527276
     atom   33 type  1   force =    -0.00000000   -0.02872389   -6.05430047
     atom   34 type  1   force =     0.00000003    0.03835798   -2.40680233
     atom   35 type  1   force =     0.00000003   -0.03560604    0.34704242
     atom   36 type  1   force =     0.00000003    0.03590674    4.17146306
     atom   37 type  1   force =     0.00002463    0.02873615    6.05410999
     atom   38 type  1   force =     0.00019485   -0.04664251    9.04722831
     atom   39 type  1   force =     0.00006141   -0.03835198    2.40677821
     atom   40 type  1   force =    -0.00000001   -0.03388865    6.63467387
     atom   41 type  1   force =     0.00000004    0.07180424   10.70279198
     atom   42 type  1   force =     0.00000003   -0.07507813   12.84063015
     atom   43 type  1   force =     0.00009310    0.01243221   12.64126664
     atom   44 type  1   force =     0.00017604    0.02548701   15.34397315
     The local contribution  to forces
     atom    1 type  1   force =     0.00000137   -0.00402392  -16.14695884
     atom    2 type  1   force =     0.00001112    0.00400652   16.14688767
     atom    3 type  1   force =     0.00000841   -0.09318868   12.91582382
     atom    4 type  1   force =     0.00000136    0.02800524   15.48831609
     atom    5 type  1   force =     0.00000000    0.02209488   12.70989544
     atom    6 type  1   force =     0.00000136   -0.04645688    9.08807675
     atom    7 type  1   force =     0.00005608    0.03929746    4.19418405
     atom    8 type  1   force =     0.00005433   -0.03836920    0.34521718
     atom    9 type  1   force =     0.00002398    0.07719077   10.75902553
     atom   10 type  1   force =     0.00002767   -0.03665507    6.66644201
     atom   11 type  1   force =     0.00000000    0.03191114    6.08316278
     atom   12 type  1   force =     0.00000136   -0.04041449    2.41647921
     atom   13 type  1   force =     0.00000136    0.03836208   -0.34487797
     atom   14 type  1   force =     0.00000136   -0.03925225   -4.19425022
     atom   15 type  1   force =     0.00002341   -0.03190287   -6.08338911
     atom   16 type  1   force =     0.00020456    0.04647258   -9.08808998
     atom   17 type  1   force =     0.00006436    0.04041739   -2.41652192
     atom   18 type  1   force =     0.00000000    0.03673948   -6.66702372
     atom   19 type  1   force =     0.00000136   -0.07711213  -10.75922142
     atom   20 type  1   force =     0.00000136    0.09315888  -12.91466396
     atom   21 type  1   force =     0.00010225   -0.02209274  -12.71005321
     atom   22 type  1   force =     0.00018598   -0.02799485  -15.48828690
     atom   23 type  1   force =     0.00000274   -0.00399868  -16.14680981
     atom   24 type  1   force =    -0.00000838    0.00400652   16.14688767
     atom   25 type  1   force =    -0.00000569   -0.09318868   12.91582382
     atom   26 type  1   force =     0.00000273    0.02798918   15.48827539
     atom   27 type  1   force =     0.00000135    0.02207624   12.71016607
     atom   28 type  1   force =     0.00000272   -0.04647006    9.08807481
     atom   29 type  1   force =    -0.00005336    0.03929746    4.19418405
     atom   30 type  1   force =    -0.00005161   -0.03836920    0.34521718
     atom   31 type  1   force =    -0.00002125    0.07719077   10.75902553
     atom   32 type  1   force =    -0.00002495   -0.03665507    6.66644201
     atom   33 type  1   force =     0.00000136    0.03189052    6.08357646
     atom   34 type  1   force =     0.00000272   -0.04042332    2.41654303
     atom   35 type  1   force =     0.00000272    0.03837526   -0.34557539
     atom   36 type  1   force =     0.00000272   -0.03934108   -4.19413411
     atom   37 type  1   force =    -0.00002069   -0.03190287   -6.08338911
     atom   38 type  1   force =    -0.00020185    0.04647258   -9.08808998
     atom   39 type  1   force =    -0.00006164    0.04041739   -2.41652192
     atom   40 type  1   force =     0.00000136    0.03656948   -6.66584610
     atom   41 type  1   force =     0.00000272   -0.07729257  -10.75887762
     atom   42 type  1   force =     0.00000272    0.09325023  -12.91691543
     atom   43 type  1   force =    -0.00009954   -0.02209274  -12.71005321
     atom   44 type  1   force =    -0.00018325   -0.02799485  -15.48828690
     The core correction contribution to forces
     atom    1 type  1   force =     0.00000000    0.00000000    0.00000000
     atom    2 type  1   force =     0.00000000    0.00000000    0.00000000
     atom    3 type  1   force =     0.00000000    0.00000000    0.00000000
     atom    4 type  1   force =     0.00000000    0.00000000    0.00000000
     atom    5 type  1   force =     0.00000000    0.00000000    0.00000000
     atom    6 type  1   force =     0.00000000    0.00000000    0.00000000
     atom    7 type  1   force =     0.00000000    0.00000000    0.00000000
     atom    8 type  1   force =     0.00000000    0.00000000    0.00000000
     atom    9 type  1   force =     0.00000000    0.00000000    0.00000000
     atom   10 type  1   force =     0.00000000    0.00000000    0.00000000
     atom   11 type  1   force =     0.00000000    0.00000000    0.00000000
     atom   12 type  1   force =     0.00000000    0.00000000    0.00000000
     atom   13 type  1   force =     0.00000000    0.00000000    0.00000000
     atom   14 type  1   force =     0.00000000    0.00000000    0.00000000
     atom   15 type  1   force =     0.00000000    0.00000000    0.00000000
     atom   16 type  1   force =     0.00000000    0.00000000    0.00000000
     atom   17 type  1   force =     0.00000000    0.00000000    0.00000000
     atom   18 type  1   force =     0.00000000    0.00000000    0.00000000
     atom   19 type  1   force =     0.00000000    0.00000000    0.00000000
     atom   20 type  1   force =     0.00000000    0.00000000    0.00000000
     atom   21 type  1   force =     0.00000000    0.00000000    0.00000000
     atom   22 type  1   force =     0.00000000    0.00000000    0.00000000
     atom   23 type  1   force =     0.00000000    0.00000000    0.00000000
     atom   24 type  1   force =     0.00000000    0.00000000    0.00000000
     atom   25 type  1   force =     0.00000000    0.00000000    0.00000000
     atom   26 type  1   force =     0.00000000    0.00000000    0.00000000
     atom   27 type  1   force =     0.00000000    0.00000000    0.00000000
     atom   28 type  1   force =     0.00000000    0.00000000    0.00000000
     atom   29 type  1   force =     0.00000000    0.00000000    0.00000000
     atom   30 type  1   force =     0.00000000    0.00000000    0.00000000
     atom   31 type  1   force =     0.00000000    0.00000000    0.00000000
     atom   32 type  1   force =     0.00000000    0.00000000    0.00000000
     atom   33 type  1   force =     0.00000000    0.00000000    0.00000000
     atom   34 type  1   force =     0.00000000    0.00000000    0.00000000
     atom   35 type  1   force =     0.00000000    0.00000000    0.00000000
     atom   36 type  1   force =     0.00000000    0.00000000    0.00000000
     atom   37 type  1   force =     0.00000000    0.00000000    0.00000000
     atom   38 type  1   force =     0.00000000    0.00000000    0.00000000
     atom   39 type  1   force =     0.00000000    0.00000000    0.00000000
     atom   40 type  1   force =     0.00000000    0.00000000    0.00000000
     atom   41 type  1   force =     0.00000000    0.00000000    0.00000000
     atom   42 type  1   force =     0.00000000    0.00000000    0.00000000
     atom   43 type  1   force =     0.00000000    0.00000000    0.00000000
     atom   44 type  1   force =     0.00000000    0.00000000    0.00000000
     The Hubbard contrib.    to forces
     atom    1 type  1   force =     0.00000000    0.00000000    0.00000000
     atom    2 type  1   force =     0.00000000    0.00000000    0.00000000
     atom    3 type  1   force =     0.00000000    0.00000000    0.00000000
     atom    4 type  1   force =     0.00000000    0.00000000    0.00000000
     atom    5 type  1   force =     0.00000000    0.00000000    0.00000000
     atom    6 type  1   force =     0.00000000    0.00000000    0.00000000
     atom    7 type  1   force =     0.00000000    0.00000000    0.00000000
     atom    8 type  1   force =     0.00000000    0.00000000    0.00000000
     atom    9 type  1   force =     0.00000000    0.00000000    0.00000000
     atom   10 type  1   force =     0.00000000    0.00000000    0.00000000
     atom   11 type  1   force =     0.00000000    0.00000000    0.00000000
     atom   12 type  1   force =     0.00000000    0.00000000    0.00000000
     atom   13 type  1   force =     0.00000000    0.00000000    0.00000000
     atom   14 type  1   force =     0.00000000    0.00000000    0.00000000
     atom   15 type  1   force =     0.00000000    0.00000000    0.00000000
     atom   16 type  1   force =     0.00000000    0.00000000    0.00000000
     atom   17 type  1   force =     0.00000000    0.00000000    0.00000000
     atom   18 type  1   force =     0.00000000    0.00000000    0.00000000
     atom   19 type  1   force =     0.00000000    0.00000000    0.00000000
     atom   20 type  1   force =     0.00000000    0.00000000    0.00000000
     atom   21 type  1   force =     0.00000000    0.00000000    0.00000000
     atom   22 type  1   force =     0.00000000    0.00000000    0.00000000
     atom   23 type  1   force =     0.00000000    0.00000000    0.00000000
     atom   24 type  1   force =     0.00000000    0.00000000    0.00000000
     atom   25 type  1   force =     0.00000000    0.00000000    0.00000000
     atom   26 type  1   force =     0.00000000    0.00000000    0.00000000
     atom   27 type  1   force =     0.00000000    0.00000000    0.00000000
     atom   28 type  1   force =     0.00000000    0.00000000    0.00000000
     atom   29 type  1   force =     0.00000000    0.00000000    0.00000000
     atom   30 type  1   force =     0.00000000    0.00000000    0.00000000
     atom   31 type  1   force =     0.00000000    0.00000000    0.00000000
     atom   32 type  1   force =     0.00000000    0.00000000    0.00000000
     atom   33 type  1   force =     0.00000000    0.00000000    0.00000000
     atom   34 type  1   force =     0.00000000    0.00000000    0.00000000
     atom   35 type  1   force =     0.00000000    0.00000000    0.00000000
     atom   36 type  1   force =     0.00000000    0.00000000    0.00000000
     atom   37 type  1   force =     0.00000000    0.00000000    0.00000000
     atom   38 type  1   force =     0.00000000    0.00000000    0.00000000
     atom   39 type  1   force =     0.00000000    0.00000000    0.00000000
     atom   40 type  1   force =     0.00000000    0.00000000    0.00000000
     atom   41 type  1   force =     0.00000000    0.00000000    0.00000000
     atom   42 type  1   force =     0.00000000    0.00000000    0.00000000
     atom   43 type  1   force =     0.00000000    0.00000000    0.00000000
     atom   44 type  1   force =     0.00000000    0.00000000    0.00000000
     The SCF correction term to forces
     atom    1 type  1   force =    -0.00000000   -0.00000000    0.00000001
     atom    2 type  1   force =     0.00000001    0.00000001   -0.00000002
     atom    3 type  1   force =     0.00000000   -0.00000001   -0.00000002
     atom    4 type  1   force =    -0.00000000    0.00000004    0.00000003
     atom    5 type  1   force =     0.00000000    0.00000001   -0.00000008
     atom    6 type  1   force =    -0.00000000   -0.00000001   -0.00000009
     atom    7 type  1   force =     0.00000000    0.00000000   -0.00000004
     atom    8 type  1   force =     0.00000000   -0.00000000    0.00000001
     atom    9 type  1   force =     0.00000001    0.00000000   -0.00000010
     atom   10 type  1   force =     0.00000000    0.00000000   -0.00000008
     atom   11 type  1   force =     0.00000000   -0.00000000   -0.00000006
     atom   12 type  1   force =    -0.00000000   -0.00000000   -0.00000002
     atom   13 type  1   force =    -0.00000000    0.00000000    0.00000001
     atom   14 type  1   force =    -0.00000000   -0.00000001    0.00000006
     atom   15 type  1   force =     0.00000001   -0.00000000    0.00000008
     atom   16 type  1   force =    -0.00000000    0.00000000    0.00000011
     atom   17 type  1   force =     0.00000000   -0.00000000    0.00000004
     atom   18 type  1   force =     0.00000000   -0.00000000    0.00000009
     atom   19 type  1   force =    -0.00000000   -0.00000001    0.00000009
     atom   20 type  1   force =     0.00000000    0.00000000    0.00000009
     atom   21 type  1   force =     0.00000001   -0.00000001    0.00000006
     atom   22 type  1   force =    -0.00000003    0.00000003    0.00000007
     atom   23 type  1   force =     0.00000000    0.00000001   -0.00000001
     atom   24 type  1   force =    -0.00000001    0.00000001   -0.00000002
     atom   25 type  1   force =    -0.00000000   -0.00000001   -0.00000002
     atom   26 type  1   force =     0.00000000    0.00000000    0.00000002
     atom   27 type  1   force =     0.00000000   -0.00000001   -0.00000012
     atom   28 type  1   force =    -0.00000000   -0.00000000   -0.00000008
     atom   29 type  1   force =    -0.00000000    0.00000000   -0.00000004
     atom   30 type  1   force =    -0.00000000   -0.00000000    0.00000001
     atom   31 type  1   force =    -0.00000001    0.00000000   -0.00000010
     atom   32 type  1   force =    -0.00000000    0.00000000   -0.00000008
     atom   33 type  1   force =     0.00000000    0.00000000   -0.00000006
     atom   34 type  1   force =    -0.00000000   -0.00000001   -0.00000002
     atom   35 type  1   force =    -0.00000000   -0.00000000    0.00000001
     atom   36 type  1   force =     0.00000000    0.00000000    0.00000006
     atom   37 type  1   force =    -0.00000001   -0.00000000    0.00000008
     atom   38 type  1   force =     0.00000000    0.00000000    0.00000011
     atom   39 type  1   force =    -0.00000000   -0.00000000    0.00000004
     atom   40 type  1   force =     0.00000000    0.00000001    0.00000008
     atom   41 type  1   force =     0.00000000   -0.00000000    0.00000012
     atom   42 type  1   force =    -0.00000000    0.00000003    0.00000005
     atom   43 type  1   force =    -0.00000001   -0.00000001    0.00000006
     atom   44 type  1   force =     0.00000003    0.00000003    0.00000007

     Total force =     0.001310     Total SCF correction =     0.000000

     Writing all to output data dir ./Li/Lithium.save/ :
     XML data file
     init_run     :     19.30s CPU     27.40s WALL (       1 calls)
     electrons    :   1606.17s CPU   2017.55s WALL (       1 calls)
     forces       :     20.28s CPU     22.12s WALL (       1 calls)

     Called by init_run:
     wfcinit      :      2.93s CPU      3.90s WALL (       1 calls)
     wfcinit:wfcr :      2.69s CPU      3.66s WALL (      14 calls)
     potinit      :      0.94s CPU      1.00s WALL (       1 calls)
     hinit0       :      3.95s CPU      4.39s WALL (       1 calls)

     Called by electrons:
     c_bands      :   1343.23s CPU   1694.75s WALL (      44 calls)
     sum_band     :     57.33s CPU     79.87s WALL (      44 calls)
     v_of_rho     :      2.91s CPU      3.55s WALL (      45 calls)
     v_h          :      0.26s CPU      0.33s WALL (      45 calls)
     v_xc         :      2.65s CPU      3.21s WALL (      45 calls)
     newd         :      2.05s CPU      2.92s WALL (      45 calls)
     PAW_pot      :      0.36s CPU      0.55s WALL (      45 calls)
     mix_rho      :      8.39s CPU     10.69s WALL (      44 calls)

     Called by c_bands:
     init_us_2    :     11.68s CPU     11.84s WALL (    1260 calls)
     cegterg      :   1274.23s CPU   1528.68s WALL (     976 calls)

     Called by sum_band:
     sum_band:wei :      0.08s CPU      0.10s WALL (      44 calls)
     sum_band:loo :     54.96s CPU     76.99s WALL (      44 calls)
     sum_band:buf :      1.00s CPU      1.08s WALL (     616 calls)
     sum_band:ini :      5.78s CPU      5.81s WALL (     616 calls)
     sum_band:cal :      9.88s CPU     10.94s WALL (     616 calls)
     sum_band:bec :      0.13s CPU      0.15s WALL (     616 calls)
     addusdens    :      1.58s CPU      1.63s WALL (      44 calls)
                                        0.00s GPU  (      44 calls)
     addusd:skk   :      0.42s CPU      0.42s WALL (      44 calls)
                                        0.00s GPU  (      44 calls)

     Called by *egterg:
     cdiaghg      :    469.73s CPU    486.46s WALL (   14450 calls)
     cegterg:over :     74.80s CPU     81.35s WALL (   13543 calls)
     cegterg:upda :     57.77s CPU     59.17s WALL (   13543 calls)
     cegterg:last :     20.21s CPU     20.32s WALL (    1252 calls)
     h_psi        :    562.87s CPU    789.37s WALL (   14533 calls)
     s_psi        :     62.96s CPU     63.45s WALL (   14533 calls)
     g_psi        :      0.72s CPU      0.76s WALL (   13543 calls)

     Called by h_psi:
     h_psi:calbec :     80.71s CPU     92.32s WALL (   14533 calls)
     vloc_psi     :    413.65s CPU    626.78s WALL (   14533 calls)
                                        0.00s GPU  (   14533 calls)
     add_vuspsi   :     66.37s CPU     67.87s WALL (   14533 calls)

     General routines
     calbec       :     91.26s CPU    104.02s WALL (   15205 calls)
     fft          :      3.44s CPU      4.26s WALL (     585 calls)
     ffts         :      6.48s CPU      8.08s WALL (    5378 calls)
     fftw         :    434.85s CPU    661.28s WALL (  717210 calls)
     interpolate  :      1.09s CPU      1.15s WALL (      45 calls)

     Parallel routines

     PAW routines
     PAW_pot      :      0.36s CPU      0.55s WALL (      45 calls)
     PAW_symme    :      0.02s CPU      0.02s WALL (      89 calls)

     Environ routines

     PWSCF        :  27m25.88s CPU  34m27.43s WALL


   This run was terminated on:   8:18:53   2Jan2025            

=------------------------------------------------------------------------------=
   JOB DONE.
=------------------------------------------------------------------------------=
