
     Program PWSCF v.7.4 starts on  6Jan2025 at 19:15:17 

     This program is part of the open-source Quantum ESPRESSO suite
     for quantum simulation of materials; please cite
         "P. Giannozzi et al., J. Phys.:Condens. Matter 21 395502 (2009);
         "P. Giannozzi et al., J. Phys.:Condens. Matter 29 465901 (2017);
         "P. Giannozzi et al., J. Chem. Phys. 152 154105 (2020);
          URL http://www.quantum-espresso.org", 
     in publications or presentations arising from this work. More details at
     http://www.quantum-espresso.org/quote

     Parallel version (MPI & OpenMP), running on     512 processor cores
     Number of MPI processes:               512
     Threads/MPI process:                     1

     MPI processes distributed on     4 nodes
     229721 MiB available memory on the printing compute node when the environment starts

     Reading input from espresso.pwi
Warning: card &CELL ignored
Warning: card    PRESS_CONV_THR   = 0.1 ignored
Warning: card    CELL_DOFREE      = 'ALL' ignored
Warning: card / ignored
Warning: card &FCP ignored
Warning: card / ignored
Warning: card &RISM ignored
Warning: card / ignored

     Current dimensions of program PWSCF are:
     Max number of different atomic species (ntypx) = 10
     Max number of k-points (npk) =  40000
     Max angular momentum in pseudopotentials (lmaxx) =  4

     IMPORTANT: XC functional enforced from input :
     Exchange-correlation= PBE
                           (   1   4   3   4   0   0   0)
     Any further DFT definition will be discarded
     Please, verify this is what you really want


     Reading input from environ.in:
     * using ionic solvent mode
     * setting boundary derivatives method to SSCS default
     * setting electrolyte-boundary derivatives method to SSCS default

Environ Warning (1001): card EOF ignored

     

     K-points division:     npool     =       2
     R & G space division:  proc/nbgrp/npool/nimage =     256
     Subspace diagonalization in iterative solution of the eigenvalue problem:
     one sub-group per band group will be used
     ELPA distributed-memory algorithm (size of sub-group:  2*  2 procs)


     Parallelization info
     --------------------
     sticks:   dense  smooth     PW     G-vecs:    dense   smooth      PW
     Min          91      36      9                56517    14280    1907
     Max          92      37     10                56562    14325    1964
     Sum       23389    9361   2459             14473305  3661695  495499

     Using Slab Decomposition



     bravais-lattice index     =           12
     lattice parameter (alat)  =      18.3607  a.u.
     unit-cell volume          =   37876.5244 (a.u.)^3
     number of atoms/cell      =           76
     number of atomic types    =            1
     number of electrons       =       228.00
     number of Kohn-Sham states=          171
     kinetic-energy cutoff     =      80.0000  Ry
     charge density cutoff     =     800.0000  Ry
     scf convergence threshold =      1.0E-14
     mixing beta               =       0.2000
     number of iterations used =            8  local-TF  mixing
     Exchange-correlation= PBE
                           (   1   4   3   4   0   0   0)

     ================================================================================

                                  Environ Setup Summary

     ================================================================================

     Please cite

          O. Andreussi, I. Dabo and N. Marzari, J. Chem. Phys. 136, 064102 (2012)
          F. Nattino, M. Truscott, N. Marzari, and O. Andreussi, J. Chem. Phys. 150, 041722 (2019)

     in publications or presentations arising from this work.

     ================================================================================

     Parameters
     ==========

     compensation onset threshold      =               0.1000E+00
     static permittivity               =                    89.90
     surface tension in input (dyn/cm) =                    37.30
     surface tension in internal units =               0.4792E-04

     Solvent Boundary
     ================

     solvent mode                      =                    ionic
     derivatives method                =                   lowmem
     electrolyte derivatives method    =                   lowmem
     numerical core for derivatives    =                      fft
     switching function adopted        =                     SCCS
     density limit for vacuum region   =               0.5000E-02
     density limit for bulk solvent    =               0.1000E-03
     soft-sphere radius mode           =                    bondi
     soft-sphere softness              =                     0.50
     alpha                             =                     1.32

     Electrostatic Setup
     ===================

     electrostatic problem to solve    =                    modpb
     numerical solver adopted          =                   newton
     type of auxiliary density adopted =                     none
     numerical core for poisson        =                      fft
     adopting a nested solver scheme
     inner solver                      =                       cg
     inner core                        =                      fft
     type of pbc corrections           =                parabolic
     numerical core for corrections    =                      1da

     ================================================================================


     >>>>> Grand-Canonical SCF is activated <<<<<
     Initial Total Charge  =     0.000000 e
     Target Fermi Energy   =    -1.904000 eV
     Thr. of Fermi Energy  =     0.001000 eV
     Wave-shift of Kerker  =     0.400000 bohr^-1
     Wave-shift of Hartree =     1.500000 bohr^-1
     Mixing Rate of Fermi  =     0.050000

     celldm(1)=  18.360747  celldm(2)=   1.118034  celldm(3)=   5.615419
     celldm(4)=   0.223607  celldm(5)=   0.000000  celldm(6)=   0.000000

     crystal axes: (cart. coord. in units of alat)
               a(1) = (   1.000000   0.000000   0.000000 )  
               a(2) = (   0.250000   1.089725   0.000000 )  
               a(3) = (   0.000000   0.000000   5.615419 )  

     reciprocal axes: (cart. coord. in units 2 pi/alat)
               b(1) = (  1.000000 -0.229416  0.000000 )  
               b(2) = (  0.000000  0.917663  0.000000 )  
               b(3) = (  0.000000  0.000000  0.178081 )  


     PseudoPot. # 1 for Li read from file:
     /work/e89/e89/ba3g18/Repos/Pseudopotentials/Pslibrary/Li.pbe-sl-kjpaw_psl.1.0.0.UPF
     MD5 check sum: 3f4d2cafebb47c6c3aa8ed472e6f074d
     Pseudo is Projector augmented-wave, Zval =  3.0
     Generated using 'atomic' code by A. Dal Corso  v.7.4
     Shape of augmentation charge: PSQ
     Using radial grid of 1017 points,  4 beta functions with: 
                l(1) =   0
                l(2) =   0
                l(3) =   1
                l(4) =   1
     Q(r) pseudized with 0 coefficients 


     atomic species   valence    mass     pseudopotential
     Li                3.00     6.94000     Li( 1.00)

     No symmetry found


                                    s                        frac. trans.

      isym =  1     identity                                     

 cryst.   s( 1) = (     1          0          0      )
                  (     0          1          0      )
                  (     0          0          1      )

 cart.    s( 1) = (  1.0000000  0.0000000  0.0000000 )
                  (  0.0000000  1.0000000  0.0000000 )
                  (  0.0000000  0.0000000  1.0000000 )


     point group C_1 (1)    
     there are  1 classes
     the character table:

       E    
A      1.00

     the symmetry operations in each class and the name of the first element:

     E        1
          identity                                               

   Cartesian axes

     site n.     atom                  positions (alat units)
         1        Li     tau(   1) = (   0.0010711  -0.0005278   3.5402412  )
         2        Li     tau(   2) = (   0.2489265   0.7344225   2.1037550  )
         3        Li     tau(   3) = (   0.2489103   0.4041360   2.1822616  )
         4        Li     tau(   4) = (   0.2489141   0.0663691   2.2669271  )
         5        Li     tau(   5) = (   0.4988576   0.7971452   2.3477678  )
         6        Li     tau(   6) = (   0.4988790   0.4561993   2.4091165  )
         7        Li     tau(   7) = (   0.4989315   0.1161764   2.4942403  )
         8        Li     tau(   8) = (   0.2490595   0.8624964   2.5830287  )
         9        Li     tau(   9) = (   0.2493153   0.5168881   2.6684138  )
        10        Li     tau(  10) = (   0.2497058   0.1722715   2.7461916  )
        11        Li     tau(  11) = (   0.5001073   0.9157085   2.8295293  )
        12        Li     tau(  12) = (   0.5005401   0.5702695   2.9164801  )
        13        Li     tau(  13) = (   0.5008221   0.2361349   2.9854307  )
        14        Li     tau(  14) = (   0.2509858   0.9755211   3.0726875  )
        15        Li     tau(  15) = (   0.2510911   0.6260387   3.1511281  )
        16        Li     tau(  16) = (   0.2511296   0.2881208   3.2275788  )
        17        Li     tau(  17) = (   0.5011040   1.0315725   3.3263017  )
        18        Li     tau(  18) = (   0.5010822   0.6919023   3.4160970  )
        19        Li     tau(  19) = (   0.5010746   0.3418693   3.4862228  )
        20        Li     tau(  20) = (   0.2488969   0.9753025   2.2886917  )
        21        Li     tau(  21) = (   0.2488673   0.6297862   2.3879986  )
        22        Li     tau(  22) = (   0.2489069   0.2909590   2.4640764  )
        23        Li     tau(  23) = (   0.4989986   1.0319524   2.5427006  )
        24        Li     tau(  24) = (   0.4991914   0.6825028   2.6305351  )
        25        Li     tau(  25) = (   0.4994831   0.3469669   2.6987278  )
        26        Li     tau(  26) = (   0.4998820   0.0027075   2.7858511  )
        27        Li     tau(  27) = (   0.2502856   0.7456625   2.8692301  )
        28        Li     tau(  28) = (   0.2507148   0.4009053   2.9465745  )
        29        Li     tau(  29) = (   0.2509412   0.0554449   3.0325388  )
        30        Li     tau(  30) = (   0.5010569   0.8007820   3.1209978  )
        31        Li     tau(  31) = (   0.5011203   0.4619292   3.2074456  )
        32        Li     tau(  32) = (   0.5011374   0.1209459   3.2674826  )
        33        Li     tau(  33) = (   0.2510822   0.8504278   3.3481070  )
        34        Li     tau(  34) = (   0.2510847   0.5135138   3.4333036  )
        35        Li     tau(  35) = (   0.2510651   0.1828075   3.5113601  )
        36        Li     tau(  36) = (   0.4989226   0.9182739   2.0738191  )
        37        Li     tau(  37) = (   0.4989184   0.5762205   2.1305581  )
        38        Li     tau(  38) = (   0.4989156   0.2252313   2.1995395  )
        39        Li     tau(  39) = (   0.5010691  -0.0005334   3.5402390  )
        40        Li     tau(  40) = (   0.7489316   0.7344238   2.1037549  )
        41        Li     tau(  41) = (   0.7489072   0.4041347   2.1822620  )
        42        Li     tau(  42) = (   0.7489155   0.0663716   2.2669302  )
        43        Li     tau(  43) = (   0.9988573   0.7971453   2.3477646  )
        44        Li     tau(  44) = (   0.9988802   0.4562035   2.4091204  )
        45        Li     tau(  45) = (   0.9989280   0.1161751   2.4942471  )
        46        Li     tau(  46) = (   0.7490602   0.8624968   2.5830260  )
        47        Li     tau(  47) = (   0.7493183   0.5168892   2.6684149  )
        48        Li     tau(  48) = (   0.7497045   0.1722665   2.7461892  )
        49        Li     tau(  49) = (   1.0001112   0.9157104   2.8295344  )
        50        Li     tau(  50) = (   1.0005386   0.5702697   2.9164822  )
        51        Li     tau(  51) = (   1.0008258   0.2361407   2.9854318  )
        52        Li     tau(  52) = (   0.7509929   0.9755242   3.0726866  )
        53        Li     tau(  53) = (   0.7510903   0.6260382   3.1511247  )
        54        Li     tau(  54) = (   0.7511317   0.2881186   3.2275797  )
        55        Li     tau(  55) = (   1.0010988   1.0315764   3.3262984  )
        56        Li     tau(  56) = (   1.0010826   0.6919037   3.4161054  )
        57        Li     tau(  57) = (   1.0010783   0.3418648   3.4862262  )
        58        Li     tau(  58) = (   0.7488988   0.9753085   2.2886846  )
        59        Li     tau(  59) = (   0.7488681   0.6297855   2.3879981  )
        60        Li     tau(  60) = (   0.7489090   0.2909596   2.4640788  )
        61        Li     tau(  61) = (   0.9990017   1.0319474   2.5427028  )
        62        Li     tau(  62) = (   0.9991964   0.6825052   2.6305354  )
        63        Li     tau(  63) = (   0.9994783   0.3469639   2.6987296  )
        64        Li     tau(  64) = (   0.9998790   0.0027101   2.7858557  )
        65        Li     tau(  65) = (   0.7502886   0.7456635   2.8692276  )
        66        Li     tau(  66) = (   0.7507132   0.4008987   2.9465722  )
        67        Li     tau(  67) = (   0.7509418   0.0554481   3.0325326  )
        68        Li     tau(  68) = (   1.0010560   0.8007801   3.1210018  )
        69        Li     tau(  69) = (   1.0011216   0.4619400   3.2074507  )
        70        Li     tau(  70) = (   1.0011463   0.1209445   3.2674818  )
        71        Li     tau(  71) = (   0.7510864   0.8504260   3.3481044  )
        72        Li     tau(  72) = (   0.7510951   0.5135136   3.4333070  )
        73        Li     tau(  73) = (   0.7510589   0.1828085   3.5113684  )
        74        Li     tau(  74) = (   0.9989230   0.9182809   2.0738228  )
        75        Li     tau(  75) = (   0.9989207   0.5762192   2.1305621  )
        76        Li     tau(  76) = (   0.9989150   0.2252296   2.1995457  )

   Crystallographic axes

     site n.     atom                  positions (cryst. coord.)
         1        Li     tau(   1) = (  0.0011922 -0.0004843  0.6304501  )
         2        Li     tau(   2) = (  0.0804384  0.6739521  0.3746390  )
         3        Li     tau(   3) = (  0.1561952  0.3708606  0.3886196  )
         4        Li     tau(   4) = (  0.2336880  0.0609045  0.4036969  )
         5        Li     tau(   5) = (  0.3159800  0.7315104  0.4180931  )
         6        Li     tau(   6) = (  0.3942197  0.4186371  0.4290181  )
         7        Li     tau(   7) = (  0.4722788  0.1066107  0.4441771  )
         8        Li     tau(   8) = (  0.0511893  0.7914808  0.4599886  )
         9        Li     tau(   9) = (  0.1307331  0.4743289  0.4751941  )
        10        Li     tau(  10) = (  0.2101841  0.1580871  0.4890448  )
        11        Li     tau(  11) = (  0.2900295  0.8403115  0.5038857  )
        12        Li     tau(  12) = (  0.3697113  0.5233150  0.5193700  )
        13        Li     tau(  13) = (  0.4466490  0.2166922  0.5316488  )
        14        Li     tau(  14) = (  0.0271860  0.8951994  0.5471876  )
        15        Li     tau(  15) = (  0.1074680  0.5744924  0.5611564  )
        16        Li     tau(  16) = (  0.1850302  0.2643977  0.5747708  )
        17        Li     tau(  17) = (  0.2644451  0.9466356  0.5923515  )
        18        Li     tau(  18) = (  0.3423490  0.6349329  0.6083423  )
        19        Li     tau(  19) = (  0.4226445  0.3137207  0.6208304  )
        20        Li     tau(  20) = (  0.0251472  0.8949987  0.4075727  )
        21        Li     tau(  21) = (  0.1043845  0.5779313  0.4252574  )
        22        Li     tau(  22) = (  0.1821563  0.2670023  0.4388054  )
        23        Li     tau(  23) = (  0.2622525  0.9469843  0.4528069  )
        24        Li     tau(  24) = (  0.3426146  0.6263074  0.4684486  )
        25        Li     tau(  25) = (  0.4198834  0.3183986  0.4805924  )
        26        Li     tau(  26) = (  0.4992609  0.0024846  0.4961074  )
        27        Li     tau(  27) = (  0.0792190  0.6842666  0.5109557  )
        28        Li     tau(  28) = (  0.1587409  0.3678959  0.5247292  )
        29        Li     tau(  29) = (  0.2382213  0.0508797  0.5400378  )
        30        Li     tau(  30) = (  0.3173450  0.7348477  0.5557907  )
        31        Li     tau(  31) = (  0.3951465  0.4238952  0.5711854  )
        32        Li     tau(  32) = (  0.4733905  0.1109876  0.5818769  )
        33        Li     tau(  33) = (  0.0559807  0.7804059  0.5962346  )
        34        Li     tau(  34) = (  0.1332766  0.4712324  0.6114065  )
        35        Li     tau(  35) = (  0.2091262  0.1677556  0.6253069  )
        36        Li     tau(  36) = (  0.2882562  0.8426657  0.3693080  )
        37        Li     tau(  37) = (  0.3667244  0.5287761  0.3794121  )
        38        Li     tau(  38) = (  0.4472440  0.2066863  0.3916964  )
        39        Li     tau(  39) = (  0.5011915 -0.0004895  0.6304497  )
        40        Li     tau(  40) = (  0.5804433  0.6739534  0.3746390  )
        41        Li     tau(  41) = (  0.6561924  0.3708594  0.3886196  )
        42        Li     tau(  42) = (  0.7336888  0.0609068  0.4036974  )
        43        Li     tau(  43) = (  0.8159797  0.7315105  0.4180925  )
        44        Li     tau(  44) = (  0.8942200  0.4186409  0.4290188  )
        45        Li     tau(  45) = (  0.9722756  0.1066096  0.4441783  )
        46        Li     tau(  46) = (  0.5511899  0.7914812  0.4599881  )
        47        Li     tau(  47) = (  0.6307358  0.4743299  0.4751943  )
        48        Li     tau(  48) = (  0.7101839  0.1580826  0.4890444  )
        49        Li     tau(  49) = (  0.7900329  0.8403133  0.5038866  )
        50        Li     tau(  50) = (  0.8697098  0.5233152  0.5193704  )
        51        Li     tau(  51) = (  0.9466514  0.2166975  0.5316490  )
        52        Li     tau(  52) = (  0.5271924  0.8952022  0.5471874  )
        53        Li     tau(  53) = (  0.6074673  0.5744919  0.5611557  )
        54        Li     tau(  54) = (  0.6850328  0.2643957  0.5747710  )
        55        Li     tau(  55) = (  0.7644390  0.9466392  0.5923509  )
        56        Li     tau(  56) = (  0.8423491  0.6349342  0.6083438  )
        57        Li     tau(  57) = (  0.9226492  0.3137165  0.6208310  )
        58        Li     tau(  58) = (  0.5251478  0.8950042  0.4075715  )
        59        Li     tau(  59) = (  0.6043854  0.5779306  0.4252573  )
        60        Li     tau(  60) = (  0.6821583  0.2670028  0.4388059  )
        61        Li     tau(  61) = (  0.7622568  0.9469796  0.4528073  )
        62        Li     tau(  62) = (  0.8426190  0.6263096  0.4684486  )
        63        Li     tau(  63) = (  0.9198794  0.3183959  0.4805927  )
        64        Li     tau(  64) = (  0.9992573  0.0024869  0.4961082  )
        65        Li     tau(  65) = (  0.5792217  0.6842676  0.5109552  )
        66        Li     tau(  66) = (  0.6587408  0.3678898  0.5247288  )
        67        Li     tau(  67) = (  0.7382212  0.0508826  0.5400367  )
        68        Li     tau(  68) = (  0.8173445  0.7348460  0.5557914  )
        69        Li     tau(  69) = (  0.8951453  0.4239051  0.5711864  )
        70        Li     tau(  70) = (  0.9733997  0.1109863  0.5818767  )
        71        Li     tau(  71) = (  0.5559854  0.7804043  0.5962341  )
        72        Li     tau(  72) = (  0.6332870  0.4712323  0.6114071  )
        73        Li     tau(  73) = (  0.7091198  0.1677566  0.6253084  )
        74        Li     tau(  74) = (  0.7882549  0.8426721  0.3693087  )
        75        Li     tau(  75) = (  0.8667270  0.5287749  0.3794128  )
        76        Li     tau(  76) = (  0.9472438  0.2066848  0.3916975  )

     number of k points=    22  Marzari-Vanderbilt smearing, width (Ry)=  0.0100
                       cart. coord. in units 2pi/alat
        k(    1) = (   0.0000000   0.0000000   0.0000000), wk =   0.0476190
        k(    2) = (   0.0000000   0.1529438   0.0000000), wk =   0.0952381
        k(    3) = (   0.0000000   0.3058876   0.0000000), wk =   0.0952381
        k(    4) = (   0.0000000  -0.4588314   0.0000000), wk =   0.0476190
        k(    5) = (   0.1428571  -0.0327737   0.0000000), wk =   0.0952381
        k(    6) = (   0.1428571   0.1201701   0.0000000), wk =   0.0952381
        k(    7) = (   0.1428571   0.2731139   0.0000000), wk =   0.0952381
        k(    8) = (   0.1428571  -0.4916050   0.0000000), wk =   0.0952381
        k(    9) = (   0.1428571  -0.3386612   0.0000000), wk =   0.0952381
        k(   10) = (   0.1428571  -0.1857175   0.0000000), wk =   0.0952381
        k(   11) = (   0.2857143  -0.0655473   0.0000000), wk =   0.0952381
        k(   12) = (   0.2857143   0.0873964   0.0000000), wk =   0.0952381
        k(   13) = (   0.2857143   0.2403402   0.0000000), wk =   0.0952381
        k(   14) = (   0.2857143  -0.5243787   0.0000000), wk =   0.0952381
        k(   15) = (   0.2857143  -0.3714349   0.0000000), wk =   0.0952381
        k(   16) = (   0.2857143  -0.2184911   0.0000000), wk =   0.0952381
        k(   17) = (   0.4285714  -0.0983210   0.0000000), wk =   0.0952381
        k(   18) = (   0.4285714   0.0546228   0.0000000), wk =   0.0952381
        k(   19) = (   0.4285714   0.2075666   0.0000000), wk =   0.0952381
        k(   20) = (   0.4285714  -0.5571524   0.0000000), wk =   0.0952381
        k(   21) = (   0.4285714  -0.4042086   0.0000000), wk =   0.0952381
        k(   22) = (   0.4285714  -0.2512648   0.0000000), wk =   0.0952381

                       cryst. coord.
        k(    1) = (   0.0000000   0.0000000   0.0000000), wk =   0.0476190
        k(    2) = (   0.0000000   0.1666667   0.0000000), wk =   0.0952381
        k(    3) = (   0.0000000   0.3333333   0.0000000), wk =   0.0952381
        k(    4) = (   0.0000000  -0.5000000   0.0000000), wk =   0.0476190
        k(    5) = (   0.1428571   0.0000000   0.0000000), wk =   0.0952381
        k(    6) = (   0.1428571   0.1666667   0.0000000), wk =   0.0952381
        k(    7) = (   0.1428571   0.3333333   0.0000000), wk =   0.0952381
        k(    8) = (   0.1428571  -0.5000000   0.0000000), wk =   0.0952381
        k(    9) = (   0.1428571  -0.3333333   0.0000000), wk =   0.0952381
        k(   10) = (   0.1428571  -0.1666667   0.0000000), wk =   0.0952381
        k(   11) = (   0.2857143   0.0000000   0.0000000), wk =   0.0952381
        k(   12) = (   0.2857143   0.1666667   0.0000000), wk =   0.0952381
        k(   13) = (   0.2857143   0.3333333   0.0000000), wk =   0.0952381
        k(   14) = (   0.2857143  -0.5000000   0.0000000), wk =   0.0952381
        k(   15) = (   0.2857143  -0.3333333   0.0000000), wk =   0.0952381
        k(   16) = (   0.2857143  -0.1666667   0.0000000), wk =   0.0952381
        k(   17) = (   0.4285714   0.0000000   0.0000000), wk =   0.0952381
        k(   18) = (   0.4285714   0.1666667   0.0000000), wk =   0.0952381
        k(   19) = (   0.4285714   0.3333333   0.0000000), wk =   0.0952381
        k(   20) = (   0.4285714  -0.5000000   0.0000000), wk =   0.0952381
        k(   21) = (   0.4285714  -0.3333333   0.0000000), wk =   0.0952381
        k(   22) = (   0.4285714  -0.1666667   0.0000000), wk =   0.0952381

     Dense  grid: 14473305 G-vectors     FFT dimensions: ( 180, 192, 960)

     Smooth grid:  3661695 G-vectors     FFT dimensions: ( 108, 120, 600)

     Dynamical RAM for                 wfc:       4.66 MB

     Dynamical RAM for     wfc (w. buffer):      55.95 MB

     Dynamical RAM for           str. fact:       0.86 MB

     Dynamical RAM for           local pot:       0.00 MB

     Dynamical RAM for          nlocal pot:      16.58 MB

     Dynamical RAM for                qrad:       0.65 MB

     Dynamical RAM for          rho,v,vnew:       5.75 MB

     Dynamical RAM for               rhoin:       1.92 MB

     Dynamical RAM for            rho*nmix:      13.80 MB

     Dynamical RAM for           G-vectors:       3.34 MB

     Dynamical RAM for          h,s,v(r/c):       5.35 MB

     Dynamical RAM for          <psi|beta>:       1.59 MB

     Dynamical RAM for                 psi:      18.65 MB

     Dynamical RAM for                hpsi:      18.65 MB

     Dynamical RAM for                spsi:      18.65 MB

     Dynamical RAM for      wfcinit/wfcrot:      10.00 MB

     Dynamical RAM for           addusdens:      51.75 MB

     Dynamical RAM for          addusforce:     116.51 MB

     Estimated static dynamical RAM per process >      92.05 MB

     Estimated max dynamical RAM per process >     222.36 MB

     Estimated total dynamical RAM >     107.73 GB

     Initial potential from superposition of free atoms

     starting charge     227.6497, renormalised to     228.0000

     negative rho (up, down):  6.540E-03 0.000E+00
     Starting wfcs are random
     Checking if some PAW data can be deallocated... 

     total cpu time spent up to now is       52.1 secs

     Self-consistent Calculation

     iteration #  1     ecut=    80.00 Ry     beta= 0.20
     Davidson diagonalization with overlap

---- Real-time Memory Report at c_bands before calling an iterative solver
          1418 MiB given to the printing process from OS
             0 MiB allocation reported by mallinfo(arena+hblkhd)
        205701 MiB available memory on the node where the printing process lives
------------------
     c_bands:  2 eigenvalues not converged
     c_bands:  2 eigenvalues not converged
     c_bands:  2 eigenvalues not converged
     c_bands:  1 eigenvalues not converged
     ethr =  1.00E-12,  avg # of iterations =143.5

     negative rho (up, down):  4.837E-03 0.000E+00

     total cpu time spent up to now is      783.3 secs

     total energy              =   -1142.53402893 Ry
     estimated scf accuracy    <       0.23952656 Ry

     total charge of GC-SCF    =      -0.05666591 e
     the Fermi energy          =      -4.20778610 eV
                        (error :       2.30378610 eV)
     electrostatic embedding   =       0.00000000 Ry
     cavitation energy         =       0.04224149 Ry
     electrolyte free energy   =       0.01630252 Ry
     correction to one-el term =      -0.00000000 Ry

     iteration #  2     ecut=    80.00 Ry     beta= 0.20
     Davidson diagonalization with overlap

---- Real-time Memory Report at c_bands before calling an iterative solver
          1418 MiB given to the printing process from OS
             0 MiB allocation reported by mallinfo(arena+hblkhd)
        202616 MiB available memory on the node where the printing process lives
------------------
     ethr =  1.00E-05,  avg # of iterations = 18.3

     negative rho (up, down):  3.845E-03 0.000E+00

     total cpu time spent up to now is      884.3 secs

     total energy              =   -1142.97289392 Ry
     estimated scf accuracy    <       0.16187575 Ry

     total charge of GC-SCF    =      -0.07981628 e
     the Fermi energy          =      -2.74610834 eV
                        (error :       0.84210834 eV)
     electrostatic embedding   =      -0.00053580 Ry
     cavitation energy         =       0.04224149 Ry
     electrolyte free energy   =       0.01630252 Ry
     correction to one-el term =      -0.00000000 Ry

     iteration #  3     ecut=    80.00 Ry     beta= 0.20
     Davidson diagonalization with overlap

---- Real-time Memory Report at c_bands before calling an iterative solver
          1418 MiB given to the printing process from OS
             0 MiB allocation reported by mallinfo(arena+hblkhd)
        202258 MiB available memory on the node where the printing process lives
------------------
     ethr =  1.00E-05,  avg # of iterations = 12.0

     negative rho (up, down):  2.883E-03 0.000E+00

     add environment contribution to local potential

     total cpu time spent up to now is      960.8 secs

     total energy              =   -1142.72275159 Ry
     estimated scf accuracy    <       0.07047818 Ry

     total charge of GC-SCF    =      -0.11020704 e
     the Fermi energy          =      -2.64655710 eV
                        (error :       0.74255710 eV)
     electrostatic embedding   =      -0.00075470 Ry
     cavitation energy         =       0.04224149 Ry
     electrolyte free energy   =       0.01630252 Ry
     correction to one-el term =      -0.00000000 Ry

     iteration #  4     ecut=    80.00 Ry     beta= 0.20
     Davidson diagonalization with overlap

---- Real-time Memory Report at c_bands before calling an iterative solver
          1418 MiB given to the printing process from OS
             0 MiB allocation reported by mallinfo(arena+hblkhd)
        202339 MiB available memory on the node where the printing process lives
------------------
     ethr =  1.00E-05,  avg # of iterations = 36.2

     negative rho (up, down):  2.471E-03 0.000E+00

     add environment contribution to local potential

     total cpu time spent up to now is     1121.0 secs

     total energy              =   -1142.86718030 Ry
     estimated scf accuracy    <       0.03436104 Ry

     total charge of GC-SCF    =      -0.23707146 e
     the Fermi energy          =      -2.52729087 eV
                        (error :       0.62329087 eV)
     electrostatic embedding   =      -0.04328826 Ry
     cavitation energy         =       0.04224149 Ry
     electrolyte free energy   =      -0.00108976 Ry
     correction to one-el term =      10.56368555 Ry

     iteration #  5     ecut=    80.00 Ry     beta= 0.20
     Davidson diagonalization with overlap

---- Real-time Memory Report at c_bands before calling an iterative solver
          1418 MiB given to the printing process from OS
             0 MiB allocation reported by mallinfo(arena+hblkhd)
        202315 MiB available memory on the node where the printing process lives
------------------
     ethr =  1.00E-05,  avg # of iterations = 13.2

     negative rho (up, down):  2.286E-03 0.000E+00

     add environment contribution to local potential

     total cpu time spent up to now is     1195.5 secs

     total energy              =   -1142.65904439 Ry
     estimated scf accuracy    <       0.02535467 Ry

     total charge of GC-SCF    =      -0.86579232 e
     the Fermi energy          =      -2.63478715 eV
                        (error :       0.73078715 eV)
     electrostatic embedding   =      -0.05724106 Ry
     cavitation energy         =       0.04224149 Ry
     electrolyte free energy   =      -0.00154877 Ry
     correction to one-el term =      13.75052027 Ry

     iteration #  6     ecut=    80.00 Ry     beta= 0.20
     Davidson diagonalization with overlap

---- Real-time Memory Report at c_bands before calling an iterative solver
          1418 MiB given to the printing process from OS
             0 MiB allocation reported by mallinfo(arena+hblkhd)
        202403 MiB available memory on the node where the printing process lives
------------------
     ethr =  1.00E-05,  avg # of iterations = 14.2

     negative rho (up, down):  1.964E-03 0.000E+00

     add environment contribution to local potential

     total cpu time spent up to now is     1299.3 secs

     total energy              =   -1142.87899656 Ry
     estimated scf accuracy    <       0.02194303 Ry

     total charge of GC-SCF    =      -1.01111494 e
     the Fermi energy          =      -2.78954018 eV
                        (error :       0.88554018 eV)
     electrostatic embedding   =      -0.17159145 Ry
     cavitation energy         =       0.04224149 Ry
     electrolyte free energy   =      -0.00260909 Ry
     correction to one-el term =      40.40923020 Ry

     iteration #  7     ecut=    80.00 Ry     beta= 0.20
     Davidson diagonalization with overlap

---- Real-time Memory Report at c_bands before calling an iterative solver
          1418 MiB given to the printing process from OS
             0 MiB allocation reported by mallinfo(arena+hblkhd)
        202270 MiB available memory on the node where the printing process lives
------------------
     ethr =  9.58E-06,  avg # of iterations = 21.2

     negative rho (up, down):  1.714E-03 0.000E+00

     add environment contribution to local potential

     total cpu time spent up to now is     1410.2 secs

     total energy              =   -1142.86660024 Ry
     estimated scf accuracy    <       0.00408851 Ry

     total charge of GC-SCF    =      -1.36228693 e
     the Fermi energy          =      -2.49276453 eV
                        (error :       0.58876453 eV)
     electrostatic embedding   =      -0.20146447 Ry
     cavitation energy         =       0.04224149 Ry
     electrolyte free energy   =      -0.00016979 Ry
     correction to one-el term =      47.44603640 Ry

     iteration #  8     ecut=    80.00 Ry     beta= 0.20
     Davidson diagonalization with overlap

---- Real-time Memory Report at c_bands before calling an iterative solver
          1418 MiB given to the printing process from OS
             0 MiB allocation reported by mallinfo(arena+hblkhd)
        202244 MiB available memory on the node where the printing process lives
------------------
     ethr =  1.78E-06,  avg # of iterations = 41.0

     negative rho (up, down):  1.594E-03 0.000E+00

     add environment contribution to local potential

     total cpu time spent up to now is     1574.0 secs

     total energy              =   -1142.91256868 Ry
     estimated scf accuracy    <       0.02029394 Ry

     total charge of GC-SCF    =      -1.80624617 e
     the Fermi energy          =      -2.17629319 eV
                        (error :       0.27229319 eV)
     electrostatic embedding   =      -0.29482774 Ry
     cavitation energy         =       0.04224149 Ry
     electrolyte free energy   =      -0.00155698 Ry
     correction to one-el term =      64.67652016 Ry

     iteration #  9     ecut=    80.00 Ry     beta= 0.20
     Davidson diagonalization with overlap

---- Real-time Memory Report at c_bands before calling an iterative solver
          1418 MiB given to the printing process from OS
             0 MiB allocation reported by mallinfo(arena+hblkhd)
        201896 MiB available memory on the node where the printing process lives
------------------
     ethr =  1.78E-06,  avg # of iterations =  8.9

     negative rho (up, down):  1.496E-03 0.000E+00

     add environment contribution to local potential

     total cpu time spent up to now is     1640.2 secs

     total energy              =   -1142.84672003 Ry
     estimated scf accuracy    <       0.01960220 Ry

     total charge of GC-SCF    =      -2.21618528 e
     the Fermi energy          =      -2.14310284 eV
                        (error :       0.23910284 eV)
     electrostatic embedding   =      -0.45983630 Ry
     cavitation energy         =       0.04224149 Ry
     electrolyte free energy   =      -0.00270506 Ry
     correction to one-el term =      81.51629932 Ry

     iteration # 10     ecut=    80.00 Ry     beta= 0.20
     Davidson diagonalization with overlap

---- Real-time Memory Report at c_bands before calling an iterative solver
          1418 MiB given to the printing process from OS
             0 MiB allocation reported by mallinfo(arena+hblkhd)
        201905 MiB available memory on the node where the printing process lives
------------------
     ethr =  1.78E-06,  avg # of iterations = 14.5

     negative rho (up, down):  1.313E-03 0.000E+00

     add environment contribution to local potential

     total cpu time spent up to now is     1738.5 secs

     total energy              =   -1143.00233300 Ry
     estimated scf accuracy    <       0.00223028 Ry

     total charge of GC-SCF    =      -2.29387112 e
     the Fermi energy          =      -2.32806644 eV
                        (error :       0.42406644 eV)
     electrostatic embedding   =      -0.65301970 Ry
     cavitation energy         =       0.04224149 Ry
     electrolyte free energy   =      -0.00266129 Ry
     correction to one-el term =      95.22811673 Ry

     iteration # 11     ecut=    80.00 Ry     beta= 0.20
     Davidson diagonalization with overlap

---- Real-time Memory Report at c_bands before calling an iterative solver
          1418 MiB given to the printing process from OS
             0 MiB allocation reported by mallinfo(arena+hblkhd)
        201990 MiB available memory on the node where the printing process lives
------------------
     ethr =  9.68E-07,  avg # of iterations = 36.5

     negative rho (up, down):  1.177E-03 0.000E+00

     add environment contribution to local potential

     total cpu time spent up to now is     1903.7 secs

     total energy              =   -1142.86009803 Ry
     estimated scf accuracy    <       0.02682488 Ry

     total charge of GC-SCF    =      -2.90752992 e
     the Fermi energy          =      -2.08635263 eV
                        (error :       0.18235263 eV)
     electrostatic embedding   =      -0.67620272 Ry
     cavitation energy         =       0.04224149 Ry
     electrolyte free energy   =      -0.00462357 Ry
     correction to one-el term =      98.82668537 Ry

     iteration # 12     ecut=    80.00 Ry     beta= 0.20
     Davidson diagonalization with overlap

---- Real-time Memory Report at c_bands before calling an iterative solver
          1418 MiB given to the printing process from OS
             0 MiB allocation reported by mallinfo(arena+hblkhd)
        201718 MiB available memory on the node where the printing process lives
------------------
     ethr =  9.68E-07,  avg # of iterations = 14.5

     negative rho (up, down):  1.108E-03 0.000E+00

     add environment contribution to local potential

     total cpu time spent up to now is     2012.9 secs

     total energy              =   -1142.92039008 Ry
     estimated scf accuracy    <       0.00570771 Ry

     total charge of GC-SCF    =      -3.51677651 e
     the Fermi energy          =      -2.21898564 eV
                        (error :       0.31498564 eV)
     electrostatic embedding   =      -1.01618593 Ry
     cavitation energy         =       0.04224149 Ry
     electrolyte free energy   =      -0.00594224 Ry
     correction to one-el term =     119.60878550 Ry

     iteration # 13     ecut=    80.00 Ry     beta= 0.20
     Davidson diagonalization with overlap

---- Real-time Memory Report at c_bands before calling an iterative solver
          1418 MiB given to the printing process from OS
             0 MiB allocation reported by mallinfo(arena+hblkhd)
        201795 MiB available memory on the node where the printing process lives
------------------
     ethr =  9.68E-07,  avg # of iterations = 14.9

     negative rho (up, down):  1.026E-03 0.000E+00

     add environment contribution to local potential

     total cpu time spent up to now is     2117.9 secs

     total energy              =   -1143.04157979 Ry
     estimated scf accuracy    <       0.00072235 Ry

     total charge of GC-SCF    =      -3.58337273 e
     the Fermi energy          =      -2.35194887 eV
                        (error :       0.44794887 eV)
     electrostatic embedding   =      -1.43155372 Ry
     cavitation energy         =       0.04224149 Ry
     electrolyte free energy   =      -0.00905167 Ry
     correction to one-el term =     139.29121732 Ry

     iteration # 14     ecut=    80.00 Ry     beta= 0.20
     Davidson diagonalization with overlap

---- Real-time Memory Report at c_bands before calling an iterative solver
          1418 MiB given to the printing process from OS
             0 MiB allocation reported by mallinfo(arena+hblkhd)
        201852 MiB available memory on the node where the printing process lives
------------------
     ethr =  3.12E-07,  avg # of iterations = 11.9

     negative rho (up, down):  9.188E-04 0.000E+00

     add environment contribution to local potential

     total cpu time spent up to now is     2192.6 secs

     total energy              =   -1143.01508235 Ry
     estimated scf accuracy    <       0.00062352 Ry

     total charge of GC-SCF    =      -3.89880551 e
     the Fermi energy          =      -2.31861713 eV
                        (error :       0.41461713 eV)
     electrostatic embedding   =      -1.47261694 Ry
     cavitation energy         =       0.04224149 Ry
     electrolyte free energy   =      -0.00952507 Ry
     correction to one-el term =     141.94264249 Ry

     iteration # 15     ecut=    80.00 Ry     beta= 0.20
     Davidson diagonalization with overlap

---- Real-time Memory Report at c_bands before calling an iterative solver
          1418 MiB given to the printing process from OS
             0 MiB allocation reported by mallinfo(arena+hblkhd)
        201939 MiB available memory on the node where the printing process lives
------------------
     ethr =  2.69E-07,  avg # of iterations = 14.1

     negative rho (up, down):  8.383E-04 0.000E+00

     add environment contribution to local potential

     total cpu time spent up to now is     2294.2 secs

     total energy              =   -1143.01241229 Ry
     estimated scf accuracy    <       0.00065197 Ry

     total charge of GC-SCF    =      -4.35710470 e
     the Fermi energy          =      -2.28515925 eV
                        (error :       0.38115925 eV)
     electrostatic embedding   =      -1.69195868 Ry
     cavitation energy         =       0.04224149 Ry
     electrolyte free energy   =      -0.01190825 Ry
     correction to one-el term =     152.03719067 Ry

     iteration # 16     ecut=    80.00 Ry     beta= 0.20
     Davidson diagonalization with overlap

---- Real-time Memory Report at c_bands before calling an iterative solver
          1418 MiB given to the printing process from OS
             0 MiB allocation reported by mallinfo(arena+hblkhd)
        201945 MiB available memory on the node where the printing process lives
------------------
     ethr =  2.69E-07,  avg # of iterations = 14.3

     negative rho (up, down):  8.069E-04 0.000E+00

     add environment contribution to local potential

     total cpu time spent up to now is     2406.9 secs

     total energy              =   -1143.04464722 Ry
     estimated scf accuracy    <       0.00127525 Ry

     total charge of GC-SCF    =      -4.59429229 e
     the Fermi energy          =      -2.23093253 eV
                        (error :       0.32693253 eV)
     electrostatic embedding   =      -2.04169946 Ry
     cavitation energy         =       0.04224149 Ry
     electrolyte free energy   =      -0.01623605 Ry
     correction to one-el term =     166.78766358 Ry

     iteration # 17     ecut=    80.00 Ry     beta= 0.20
     Davidson diagonalization with overlap

---- Real-time Memory Report at c_bands before calling an iterative solver
          1418 MiB given to the printing process from OS
             0 MiB allocation reported by mallinfo(arena+hblkhd)
        201847 MiB available memory on the node where the printing process lives
------------------
     ethr =  2.69E-07,  avg # of iterations = 12.1

     negative rho (up, down):  7.702E-04 0.000E+00

     add environment contribution to local potential

     total cpu time spent up to now is     2498.9 secs

     total energy              =   -1143.01684049 Ry
     estimated scf accuracy    <       0.00143685 Ry

     total charge of GC-SCF    =      -5.53253425 e
     the Fermi energy          =      -2.22319706 eV
                        (error :       0.31919706 eV)
     electrostatic embedding   =      -2.23053833 Ry
     cavitation energy         =       0.04224149 Ry
     electrolyte free energy   =      -0.01869617 Ry
     correction to one-el term =     173.38462909 Ry

     iteration # 18     ecut=    80.00 Ry     beta= 0.20
     Davidson diagonalization with overlap

---- Real-time Memory Report at c_bands before calling an iterative solver
          1418 MiB given to the printing process from OS
             0 MiB allocation reported by mallinfo(arena+hblkhd)
        201924 MiB available memory on the node where the printing process lives
------------------
     ethr =  2.69E-07,  avg # of iterations = 20.8

     negative rho (up, down):  7.468E-04 0.000E+00

     add environment contribution to local potential

     total cpu time spent up to now is     2621.4 secs

     total energy              =   -1143.06230441 Ry
     estimated scf accuracy    <       0.00081583 Ry

     total charge of GC-SCF    =      -6.38672939 e
     the Fermi energy          =      -2.16267445 eV
                        (error :       0.25867445 eV)
     electrostatic embedding   =      -3.10120846 Ry
     cavitation energy         =       0.04224149 Ry
     electrolyte free energy   =      -0.03205041 Ry
     correction to one-el term =     203.08712460 Ry

     iteration # 19     ecut=    80.00 Ry     beta= 0.20
     Davidson diagonalization with overlap

---- Real-time Memory Report at c_bands before calling an iterative solver
          1418 MiB given to the printing process from OS
             0 MiB allocation reported by mallinfo(arena+hblkhd)
        201663 MiB available memory on the node where the printing process lives
------------------
     ethr =  2.69E-07,  avg # of iterations = 14.1

     negative rho (up, down):  7.113E-04 0.000E+00

     add environment contribution to local potential

     total cpu time spent up to now is     2734.0 secs

     total energy              =   -1143.11438657 Ry
     estimated scf accuracy    <       0.00011989 Ry

     total charge of GC-SCF    =      -7.18351878 e
     the Fermi energy          =      -2.10447252 eV
                        (error :       0.20047252 eV)
     electrostatic embedding   =      -4.01829894 Ry
     cavitation energy         =       0.04224149 Ry
     electrolyte free energy   =      -0.04919030 Ry
     correction to one-el term =     230.12902941 Ry

     iteration # 20     ecut=    80.00 Ry     beta= 0.20
     Davidson diagonalization with overlap

---- Real-time Memory Report at c_bands before calling an iterative solver
          1418 MiB given to the printing process from OS
             0 MiB allocation reported by mallinfo(arena+hblkhd)
        201692 MiB available memory on the node where the printing process lives
------------------
     ethr =  5.10E-08,  avg # of iterations = 33.4

     negative rho (up, down):  6.921E-04 0.000E+00

     add environment contribution to local potential

     total cpu time spent up to now is     2906.0 secs

     total energy              =   -1143.12142268 Ry
     estimated scf accuracy    <       0.00006924 Ry

     total charge of GC-SCF    =      -7.09099568 e
     the Fermi energy          =      -2.00654720 eV
                        (error :       0.10254720 eV)
     electrostatic embedding   =      -4.95980582 Ry
     cavitation energy         =       0.04224149 Ry
     electrolyte free energy   =      -0.07017060 Ry
     correction to one-el term =     254.38978620 Ry

     iteration # 21     ecut=    80.00 Ry     beta= 0.20
     Davidson diagonalization with overlap

---- Real-time Memory Report at c_bands before calling an iterative solver
          1418 MiB given to the printing process from OS
             0 MiB allocation reported by mallinfo(arena+hblkhd)
        201645 MiB available memory on the node where the printing process lives
------------------
     ethr =  2.95E-08,  avg # of iterations = 13.0

     negative rho (up, down):  6.597E-04 0.000E+00

     add environment contribution to local potential

     total cpu time spent up to now is     3002.0 secs

     total energy              =   -1143.13429065 Ry
     estimated scf accuracy    <       0.00006560 Ry

     total charge of GC-SCF    =      -7.85125255 e
     the Fermi energy          =      -2.01625270 eV
                        (error :       0.11225270 eV)
     electrostatic embedding   =      -4.83100570 Ry
     cavitation energy         =       0.04224149 Ry
     electrolyte free energy   =      -0.06735646 Ry
     correction to one-el term =     250.69659360 Ry

     iteration # 22     ecut=    80.00 Ry     beta= 0.20
     Davidson diagonalization with overlap

---- Real-time Memory Report at c_bands before calling an iterative solver
          1418 MiB given to the printing process from OS
             0 MiB allocation reported by mallinfo(arena+hblkhd)
        201820 MiB available memory on the node where the printing process lives
------------------
     ethr =  2.78E-08,  avg # of iterations = 34.9

     negative rho (up, down):  6.395E-04 0.000E+00

     add environment contribution to local potential

     total cpu time spent up to now is     3177.0 secs

     total energy              =   -1143.12001640 Ry
     estimated scf accuracy    <       0.00005876 Ry

     total charge of GC-SCF    =      -7.96184267 e
     the Fermi energy          =      -1.91800897 eV
                        (error :       0.01400897 eV)
     electrostatic embedding   =      -5.79514431 Ry
     cavitation energy         =       0.04224149 Ry
     electrolyte free energy   =      -0.09177346 Ry
     correction to one-el term =     273.11453888 Ry

     iteration # 23     ecut=    80.00 Ry     beta= 0.20
     Davidson diagonalization with overlap

---- Real-time Memory Report at c_bands before calling an iterative solver
          1418 MiB given to the printing process from OS
             0 MiB allocation reported by mallinfo(arena+hblkhd)
        201676 MiB available memory on the node where the printing process lives
------------------
     ethr =  2.49E-08,  avg # of iterations = 13.0

     negative rho (up, down):  6.273E-04 0.000E+00

     add environment contribution to local potential

     total cpu time spent up to now is     3277.5 secs

     total energy              =   -1143.12016053 Ry
     estimated scf accuracy    <       0.00002441 Ry

     total charge of GC-SCF    =      -7.95074877 e
     the Fermi energy          =      -1.90600108 eV
                        (error :       0.00200108 eV)
     electrostatic embedding   =      -5.92879340 Ry
     cavitation energy         =       0.04224149 Ry
     electrolyte free energy   =      -0.09568478 Ry
     correction to one-el term =     275.76301643 Ry

     iteration # 24     ecut=    80.00 Ry     beta= 0.20
     Davidson diagonalization with overlap

---- Real-time Memory Report at c_bands before calling an iterative solver
          1418 MiB given to the printing process from OS
             0 MiB allocation reported by mallinfo(arena+hblkhd)
        201829 MiB available memory on the node where the printing process lives
------------------
     ethr =  1.03E-08,  avg # of iterations = 12.1

     negative rho (up, down):  6.139E-04 0.000E+00

     add environment contribution to local potential

     total cpu time spent up to now is     3367.1 secs

     total energy              =   -1143.12016967 Ry
     estimated scf accuracy    <       0.00001488 Ry

     total charge of GC-SCF    =      -7.95910015 e
     the Fermi energy          =      -1.90996730 eV
                        (error :       0.00596730 eV)
     electrostatic embedding   =      -5.90404991 Ry
     cavitation energy         =       0.04224149 Ry
     electrolyte free energy   =      -0.09518815 Ry
     correction to one-el term =     274.92315724 Ry

     iteration # 25     ecut=    80.00 Ry     beta= 0.20
     Davidson diagonalization with overlap

---- Real-time Memory Report at c_bands before calling an iterative solver
          1418 MiB given to the printing process from OS
             0 MiB allocation reported by mallinfo(arena+hblkhd)
        201952 MiB available memory on the node where the printing process lives
------------------
     ethr =  6.31E-09,  avg # of iterations = 13.0

     negative rho (up, down):  6.071E-04 0.000E+00

     add environment contribution to local potential

     total cpu time spent up to now is     3470.8 secs

     total energy              =   -1143.12061782 Ry
     estimated scf accuracy    <       0.00000790 Ry

     total charge of GC-SCF    =      -7.91838084 e
     the Fermi energy          =      -1.91265923 eV
                        (error :       0.00865923 eV)
     electrostatic embedding   =      -5.90085701 Ry
     cavitation energy         =       0.04224149 Ry
     electrolyte free energy   =      -0.09536198 Ry
     correction to one-el term =     274.41994499 Ry

     iteration # 26     ecut=    80.00 Ry     beta= 0.20
     Davidson diagonalization with overlap

---- Real-time Memory Report at c_bands before calling an iterative solver
          1418 MiB given to the printing process from OS
             0 MiB allocation reported by mallinfo(arena+hblkhd)
        201895 MiB available memory on the node where the printing process lives
------------------
     ethr =  3.35E-09,  avg # of iterations = 13.0

     negative rho (up, down):  6.026E-04 0.000E+00

     add environment contribution to local potential

     total cpu time spent up to now is     3577.3 secs

     total energy              =   -1143.12060243 Ry
     estimated scf accuracy    <       0.00000350 Ry

     total charge of GC-SCF    =      -8.02217812 e
     the Fermi energy          =      -1.92257687 eV
                        (error :       0.01857687 eV)
     electrostatic embedding   =      -5.83911550 Ry
     cavitation energy         =       0.04224149 Ry
     electrolyte free energy   =      -0.09379547 Ry
     correction to one-el term =     272.82775465 Ry

     iteration # 27     ecut=    80.00 Ry     beta= 0.20
     Davidson diagonalization with overlap

---- Real-time Memory Report at c_bands before calling an iterative solver
          1418 MiB given to the printing process from OS
             0 MiB allocation reported by mallinfo(arena+hblkhd)
        201889 MiB available memory on the node where the printing process lives
------------------
     ethr =  1.48E-09,  avg # of iterations = 31.6

     negative rho (up, down):  5.992E-04 0.000E+00

     add environment contribution to local potential

     total cpu time spent up to now is     3738.7 secs

     total energy              =   -1143.12038564 Ry
     estimated scf accuracy    <       0.00000335 Ry

     total charge of GC-SCF    =      -8.04165943 e
     the Fermi energy          =      -1.90599245 eV
                        (error :       0.00199245 eV)
     electrostatic embedding   =      -5.97801537 Ry
     cavitation energy         =       0.04224149 Ry
     electrolyte free energy   =      -0.09764187 Ry
     correction to one-el term =     275.93861527 Ry

     iteration # 28     ecut=    80.00 Ry     beta= 0.20
     Davidson diagonalization with overlap

---- Real-time Memory Report at c_bands before calling an iterative solver
          1418 MiB given to the printing process from OS
             0 MiB allocation reported by mallinfo(arena+hblkhd)
        201746 MiB available memory on the node where the printing process lives
------------------
     ethr =  1.42E-09,  avg # of iterations =  9.9

     negative rho (up, down):  5.956E-04 0.000E+00

     add environment contribution to local potential

     total cpu time spent up to now is     3820.1 secs

     total energy              =   -1143.12042213 Ry
     estimated scf accuracy    <       0.00000098 Ry

     total charge of GC-SCF    =      -8.06378854 e
     the Fermi energy          =      -1.90579120 eV
                        (error :       0.00179120 eV)
     electrostatic embedding   =      -6.00279965 Ry
     cavitation energy         =       0.04224149 Ry
     electrolyte free energy   =      -0.09834183 Ry
     correction to one-el term =     276.43433116 Ry

     iteration # 29     ecut=    80.00 Ry     beta= 0.20
     Davidson diagonalization with overlap

---- Real-time Memory Report at c_bands before calling an iterative solver
          1418 MiB given to the printing process from OS
             0 MiB allocation reported by mallinfo(arena+hblkhd)
        201804 MiB available memory on the node where the printing process lives
------------------
     ethr =  4.15E-10,  avg # of iterations = 25.0

     negative rho (up, down):  5.938E-04 0.000E+00

     add environment contribution to local potential

     total cpu time spent up to now is     3960.1 secs

     total energy              =   -1143.12043323 Ry
     estimated scf accuracy    <       0.00000022 Ry

     total charge of GC-SCF    =      -8.07830758 e
     the Fermi energy          =      -1.90487055 eV
                        (error :       0.00087055 eV)
     electrostatic embedding   =      -6.02769985 Ry
     cavitation energy         =       0.04224149 Ry
     electrolyte free energy   =      -0.09911509 Ry
     correction to one-el term =     276.79352798 Ry

     iteration # 30     ecut=    80.00 Ry     beta= 0.20
     Davidson diagonalization with overlap

---- Real-time Memory Report at c_bands before calling an iterative solver
          1418 MiB given to the printing process from OS
             0 MiB allocation reported by mallinfo(arena+hblkhd)
        201638 MiB available memory on the node where the printing process lives
------------------
     ethr =  9.47E-11,  avg # of iterations = 11.7

     negative rho (up, down):  5.928E-04 0.000E+00

     add environment contribution to local potential

     total cpu time spent up to now is     4065.3 secs

     total energy              =   -1143.12042358 Ry
     estimated scf accuracy    <       0.00000012 Ry

     total charge of GC-SCF    =      -8.07299933 e
     the Fermi energy          =      -1.90334956 eV
                        (error :       0.00065044 eV)
     electrostatic embedding   =      -6.04705016 Ry
     cavitation energy         =       0.04224149 Ry
     electrolyte free energy   =      -0.09965617 Ry
     correction to one-el term =     277.20252879 Ry

     iteration # 31     ecut=    80.00 Ry     beta= 0.20
     Davidson diagonalization with overlap

---- Real-time Memory Report at c_bands before calling an iterative solver
          1418 MiB given to the printing process from OS
             0 MiB allocation reported by mallinfo(arena+hblkhd)
        201548 MiB available memory on the node where the printing process lives
------------------
     ethr =  4.93E-11,  avg # of iterations = 12.4

     negative rho (up, down):  5.918E-04 0.000E+00

     add environment contribution to local potential

     total cpu time spent up to now is     4164.5 secs

     total energy              =   -1143.12042339 Ry
     estimated scf accuracy    <       0.00000008 Ry

     total charge of GC-SCF    =      -8.07491394 e
     the Fermi energy          =      -1.90384365 eV
                        (error :       0.00015635 eV)
     electrostatic embedding   =      -6.03979155 Ry
     cavitation energy         =       0.04224149 Ry
     electrolyte free energy   =      -0.09945708 Ry
     correction to one-el term =     277.04301602 Ry

     iteration # 32     ecut=    80.00 Ry     beta= 0.20
     Davidson diagonalization with overlap

---- Real-time Memory Report at c_bands before calling an iterative solver
          1418 MiB given to the printing process from OS
             0 MiB allocation reported by mallinfo(arena+hblkhd)
        201710 MiB available memory on the node where the printing process lives
------------------
     ethr =  3.27E-11,  avg # of iterations = 11.5

     negative rho (up, down):  5.911E-04 0.000E+00

     add environment contribution to local potential

     total cpu time spent up to now is     4258.5 secs

     total energy              =   -1143.12042327 Ry
     estimated scf accuracy    <       0.00000002 Ry

     total charge of GC-SCF    =      -8.07413158 e
     the Fermi energy          =      -1.90377799 eV
                        (error :       0.00022201 eV)
     electrostatic embedding   =      -6.04247285 Ry
     cavitation energy         =       0.04224149 Ry
     electrolyte free energy   =      -0.09952884 Ry
     correction to one-el term =     277.10678546 Ry

     iteration # 33     ecut=    80.00 Ry     beta= 0.20
     Davidson diagonalization with overlap

---- Real-time Memory Report at c_bands before calling an iterative solver
          1418 MiB given to the printing process from OS
             0 MiB allocation reported by mallinfo(arena+hblkhd)
        201767 MiB available memory on the node where the printing process lives
------------------
     ethr =  9.95E-12,  avg # of iterations = 12.4

     negative rho (up, down):  5.906E-04 0.000E+00

     add environment contribution to local potential

     total cpu time spent up to now is     4367.7 secs

     total energy              =   -1143.12042374 Ry
     estimated scf accuracy    <       0.00000002 Ry

     total charge of GC-SCF    =      -8.07108247 e
     the Fermi energy          =      -1.90391593 eV
                        (error :       0.00008407 eV)
     electrostatic embedding   =      -6.04148976 Ry
     cavitation energy         =       0.04224149 Ry
     electrolyte free energy   =      -0.09949996 Ry
     correction to one-el term =     277.08943907 Ry

     iteration # 34     ecut=    80.00 Ry     beta= 0.20
     Davidson diagonalization with overlap

---- Real-time Memory Report at c_bands before calling an iterative solver
          1418 MiB given to the printing process from OS
             0 MiB allocation reported by mallinfo(arena+hblkhd)
        201575 MiB available memory on the node where the printing process lives
------------------
     ethr =  6.40E-12,  avg # of iterations = 13.1

     negative rho (up, down):  5.901E-04 0.000E+00

     add environment contribution to local potential

     total cpu time spent up to now is     4476.1 secs

     total energy              =   -1143.12042311 Ry
     estimated scf accuracy    <          9.7E-09 Ry

     total charge of GC-SCF    =      -8.07107211 e
     the Fermi energy          =      -1.90428517 eV
                        (error :       0.00028517 eV)
     electrostatic embedding   =      -6.03738614 Ry
     cavitation energy         =       0.04224149 Ry
     electrolyte free energy   =      -0.09938543 Ry
     correction to one-el term =     277.00153684 Ry

     iteration # 35     ecut=    80.00 Ry     beta= 0.20
     Davidson diagonalization with overlap

---- Real-time Memory Report at c_bands before calling an iterative solver
          1418 MiB given to the printing process from OS
             0 MiB allocation reported by mallinfo(arena+hblkhd)
        201688 MiB available memory on the node where the printing process lives
------------------
     ethr =  4.13E-12,  avg # of iterations = 12.7

     negative rho (up, down):  5.897E-04 0.000E+00

     add environment contribution to local potential

     total cpu time spent up to now is     4581.0 secs

     total energy              =   -1143.12042302 Ry
     estimated scf accuracy    <       0.00000003 Ry

     total charge of GC-SCF    =      -8.07057360 e
     the Fermi energy          =      -1.90424410 eV
                        (error :       0.00024410 eV)
     electrostatic embedding   =      -6.03748104 Ry
     cavitation energy         =       0.04224149 Ry
     electrolyte free energy   =      -0.09938622 Ry
     correction to one-el term =     277.00790825 Ry

     iteration # 36     ecut=    80.00 Ry     beta= 0.20
     Davidson diagonalization with overlap

---- Real-time Memory Report at c_bands before calling an iterative solver
          1418 MiB given to the printing process from OS
             0 MiB allocation reported by mallinfo(arena+hblkhd)
        201716 MiB available memory on the node where the printing process lives
------------------
     ethr =  4.13E-12,  avg # of iterations = 11.9

     negative rho (up, down):  5.894E-04 0.000E+00

     add environment contribution to local potential

     total cpu time spent up to now is     4678.8 secs

     total energy              =   -1143.12042317 Ry
     estimated scf accuracy    <          1.9E-09 Ry

     total charge of GC-SCF    =      -8.07059963 e
     the Fermi energy          =      -1.90425011 eV
                        (error :       0.00025011 eV)
     electrostatic embedding   =      -6.03691921 Ry
     cavitation energy         =       0.04224149 Ry
     electrolyte free energy   =      -0.09936866 Ry
     correction to one-el term =     276.99960730 Ry

     iteration # 37     ecut=    80.00 Ry     beta= 0.20
     Davidson diagonalization with overlap

---- Real-time Memory Report at c_bands before calling an iterative solver
          1418 MiB given to the printing process from OS
             0 MiB allocation reported by mallinfo(arena+hblkhd)
        201837 MiB available memory on the node where the printing process lives
------------------
     ethr =  8.19E-13,  avg # of iterations = 11.9

     negative rho (up, down):  5.891E-04 0.000E+00

     add environment contribution to local potential

     total cpu time spent up to now is     4777.3 secs

     total energy              =   -1143.12042316 Ry
     estimated scf accuracy    <          7.9E-10 Ry

     total charge of GC-SCF    =      -8.07081970 e
     the Fermi energy          =      -1.90424203 eV
                        (error :       0.00024203 eV)
     electrostatic embedding   =      -6.03697151 Ry
     cavitation energy         =       0.04224149 Ry
     electrolyte free energy   =      -0.09936972 Ry
     correction to one-el term =     277.00129896 Ry

     iteration # 38     ecut=    80.00 Ry     beta= 0.20
     Davidson diagonalization with overlap

---- Real-time Memory Report at c_bands before calling an iterative solver
          1418 MiB given to the printing process from OS
             0 MiB allocation reported by mallinfo(arena+hblkhd)
        201767 MiB available memory on the node where the printing process lives
------------------
     ethr =  3.35E-13,  avg # of iterations = 11.6

     negative rho (up, down):  5.888E-04 0.000E+00

     add environment contribution to local potential

     total cpu time spent up to now is     4876.2 secs

     total energy              =   -1143.12042321 Ry
     estimated scf accuracy    <          5.4E-10 Ry

     total charge of GC-SCF    =      -8.07177669 e
     the Fermi energy          =      -1.90420235 eV
                        (error :       0.00020235 eV)
     electrostatic embedding   =      -6.03726523 Ry
     cavitation energy         =       0.04224149 Ry
     electrolyte free energy   =      -0.09937809 Ry
     correction to one-el term =     277.00772717 Ry

     iteration # 39     ecut=    80.00 Ry     beta= 0.20
     Davidson diagonalization with overlap

---- Real-time Memory Report at c_bands before calling an iterative solver
          1418 MiB given to the printing process from OS
             0 MiB allocation reported by mallinfo(arena+hblkhd)
        201765 MiB available memory on the node where the printing process lives
------------------
     ethr =  2.28E-13,  avg # of iterations = 23.0

     negative rho (up, down):  5.887E-04 0.000E+00

     add environment contribution to local potential

     total cpu time spent up to now is     5007.7 secs

     total energy              =   -1143.12042321 Ry
     estimated scf accuracy    <          3.8E-10 Ry

     total charge of GC-SCF    =      -8.07202327 e
     the Fermi energy          =      -1.90406505 eV
                        (error :       0.00006505 eV)
     electrostatic embedding   =      -6.03849342 Ry
     cavitation energy         =       0.04224149 Ry
     electrolyte free energy   =      -0.09941381 Ry
     correction to one-el term =     277.03253501 Ry

     iteration # 40     ecut=    80.00 Ry     beta= 0.20
     Davidson diagonalization with overlap

---- Real-time Memory Report at c_bands before calling an iterative solver
          1418 MiB given to the printing process from OS
             0 MiB allocation reported by mallinfo(arena+hblkhd)
        201648 MiB available memory on the node where the printing process lives
------------------
     ethr =  1.62E-13,  avg # of iterations = 13.5

     negative rho (up, down):  5.885E-04 0.000E+00

     add environment contribution to local potential

     total cpu time spent up to now is     5109.5 secs

     total energy              =   -1143.12042323 Ry
     estimated scf accuracy    <          2.9E-10 Ry

     total charge of GC-SCF    =      -8.07228580 e
     the Fermi energy          =      -1.90408598 eV
                        (error :       0.00008598 eV)
     electrostatic embedding   =      -6.03882434 Ry
     cavitation energy         =       0.04224149 Ry
     electrolyte free energy   =      -0.09942261 Ry
     correction to one-el term =     277.03922253 Ry

     iteration # 41     ecut=    80.00 Ry     beta= 0.20
     Davidson diagonalization with overlap

---- Real-time Memory Report at c_bands before calling an iterative solver
          1418 MiB given to the printing process from OS
             0 MiB allocation reported by mallinfo(arena+hblkhd)
        201807 MiB available memory on the node where the printing process lives
------------------
     ethr =  1.22E-13,  avg # of iterations = 13.3

     negative rho (up, down):  5.884E-04 0.000E+00

     add environment contribution to local potential

     total cpu time spent up to now is     5213.7 secs

     total energy              =   -1143.12042323 Ry
     estimated scf accuracy    <          4.5E-11 Ry

     total charge of GC-SCF    =      -8.07249391 e
     the Fermi energy          =      -1.90403205 eV
                        (error :       0.00003205 eV)
     electrostatic embedding   =      -6.03914467 Ry
     cavitation energy         =       0.04224149 Ry
     electrolyte free energy   =      -0.09943246 Ry
     correction to one-el term =     277.04535657 Ry

     iteration # 42     ecut=    80.00 Ry     beta= 0.20
     Davidson diagonalization with overlap

---- Real-time Memory Report at c_bands before calling an iterative solver
          1418 MiB given to the printing process from OS
             0 MiB allocation reported by mallinfo(arena+hblkhd)
        201835 MiB available memory on the node where the printing process lives
------------------
     ethr =  1.00E-13,  avg # of iterations = 13.4

     negative rho (up, down):  5.883E-04 0.000E+00

     add environment contribution to local potential

     total cpu time spent up to now is     5312.2 secs

     total energy              =   -1143.12042324 Ry
     estimated scf accuracy    <          2.3E-11 Ry

     total charge of GC-SCF    =      -8.07256198 e
     the Fermi energy          =      -1.90401058 eV
                        (error :       0.00001058 eV)
     electrostatic embedding   =      -6.03940392 Ry
     cavitation energy         =       0.04224149 Ry
     electrolyte free energy   =      -0.09944012 Ry
     correction to one-el term =     277.05027550 Ry

     iteration # 43     ecut=    80.00 Ry     beta= 0.20
     Davidson diagonalization with overlap

---- Real-time Memory Report at c_bands before calling an iterative solver
          1418 MiB given to the printing process from OS
             0 MiB allocation reported by mallinfo(arena+hblkhd)
        201896 MiB available memory on the node where the printing process lives
------------------
     ethr =  1.00E-13,  avg # of iterations = 10.6

     negative rho (up, down):  5.883E-04 0.000E+00

     add environment contribution to local potential

     total cpu time spent up to now is     5391.2 secs

     total energy              =   -1143.12042324 Ry
     estimated scf accuracy    <          1.5E-11 Ry

     total charge of GC-SCF    =      -8.07261068 e
     the Fermi energy          =      -1.90400592 eV
                        (error :       0.00000592 eV)
     electrostatic embedding   =      -6.03948850 Ry
     cavitation energy         =       0.04224149 Ry
     electrolyte free energy   =      -0.09944258 Ry
     correction to one-el term =     277.05176473 Ry

     iteration # 44     ecut=    80.00 Ry     beta= 0.20
     Davidson diagonalization with overlap

---- Real-time Memory Report at c_bands before calling an iterative solver
          1418 MiB given to the printing process from OS
             0 MiB allocation reported by mallinfo(arena+hblkhd)
        201820 MiB available memory on the node where the printing process lives
------------------
     ethr =  1.00E-13,  avg # of iterations =  8.3

     negative rho (up, down):  5.882E-04 0.000E+00

     add environment contribution to local potential

     total cpu time spent up to now is     5460.0 secs

     total energy              =   -1143.12042324 Ry
     estimated scf accuracy    <          5.1E-12 Ry

     total charge of GC-SCF    =      -8.07264227 e
     the Fermi energy          =      -1.90399759 eV
                        (error :       0.00000241 eV)
     electrostatic embedding   =      -6.03954990 Ry
     cavitation energy         =       0.04224149 Ry
     electrolyte free energy   =      -0.09944438 Ry
     correction to one-el term =     277.05284338 Ry

     iteration # 45     ecut=    80.00 Ry     beta= 0.20
     Davidson diagonalization with overlap

---- Real-time Memory Report at c_bands before calling an iterative solver
          1418 MiB given to the printing process from OS
             0 MiB allocation reported by mallinfo(arena+hblkhd)
        201818 MiB available memory on the node where the printing process lives
------------------
     ethr =  1.00E-13,  avg # of iterations =  8.4

     negative rho (up, down):  5.882E-04 0.000E+00

     add environment contribution to local potential

     total cpu time spent up to now is     5527.5 secs

     total energy              =   -1143.12042324 Ry
     estimated scf accuracy    <          2.6E-12 Ry

     total charge of GC-SCF    =      -8.07263484 e
     the Fermi energy          =      -1.90399466 eV
                        (error :       0.00000534 eV)
     electrostatic embedding   =      -6.03959091 Ry
     cavitation energy         =       0.04224149 Ry
     electrolyte free energy   =      -0.09944554 Ry
     correction to one-el term =     277.05363243 Ry

     iteration # 46     ecut=    80.00 Ry     beta= 0.20
     Davidson diagonalization with overlap

---- Real-time Memory Report at c_bands before calling an iterative solver
          1418 MiB given to the printing process from OS
             0 MiB allocation reported by mallinfo(arena+hblkhd)
        201791 MiB available memory on the node where the printing process lives
------------------
     ethr =  1.00E-13,  avg # of iterations =  7.9

     negative rho (up, down):  5.881E-04 0.000E+00

     add environment contribution to local potential

     total cpu time spent up to now is     5588.6 secs

     total energy              =   -1143.12042324 Ry
     estimated scf accuracy    <          4.4E-12 Ry

     total charge of GC-SCF    =      -8.07264391 e
     the Fermi energy          =      -1.90399598 eV
                        (error :       0.00000402 eV)
     electrostatic embedding   =      -6.03958194 Ry
     cavitation energy         =       0.04224149 Ry
     electrolyte free energy   =      -0.09944526 Ry
     correction to one-el term =     277.05344916 Ry

     iteration # 47     ecut=    80.00 Ry     beta= 0.20
     Davidson diagonalization with overlap

---- Real-time Memory Report at c_bands before calling an iterative solver
          1418 MiB given to the printing process from OS
             0 MiB allocation reported by mallinfo(arena+hblkhd)
        201827 MiB available memory on the node where the printing process lives
------------------
     ethr =  1.00E-13,  avg # of iterations =  6.3

     negative rho (up, down):  5.881E-04 0.000E+00

     add environment contribution to local potential

     total cpu time spent up to now is     5648.7 secs

     total energy              =   -1143.12042324 Ry
     estimated scf accuracy    <          3.0E-12 Ry

     total charge of GC-SCF    =      -8.07263834 e
     the Fermi energy          =      -1.90399538 eV
                        (error :       0.00000462 eV)
     electrostatic embedding   =      -6.03959451 Ry
     cavitation energy         =       0.04224149 Ry
     electrolyte free energy   =      -0.09944560 Ry
     correction to one-el term =     277.05372349 Ry

     iteration # 48     ecut=    80.00 Ry     beta= 0.20
     Davidson diagonalization with overlap

---- Real-time Memory Report at c_bands before calling an iterative solver
          1418 MiB given to the printing process from OS
             0 MiB allocation reported by mallinfo(arena+hblkhd)
        201843 MiB available memory on the node where the printing process lives
------------------
     ethr =  1.00E-13,  avg # of iterations =  3.3

     negative rho (up, down):  5.881E-04 0.000E+00

     add environment contribution to local potential

     total cpu time spent up to now is     5701.6 secs

     total energy              =   -1143.12042324 Ry
     estimated scf accuracy    <          1.3E-12 Ry

     total charge of GC-SCF    =      -8.07263837 e
     the Fermi energy          =      -1.90399567 eV
                        (error :       0.00000433 eV)
     electrostatic embedding   =      -6.03958807 Ry
     cavitation energy         =       0.04224149 Ry
     electrolyte free energy   =      -0.09944540 Ry
     correction to one-el term =     277.05362531 Ry

     iteration # 49     ecut=    80.00 Ry     beta= 0.20
     Davidson diagonalization with overlap

---- Real-time Memory Report at c_bands before calling an iterative solver
          1418 MiB given to the printing process from OS
             0 MiB allocation reported by mallinfo(arena+hblkhd)
        201883 MiB available memory on the node where the printing process lives
------------------
     ethr =  1.00E-13,  avg # of iterations =  4.7

     negative rho (up, down):  5.881E-04 0.000E+00

     add environment contribution to local potential

     total cpu time spent up to now is     5760.1 secs

     total energy              =   -1143.12042324 Ry
     estimated scf accuracy    <          4.6E-13 Ry

     total charge of GC-SCF    =      -8.07262185 e
     the Fermi energy          =      -1.90399523 eV
                        (error :       0.00000477 eV)
     electrostatic embedding   =      -6.03958829 Ry
     cavitation energy         =       0.04224149 Ry
     electrolyte free energy   =      -0.09944541 Ry
     correction to one-el term =     277.05363949 Ry

     iteration # 50     ecut=    80.00 Ry     beta= 0.20
     Davidson diagonalization with overlap

---- Real-time Memory Report at c_bands before calling an iterative solver
          1418 MiB given to the printing process from OS
             0 MiB allocation reported by mallinfo(arena+hblkhd)
        201831 MiB available memory on the node where the printing process lives
------------------
     ethr =  1.00E-13,  avg # of iterations =  6.5

     negative rho (up, down):  5.881E-04 0.000E+00

     add environment contribution to local potential

     total cpu time spent up to now is     5818.7 secs

     total energy              =   -1143.12042324 Ry
     estimated scf accuracy    <          2.7E-13 Ry

     total charge of GC-SCF    =      -8.07262080 e
     the Fermi energy          =      -1.90399632 eV
                        (error :       0.00000368 eV)
     electrostatic embedding   =      -6.03956752 Ry
     cavitation energy         =       0.04224149 Ry
     electrolyte free energy   =      -0.09944481 Ry
     correction to one-el term =     277.05325402 Ry

     iteration # 51     ecut=    80.00 Ry     beta= 0.20
     Davidson diagonalization with overlap

---- Real-time Memory Report at c_bands before calling an iterative solver
          1418 MiB given to the printing process from OS
             0 MiB allocation reported by mallinfo(arena+hblkhd)
        201817 MiB available memory on the node where the printing process lives
------------------
[...]
     atom   18 type  1   force =     0.00000000    0.00000000    0.00000000
     atom   19 type  1   force =     0.00000000    0.00000000    0.00000000
     atom   20 type  1   force =     0.00000000    0.00000000    0.00000000
     atom   21 type  1   force =     0.00000000    0.00000000    0.00000000
     atom   22 type  1   force =     0.00000000    0.00000000    0.00000000
     atom   23 type  1   force =     0.00000000    0.00000000    0.00000000
     atom   24 type  1   force =     0.00000000    0.00000000    0.00000000
     atom   25 type  1   force =     0.00000000    0.00000000    0.00000000
     atom   26 type  1   force =     0.00000000    0.00000000    0.00000000
     atom   27 type  1   force =     0.00000000    0.00000000    0.00000000
     atom   28 type  1   force =     0.00000000    0.00000000    0.00000000
     atom   29 type  1   force =     0.00000000    0.00000000    0.00000000
     atom   30 type  1   force =     0.00000000    0.00000000    0.00000000
     atom   31 type  1   force =     0.00000000    0.00000000    0.00000000
     atom   32 type  1   force =     0.00000000    0.00000000    0.00000000
     atom   33 type  1   force =     0.00000000    0.00000000    0.00000000
     atom   34 type  1   force =     0.00000000    0.00000000    0.00000000
     atom   35 type  1   force =     0.00000000    0.00000000    0.00000000
     atom   36 type  1   force =     0.00000000    0.00000000    0.00000000
     atom   37 type  1   force =     0.00000000    0.00000000    0.00000000
     atom   38 type  1   force =     0.00000000    0.00000000    0.00000000
     atom   39 type  1   force =     0.00000000    0.00000000    0.00000000
     atom   40 type  1   force =     0.00000000    0.00000000    0.00000000
     atom   41 type  1   force =     0.00000000    0.00000000    0.00000000
     atom   42 type  1   force =     0.00000000    0.00000000    0.00000000
     atom   43 type  1   force =     0.00000000    0.00000000    0.00000000
     atom   44 type  1   force =     0.00000000    0.00000000    0.00000000
     atom   45 type  1   force =     0.00000000    0.00000000    0.00000000
     atom   46 type  1   force =     0.00000000    0.00000000    0.00000000
     atom   47 type  1   force =     0.00000000    0.00000000    0.00000000
     atom   48 type  1   force =     0.00000000    0.00000000    0.00000000
     atom   49 type  1   force =     0.00000000    0.00000000    0.00000000
     atom   50 type  1   force =     0.00000000    0.00000000    0.00000000
     atom   51 type  1   force =     0.00000000    0.00000000    0.00000000
     atom   52 type  1   force =     0.00000000    0.00000000    0.00000000
     atom   53 type  1   force =     0.00000000    0.00000000    0.00000000
     atom   54 type  1   force =     0.00000000    0.00000000    0.00000000
     atom   55 type  1   force =     0.00000000    0.00000000    0.00000000
     atom   56 type  1   force =     0.00000000    0.00000000    0.00000000
     atom   57 type  1   force =     0.00000000    0.00000000    0.00000000
     atom   58 type  1   force =     0.00000000    0.00000000    0.00000000
     atom   59 type  1   force =     0.00000000    0.00000000    0.00000000
     atom   60 type  1   force =     0.00000000    0.00000000    0.00000000
     atom   61 type  1   force =     0.00000000    0.00000000    0.00000000
     atom   62 type  1   force =     0.00000000    0.00000000    0.00000000
     atom   63 type  1   force =     0.00000000    0.00000000    0.00000000
     atom   64 type  1   force =     0.00000000    0.00000000    0.00000000
     atom   65 type  1   force =     0.00000000    0.00000000    0.00000000
     atom   66 type  1   force =     0.00000000    0.00000000    0.00000000
     atom   67 type  1   force =     0.00000000    0.00000000    0.00000000
     atom   68 type  1   force =     0.00000000    0.00000000    0.00000000
     atom   69 type  1   force =     0.00000000    0.00000000    0.00000000
     atom   70 type  1   force =     0.00000000    0.00000000    0.00000000
     atom   71 type  1   force =     0.00000000    0.00000000    0.00000000
     atom   72 type  1   force =     0.00000000    0.00000000    0.00000000
     atom   73 type  1   force =     0.00000000    0.00000000    0.00000000
     atom   74 type  1   force =     0.00000000    0.00000000    0.00000000
     atom   75 type  1   force =     0.00000000    0.00000000    0.00000000
     atom   76 type  1   force =     0.00000000    0.00000000    0.00000000
     The Hubbard contrib.    to forces
     atom    1 type  1   force =     0.00000000    0.00000000    0.00000000
     atom    2 type  1   force =     0.00000000    0.00000000    0.00000000
     atom    3 type  1   force =     0.00000000    0.00000000    0.00000000
     atom    4 type  1   force =     0.00000000    0.00000000    0.00000000
     atom    5 type  1   force =     0.00000000    0.00000000    0.00000000
     atom    6 type  1   force =     0.00000000    0.00000000    0.00000000
     atom    7 type  1   force =     0.00000000    0.00000000    0.00000000
     atom    8 type  1   force =     0.00000000    0.00000000    0.00000000
     atom    9 type  1   force =     0.00000000    0.00000000    0.00000000
     atom   10 type  1   force =     0.00000000    0.00000000    0.00000000
     atom   11 type  1   force =     0.00000000    0.00000000    0.00000000
     atom   12 type  1   force =     0.00000000    0.00000000    0.00000000
     atom   13 type  1   force =     0.00000000    0.00000000    0.00000000
     atom   14 type  1   force =     0.00000000    0.00000000    0.00000000
     atom   15 type  1   force =     0.00000000    0.00000000    0.00000000
     atom   16 type  1   force =     0.00000000    0.00000000    0.00000000
     atom   17 type  1   force =     0.00000000    0.00000000    0.00000000
     atom   18 type  1   force =     0.00000000    0.00000000    0.00000000
     atom   19 type  1   force =     0.00000000    0.00000000    0.00000000
     atom   20 type  1   force =     0.00000000    0.00000000    0.00000000
     atom   21 type  1   force =     0.00000000    0.00000000    0.00000000
     atom   22 type  1   force =     0.00000000    0.00000000    0.00000000
     atom   23 type  1   force =     0.00000000    0.00000000    0.00000000
     atom   24 type  1   force =     0.00000000    0.00000000    0.00000000
     atom   25 type  1   force =     0.00000000    0.00000000    0.00000000
     atom   26 type  1   force =     0.00000000    0.00000000    0.00000000
     atom   27 type  1   force =     0.00000000    0.00000000    0.00000000
     atom   28 type  1   force =     0.00000000    0.00000000    0.00000000
     atom   29 type  1   force =     0.00000000    0.00000000    0.00000000
     atom   30 type  1   force =     0.00000000    0.00000000    0.00000000
     atom   31 type  1   force =     0.00000000    0.00000000    0.00000000
     atom   32 type  1   force =     0.00000000    0.00000000    0.00000000
     atom   33 type  1   force =     0.00000000    0.00000000    0.00000000
     atom   34 type  1   force =     0.00000000    0.00000000    0.00000000
     atom   35 type  1   force =     0.00000000    0.00000000    0.00000000
     atom   36 type  1   force =     0.00000000    0.00000000    0.00000000
     atom   37 type  1   force =     0.00000000    0.00000000    0.00000000
     atom   38 type  1   force =     0.00000000    0.00000000    0.00000000
     atom   39 type  1   force =     0.00000000    0.00000000    0.00000000
     atom   40 type  1   force =     0.00000000    0.00000000    0.00000000
     atom   41 type  1   force =     0.00000000    0.00000000    0.00000000
     atom   42 type  1   force =     0.00000000    0.00000000    0.00000000
     atom   43 type  1   force =     0.00000000    0.00000000    0.00000000
     atom   44 type  1   force =     0.00000000    0.00000000    0.00000000
     atom   45 type  1   force =     0.00000000    0.00000000    0.00000000
     atom   46 type  1   force =     0.00000000    0.00000000    0.00000000
     atom   47 type  1   force =     0.00000000    0.00000000    0.00000000
     atom   48 type  1   force =     0.00000000    0.00000000    0.00000000
     atom   49 type  1   force =     0.00000000    0.00000000    0.00000000
     atom   50 type  1   force =     0.00000000    0.00000000    0.00000000
     atom   51 type  1   force =     0.00000000    0.00000000    0.00000000
     atom   52 type  1   force =     0.00000000    0.00000000    0.00000000
     atom   53 type  1   force =     0.00000000    0.00000000    0.00000000
     atom   54 type  1   force =     0.00000000    0.00000000    0.00000000
     atom   55 type  1   force =     0.00000000    0.00000000    0.00000000
     atom   56 type  1   force =     0.00000000    0.00000000    0.00000000
     atom   57 type  1   force =     0.00000000    0.00000000    0.00000000
     atom   58 type  1   force =     0.00000000    0.00000000    0.00000000
     atom   59 type  1   force =     0.00000000    0.00000000    0.00000000
     atom   60 type  1   force =     0.00000000    0.00000000    0.00000000
     atom   61 type  1   force =     0.00000000    0.00000000    0.00000000
     atom   62 type  1   force =     0.00000000    0.00000000    0.00000000
     atom   63 type  1   force =     0.00000000    0.00000000    0.00000000
     atom   64 type  1   force =     0.00000000    0.00000000    0.00000000
     atom   65 type  1   force =     0.00000000    0.00000000    0.00000000
     atom   66 type  1   force =     0.00000000    0.00000000    0.00000000
     atom   67 type  1   force =     0.00000000    0.00000000    0.00000000
     atom   68 type  1   force =     0.00000000    0.00000000    0.00000000
     atom   69 type  1   force =     0.00000000    0.00000000    0.00000000
     atom   70 type  1   force =     0.00000000    0.00000000    0.00000000
     atom   71 type  1   force =     0.00000000    0.00000000    0.00000000
     atom   72 type  1   force =     0.00000000    0.00000000    0.00000000
     atom   73 type  1   force =     0.00000000    0.00000000    0.00000000
     atom   74 type  1   force =     0.00000000    0.00000000    0.00000000
     atom   75 type  1   force =     0.00000000    0.00000000    0.00000000
     atom   76 type  1   force =     0.00000000    0.00000000    0.00000000
     The SCF correction term to forces
     atom    1 type  1   force =    -0.00000000   -0.00000003   -0.00000005
     atom    2 type  1   force =    -0.00000000    0.00000003    0.00000009
     atom    3 type  1   force =     0.00000000    0.00000000    0.00000011
     atom    4 type  1   force =     0.00000000   -0.00000002    0.00000009
     atom    5 type  1   force =    -0.00000000    0.00000001    0.00000008
     atom    6 type  1   force =     0.00000000    0.00000001    0.00000007
     atom    7 type  1   force =     0.00000000   -0.00000001    0.00000003
     atom    8 type  1   force =     0.00000000   -0.00000000   -0.00000001
     atom    9 type  1   force =    -0.00000000    0.00000002   -0.00000005
     atom   10 type  1   force =     0.00000000   -0.00000001   -0.00000009
     atom   11 type  1   force =     0.00000000   -0.00000001   -0.00000012
     atom   12 type  1   force =     0.00000000    0.00000002   -0.00000015
     atom   13 type  1   force =     0.00000000   -0.00000000   -0.00000017
     atom   14 type  1   force =    -0.00000000   -0.00000002   -0.00000018
     atom   15 type  1   force =     0.00000000    0.00000002   -0.00000019
     atom   16 type  1   force =    -0.00000000   -0.00000000   -0.00000017
     atom   17 type  1   force =     0.00000000   -0.00000002   -0.00000015
     atom   18 type  1   force =    -0.00000000    0.00000003   -0.00000012
     atom   19 type  1   force =     0.00000000   -0.00000001   -0.00000009
     atom   20 type  1   force =     0.00000000   -0.00000001    0.00000009
     atom   21 type  1   force =    -0.00000000    0.00000002    0.00000008
     atom   22 type  1   force =    -0.00000000   -0.00000000    0.00000005
     atom   23 type  1   force =    -0.00000000   -0.00000002    0.00000001
     atom   24 type  1   force =     0.00000000    0.00000001   -0.00000003
     atom   25 type  1   force =    -0.00000000    0.00000000   -0.00000007
     atom   26 type  1   force =    -0.00000000   -0.00000002   -0.00000011
     atom   27 type  1   force =    -0.00000000    0.00000001   -0.00000014
     atom   28 type  1   force =     0.00000000    0.00000001   -0.00000016
     atom   29 type  1   force =     0.00000000   -0.00000002   -0.00000018
     atom   30 type  1   force =    -0.00000000    0.00000000   -0.00000019
     atom   31 type  1   force =    -0.00000000    0.00000002   -0.00000018
     atom   32 type  1   force =    -0.00000000   -0.00000002   -0.00000016
     atom   33 type  1   force =    -0.00000000    0.00000001   -0.00000014
     atom   34 type  1   force =     0.00000000    0.00000002   -0.00000012
     atom   35 type  1   force =    -0.00000000   -0.00000003   -0.00000007
     atom   36 type  1   force =    -0.00000000    0.00000001    0.00000007
     atom   37 type  1   force =     0.00000000    0.00000003    0.00000010
     atom   38 type  1   force =     0.00000000   -0.00000002    0.00000009
     atom   39 type  1   force =     0.00000000   -0.00000003   -0.00000005
     atom   40 type  1   force =     0.00000000    0.00000003    0.00000008
     atom   41 type  1   force =     0.00000000    0.00000000    0.00000011
     atom   42 type  1   force =    -0.00000000   -0.00000002    0.00000009
     atom   43 type  1   force =    -0.00000000    0.00000001    0.00000009
     atom   44 type  1   force =     0.00000000    0.00000001    0.00000007
     atom   45 type  1   force =     0.00000000   -0.00000001    0.00000003
     atom   46 type  1   force =     0.00000000   -0.00000000   -0.00000001
     atom   47 type  1   force =     0.00000000    0.00000002   -0.00000005
     atom   48 type  1   force =    -0.00000000   -0.00000001   -0.00000009
     atom   49 type  1   force =     0.00000000   -0.00000001   -0.00000012
     atom   50 type  1   force =    -0.00000000    0.00000002   -0.00000015
     atom   51 type  1   force =     0.00000000   -0.00000000   -0.00000018
     atom   52 type  1   force =    -0.00000000   -0.00000002   -0.00000018
     atom   53 type  1   force =     0.00000000    0.00000002   -0.00000019
     atom   54 type  1   force =    -0.00000000   -0.00000000   -0.00000017
     atom   55 type  1   force =    -0.00000000   -0.00000002   -0.00000015
     atom   56 type  1   force =     0.00000000    0.00000003   -0.00000012
     atom   57 type  1   force =    -0.00000000   -0.00000001   -0.00000009
     atom   58 type  1   force =    -0.00000000   -0.00000001    0.00000009
     atom   59 type  1   force =     0.00000000    0.00000002    0.00000008
     atom   60 type  1   force =     0.00000000   -0.00000000    0.00000005
     atom   61 type  1   force =    -0.00000000   -0.00000002    0.00000001
     atom   62 type  1   force =     0.00000000    0.00000001   -0.00000003
     atom   63 type  1   force =     0.00000000    0.00000001   -0.00000007
     atom   64 type  1   force =     0.00000000   -0.00000002   -0.00000011
     atom   65 type  1   force =    -0.00000000    0.00000001   -0.00000014
     atom   66 type  1   force =     0.00000000    0.00000001   -0.00000017
     atom   67 type  1   force =     0.00000000   -0.00000002   -0.00000018
     atom   68 type  1   force =    -0.00000000    0.00000001   -0.00000018
     atom   69 type  1   force =     0.00000000    0.00000002   -0.00000018
     atom   70 type  1   force =    -0.00000000   -0.00000002   -0.00000016
     atom   71 type  1   force =    -0.00000000    0.00000000   -0.00000014
     atom   72 type  1   force =     0.00000000    0.00000002   -0.00000013
     atom   73 type  1   force =    -0.00000000   -0.00000003   -0.00000007
     atom   74 type  1   force =    -0.00000000    0.00000001    0.00000007
     atom   75 type  1   force =    -0.00000000    0.00000002    0.00000010
     atom   76 type  1   force =     0.00000000   -0.00000002    0.00000009

     Total force =     0.002895     Total SCF correction =     0.000001

     Writing all to output data dir ./Li/Lithium.save/ :
     XML data file
     init_run     :     39.39s CPU     51.87s WALL (       1 calls)
     electrons    :   4695.89s CPU   6151.27s WALL (       1 calls)
     forces       :    156.95s CPU    163.83s WALL (       1 calls)

     Called by init_run:
     wfcinit      :      7.84s CPU     10.75s WALL (       1 calls)
     wfcinit:wfcr :      7.22s CPU     10.12s WALL (      11 calls)
     potinit      :      1.19s CPU      1.28s WALL (       1 calls)
     hinit0       :     13.66s CPU     22.60s WALL (       1 calls)

     Called by electrons:
     c_bands      :   3581.57s CPU   4809.89s WALL (      58 calls)
     sum_band     :    206.73s CPU    287.79s WALL (      58 calls)
     v_of_rho     :      8.83s CPU     10.32s WALL (      59 calls)
     v_h          :      0.71s CPU      0.85s WALL (      59 calls)
     v_xc         :      8.12s CPU      9.46s WALL (      59 calls)
     newd         :      3.82s CPU      5.39s WALL (      59 calls)
     PAW_pot      :      0.65s CPU      0.85s WALL (      59 calls)
     mix_rho      :     27.27s CPU     31.82s WALL (      58 calls)

     Called by c_bands:
     init_us_2    :     39.71s CPU     39.94s WALL (    1298 calls)
     cegterg      :   3342.20s CPU   4219.70s WALL (     812 calls)

     Called by sum_band:
     sum_band:wei :      0.14s CPU      0.18s WALL (      58 calls)
     sum_band:loo :    200.69s CPU    278.83s WALL (      58 calls)
     sum_band:buf :      4.42s CPU      4.47s WALL (     638 calls)
     sum_band:ini :     19.69s CPU     19.76s WALL (     638 calls)
     sum_band:cal :     41.94s CPU     44.63s WALL (     638 calls)
     sum_band:bec :      0.40s CPU      0.47s WALL (     638 calls)
     addusdens    :      4.70s CPU      6.51s WALL (      58 calls)
                                        0.00s GPU  (      58 calls)
     addusd:skk   :      0.51s CPU      1.93s WALL (      58 calls)
                                        0.00s GPU  (      58 calls)

     Called by *egterg:
     cdiaghg      :    912.61s CPU   1043.51s WALL (   10406 calls)
     cegterg:over :    279.71s CPU    306.65s WALL (    9660 calls)
     cegterg:upda :    219.65s CPU    231.13s WALL (    9660 calls)
     cegterg:last :     90.97s CPU     97.39s WALL (    1012 calls)
     cdiaghg:chol :     43.54s CPU     83.36s WALL (   10406 calls)
     cdiaghg:inve :     21.45s CPU     23.15s WALL (   10406 calls)
     cdiaghg:para :    260.54s CPU    303.79s WALL (   20812 calls)
     h_psi        :   1584.96s CPU   2273.30s WALL (   10483 calls)
     s_psi        :    206.70s CPU    208.05s WALL (   10483 calls)
     g_psi        :      4.35s CPU      4.58s WALL (    9660 calls)

     Called by h_psi:
     h_psi:calbec :    243.56s CPU    263.53s WALL (   10483 calls)
     vloc_psi     :   1129.84s CPU   1789.24s WALL (   10483 calls)
                                        0.00s GPU  (   10483 calls)
     add_vuspsi   :    201.70s CPU    202.57s WALL (   10483 calls)

     General routines
     calbec       :    288.12s CPU    310.93s WALL (   11165 calls)
     fft          :     10.25s CPU     19.89s WALL (     767 calls)
     ffts         :     13.67s CPU     16.56s WALL (    7128 calls)
     fftw         :   1218.31s CPU   1929.15s WALL ( 1055716 calls)
     interpolate  :      1.64s CPU      1.79s WALL (      59 calls)

     Parallel routines

     PAW routines
     PAW_pot      :      0.65s CPU      0.85s WALL (      59 calls)

     Environ routines

     PWSCF        :      1h21m CPU      1h46m WALL


   This run was terminated on:  21: 1:24   6Jan2025            

=------------------------------------------------------------------------------=
   JOB DONE.
=------------------------------------------------------------------------------=
