
     Program PWSCF v.7.4 starts on 21Jan2025 at 10:53:45 

     This program is part of the open-source Quantum ESPRESSO suite
     for quantum simulation of materials; please cite
         "P. Giannozzi et al., J. Phys.:Condens. Matter 21 395502 (2009);
         "P. Giannozzi et al., J. Phys.:Condens. Matter 29 465901 (2017);
         "P. Giannozzi et al., J. Chem. Phys. 152 154105 (2020);
          URL http://www.quantum-espresso.org", 
     in publications or presentations arising from this work. More details at
     http://www.quantum-espresso.org/quote

     Parallel version (MPI & OpenMP), running on     384 processor cores
     Number of MPI processes:               384
     Threads/MPI process:                     1

     MPI processes distributed on     3 nodes
     234495 MiB available memory on the printing compute node when the environment starts

     Reading input from espresso.pwi
Warning: card &CELL ignored
Warning: card    PRESS_CONV_THR   = 0.1 ignored
Warning: card    CELL_DOFREE      = 'ALL' ignored
Warning: card / ignored
Warning: card &FCP ignored
Warning: card / ignored
Warning: card &RISM ignored
Warning: card / ignored

     Current dimensions of program PWSCF are:
     Max number of different atomic species (ntypx) = 10
     Max number of k-points (npk) =  40000
     Max angular momentum in pseudopotentials (lmaxx) =  4

     IMPORTANT: XC functional enforced from input :
     Exchange-correlation= PBE
                           (   1   4   3   4   0   0   0)
     Any further DFT definition will be discarded
     Please, verify this is what you really want


     Reading input from environ.in:
     * using ionic solvent mode
     * setting boundary derivatives method to SSCS default
     * setting electrolyte-boundary derivatives method to SSCS default

Environ Warning (1001): card EOF ignored

     
     Found identity + ( -0.5000  0.0000 -0.0000) symmetry
     This is a supercell, fractional translations are disabled

     K-points division:     npool     =       2
     R & G space division:  proc/nbgrp/npool/nimage =     192
     Subspace diagonalization in iterative solution of the eigenvalue problem:
     a serial algorithm will be used


     Parallelization info
     --------------------
     sticks:   dense  smooth     PW     G-vecs:    dense   smooth      PW
     Min          96      38     10                56184    14194    1882
     Max          97      39     11                56261    14243    1918
     Sum       18577    7447   1945             10795351  2731157  365513

     Using Slab Decomposition



     bravais-lattice index     =            4
     lattice parameter (alat)  =      18.3607  a.u.
     unit-cell volume          =   28251.3786 (a.u.)^3
     number of atoms/cell      =           48
     number of atomic types    =            1
     number of electrons       =       144.00
     number of Kohn-Sham states=          108
     kinetic-energy cutoff     =      80.0000  Ry
     charge density cutoff     =     800.0000  Ry
     scf convergence threshold =      1.0E-16
     mixing beta               =       0.2000
     number of iterations used =            8  local-TF  mixing
     Exchange-correlation= PBE
                           (   1   4   3   4   0   0   0)

     ================================================================================

                                  Environ Setup Summary

     ================================================================================

     Please cite

          O. Andreussi, I. Dabo and N. Marzari, J. Chem. Phys. 136, 064102 (2012)
          F. Nattino, M. Truscott, N. Marzari, and O. Andreussi, J. Chem. Phys. 150, 041722 (2019)

     in publications or presentations arising from this work.

     ================================================================================

     Parameters
     ==========

     compensation onset threshold      =               0.1000E+00
     static permittivity               =                    89.90
     surface tension in input (dyn/cm) =                    37.30
     surface tension in internal units =               0.4792E-04

     Solvent Boundary
     ================

     solvent mode                      =                    ionic
     derivatives method                =                   lowmem
     electrolyte derivatives method    =                   lowmem
     numerical core for derivatives    =                      fft
     switching function adopted        =                     SCCS
     density limit for vacuum region   =               0.5000E-02
     density limit for bulk solvent    =               0.1000E-03
     soft-sphere radius mode           =                    bondi
     soft-sphere softness              =                     0.50
     alpha                             =                     1.32

     Electrostatic Setup
     ===================

     electrostatic problem to solve    =                    modpb
     numerical solver adopted          =                   newton
     type of auxiliary density adopted =                     none
     numerical core for poisson        =                      fft
     adopting a nested solver scheme
     inner solver                      =                       cg
     inner core                        =                      fft
     type of pbc corrections           =                parabolic
     numerical core for corrections    =                      1da

     ================================================================================


     >>>>> Grand-Canonical SCF is activated <<<<<
     Initial Total Charge  =     0.000000 e
     Target Fermi Energy   =    -5.404000 eV
     Thr. of Fermi Energy  =     0.001000 eV
     Wave-shift of Kerker  =     0.400000 bohr^-1
     Wave-shift of Hartree =     1.500000 bohr^-1
     Mixing Rate of Fermi  =     0.050000

     celldm(1)=  18.360747  celldm(2)=   0.000000  celldm(3)=   5.270332
     celldm(4)=   0.000000  celldm(5)=   0.000000  celldm(6)=   0.000000

     crystal axes: (cart. coord. in units of alat)
               a(1) = (   1.000000   0.000000   0.000000 )  
               a(2) = (  -0.500000   0.866025   0.000000 )  
               a(3) = (   0.000000   0.000000   5.270332 )  

     reciprocal axes: (cart. coord. in units 2 pi/alat)
               b(1) = (  1.000000  0.577350 -0.000000 )  
               b(2) = (  0.000000  1.154701  0.000000 )  
               b(3) = (  0.000000 -0.000000  0.189741 )  


     PseudoPot. # 1 for Li read from file:
     /work/e89/e89/ba3g18/Repos/Pseudopotentials/Pslibrary/Li.pbe-sl-kjpaw_psl.1.0.0.UPF
     MD5 check sum: 3f4d2cafebb47c6c3aa8ed472e6f074d
     Pseudo is Projector augmented-wave, Zval =  3.0
     Generated using 'atomic' code by A. Dal Corso  v.7.4
     Shape of augmentation charge: PSQ
     Using radial grid of 1017 points,  4 beta functions with: 
                l(1) =   0
                l(2) =   0
                l(3) =   1
                l(4) =   1
     Q(r) pseudized with 0 coefficients 


     atomic species   valence    mass     pseudopotential
     Li                3.00     6.94000     Li( 1.00)

      2 Sym. Ops. (no inversion) found


                                    s                        frac. trans.

      isym =  1     identity                                     

 cryst.   s( 1) = (     1          0          0      )
                  (     0          1          0      )
                  (     0          0          1      )

 cart.    s( 1) = (  1.0000000  0.0000000  0.0000000 )
                  (  0.0000000  1.0000000  0.0000000 )
                  (  0.0000000  0.0000000  1.0000000 )


      isym =  2     inv. 180 deg rotation - cart. axis [1,0,0]   

 cryst.   s( 2) = (    -1          0          0      )
                  (     1          1          0      )
                  (     0          0          1      )

 cart.    s( 2) = ( -1.0000000  0.0000000  0.0000000 )
                  (  0.0000000  1.0000000  0.0000000 )
                  (  0.0000000  0.0000000  1.0000000 )


     point group C_s (m)    
     there are  2 classes
     the character table:

       E     s    
A'     1.00  1.00
A''    1.00 -1.00

     the symmetry operations in each class and the name of the first element:

     E        1
          identity                                               
     s        2
          inv. 180 deg rotation - cart. axis [1,0,0]             

   Cartesian axes

     site n.     atom                  positions (alat units)
         1        Li     tau(   1) = (  -0.0000000  -0.0000010   2.5919067  )
         2        Li     tau(   2) = (   0.2500014   0.1443438   2.1844341  )
         3        Li     tau(   3) = (   0.5000000   0.2886748   2.3624601  )
         4        Li     tau(   4) = (   0.0000000  -0.0000002   2.2853998  )
         5        Li     tau(   5) = (   0.2500004   0.1443393   2.4820293  )
         6        Li     tau(   6) = (   0.5000000   0.2886709   1.9738684  )
         7        Li     tau(   7) = (   0.0000000  -0.0000066   3.2965049  )
         8        Li     tau(   8) = (   0.2499999   0.1443369   2.7883036  )
         9        Li     tau(   9) = (   0.5000000   0.2886723   2.9849168  )
        10        Li     tau(  10) = (  -0.0000000  -0.0000018   2.9078665  )
        11        Li     tau(  11) = (   0.2499995   0.1443354   3.0858984  )
        12        Li     tau(  12) = (   0.5000000   0.2886746   2.6783964  )
        13        Li     tau(  13) = (   0.2500005   0.4330135   2.5919103  )
        14        Li     tau(  14) = (   0.5000000   0.5773470   2.1844261  )
        15        Li     tau(  15) = (   0.7499997   0.7216918   2.3624581  )
        16        Li     tau(  16) = (   0.2499992   0.4330172   2.2854110  )
        17        Li     tau(  17) = (   0.5000000   0.5773498   2.4820245  )
        18        Li     tau(  18) = (   0.7499997   0.7216972   1.9738909  )
        19        Li     tau(  19) = (   0.2499972   0.4330148   3.2964980  )
        20        Li     tau(  20) = (   0.5000000   0.5773492   2.7882982  )
        21        Li     tau(  21) = (   0.7499997   0.7216868   2.9849175  )
        22        Li     tau(  22) = (   0.2499996   0.4330115   2.9078676  )
        23        Li     tau(  23) = (   0.5000000   0.5773477   3.0858939  )
        24        Li     tau(  24) = (   0.7499991   0.7216888   2.6783967  )
        25        Li     tau(  25) = (   0.5000000   0.0000001   2.5919066  )
        26        Li     tau(  26) = (   0.7499986   0.1443438   2.1844341  )
        27        Li     tau(  27) = (   1.0000000   0.2886740   2.3624602  )
        28        Li     tau(  28) = (   0.5000000  -0.0000011   2.2854029  )
        29        Li     tau(  29) = (   0.7499995   0.1443393   2.4820293  )
        30        Li     tau(  30) = (   1.0000000   0.2886719   1.9738795  )
        31        Li     tau(  31) = (   0.5000000  -0.0000081   3.2964988  )
        32        Li     tau(  32) = (   0.7500001   0.1443369   2.7883036  )
        33        Li     tau(  33) = (   1.0000000   0.2886730   2.9849171  )
        34        Li     tau(  34) = (   0.5000000  -0.0000031   2.9078663  )
        35        Li     tau(  35) = (   0.7500005   0.1443354   3.0858984  )
        36        Li     tau(  36) = (   1.0000000   0.2886727   2.6783985  )
        37        Li     tau(  37) = (   0.7499995   0.4330135   2.5919103  )
        38        Li     tau(  38) = (   1.0000000   0.5773494   2.1844260  )
        39        Li     tau(  39) = (   1.2500003   0.7216918   2.3624581  )
        40        Li     tau(  40) = (   0.7500008   0.4330172   2.2854110  )
        41        Li     tau(  41) = (   1.0000000   0.5773509   2.4820211  )
        42        Li     tau(  42) = (   1.2500003   0.7216972   1.9738909  )
        43        Li     tau(  43) = (   0.7500028   0.4330148   3.2964980  )
        44        Li     tau(  44) = (   1.0000000   0.5773486   2.7882989  )
        45        Li     tau(  45) = (   1.2500003   0.7216868   2.9849175  )
        46        Li     tau(  46) = (   0.7500004   0.4330115   2.9078676  )
        47        Li     tau(  47) = (   1.0000000   0.5773486   3.0858908  )
        48        Li     tau(  48) = (   1.2500009   0.7216888   2.6783967  )

   Crystallographic axes

     site n.     atom                  positions (cryst. coord.)
         1        Li     tau(   1) = ( -0.0000006 -0.0000011  0.4917919  )
         2        Li     tau(   2) = (  0.3333383  0.1666738  0.4144775  )
         3        Li     tau(   3) = (  0.6666665  0.3333329  0.4482564  )
         4        Li     tau(   4) = ( -0.0000001 -0.0000002  0.4336349  )
         5        Li     tau(   5) = (  0.3333348  0.1666687  0.4709436  )
         6        Li     tau(   6) = (  0.6666642  0.3333285  0.3745245  )
         7        Li     tau(   7) = ( -0.0000038 -0.0000076  0.6254834  )
         8        Li     tau(   8) = (  0.3333328  0.1666659  0.5290565  )
         9        Li     tau(   9) = (  0.6666650  0.3333300  0.5663622  )
        10        Li     tau(  10) = ( -0.0000010 -0.0000020  0.5517426  )
        11        Li     tau(  11) = (  0.3333316  0.1666641  0.5855226  )
        12        Li     tau(  12) = (  0.6666663  0.3333327  0.5082026  )
        13        Li     tau(  13) = (  0.5000010  0.5000009  0.4917926  )
        14        Li     tau(  14) = (  0.8333314  0.6666629  0.4144760  )
        15        Li     tau(  15) = (  1.1666687  0.8333380  0.4482560  )
        16        Li     tau(  16) = (  0.5000018  0.5000052  0.4336370  )
        17        Li     tau(  17) = (  0.8333331  0.6666661  0.4709427  )
        18        Li     tau(  18) = (  1.1666718  0.8333441  0.3745287  )
        19        Li     tau(  19) = (  0.4999985  0.5000025  0.6254820  )
        20        Li     tau(  20) = (  0.8333327  0.6666655  0.5290555  )
        21        Li     tau(  21) = (  1.1666657  0.8333321  0.5663623  )
        22        Li     tau(  22) = (  0.4999989  0.4999987  0.5517428  )
        23        Li     tau(  23) = (  0.8333319  0.6666637  0.5855217  )
        24        Li     tau(  24) = (  1.1666663  0.8333344  0.5082027  )
        25        Li     tau(  25) = (  0.5000000  0.0000001  0.4917919  )
        26        Li     tau(  26) = (  0.8333355  0.1666738  0.4144775  )
        27        Li     tau(  27) = (  1.1666660  0.3333321  0.4482564  )
        28        Li     tau(  28) = (  0.4999993 -0.0000013  0.4336355  )
        29        Li     tau(  29) = (  0.8333339  0.1666687  0.4709436  )
        30        Li     tau(  30) = (  1.1666648  0.3333296  0.3745266  )
        31        Li     tau(  31) = (  0.4999953 -0.0000094  0.6254822  )
        32        Li     tau(  32) = (  0.8333331  0.1666659  0.5290565  )
        33        Li     tau(  33) = (  1.1666654  0.3333309  0.5663623  )
        34        Li     tau(  34) = (  0.4999982 -0.0000035  0.5517425  )
        35        Li     tau(  35) = (  0.8333325  0.1666641  0.5855226  )
        36        Li     tau(  36) = (  1.1666653  0.3333305  0.5082030  )
        37        Li     tau(  37) = (  1.0000000  0.5000009  0.4917926  )
        38        Li     tau(  38) = (  1.3333328  0.6666657  0.4144760  )
        39        Li     tau(  39) = (  1.6666693  0.8333380  0.4482560  )
        40        Li     tau(  40) = (  1.0000034  0.5000052  0.4336370  )
        41        Li     tau(  41) = (  1.3333337  0.6666674  0.4709421  )
        42        Li     tau(  42) = (  1.6666723  0.8333441  0.3745287  )
        43        Li     tau(  43) = (  1.0000040  0.5000025  0.6254820  )
        44        Li     tau(  44) = (  1.3333324  0.6666648  0.5290557  )
        45        Li     tau(  45) = (  1.6666664  0.8333321  0.5663623  )
        46        Li     tau(  46) = (  0.9999997  0.4999987  0.5517428  )
        47        Li     tau(  47) = (  1.3333324  0.6666648  0.5855211  )
        48        Li     tau(  48) = (  1.6666681  0.8333345  0.5082027  )

     number of k points=    16  Marzari-Vanderbilt smearing, width (Ry)=  0.0100
                       cart. coord. in units 2pi/alat
        k(    1) = (   0.0000000   0.0000000   0.0000000), wk =   0.0408163
        k(    2) = (   0.0000000   0.1649572   0.0000000), wk =   0.0816327
        k(    3) = (   0.0000000   0.3299144   0.0000000), wk =   0.0816327
        k(    4) = (   0.0000000   0.4948717   0.0000000), wk =   0.0816327
        k(    5) = (   0.1428571   0.2474358   0.0000000), wk =   0.1632653
        k(    6) = (   0.1428571   0.4123930   0.0000000), wk =   0.1632653
        k(    7) = (   0.1428571   0.5773503   0.0000000), wk =   0.0816327
        k(    8) = (   0.2857143   0.4948717   0.0000000), wk =   0.1632653
        k(    9) = (  -0.1428571   0.0824786   0.0000000), wk =   0.1632653
        k(   10) = (  -0.2857143   0.1649572   0.0000000), wk =   0.1632653
        k(   11) = (  -0.4285714   0.2474358   0.0000000), wk =   0.1632653
        k(   12) = (   0.2857143  -0.0000000   0.0000000), wk =   0.0816327
        k(   13) = (  -0.2857143   0.3299144   0.0000000), wk =   0.1632653
        k(   14) = (   0.4285714   0.0824786   0.0000000), wk =   0.1632653
        k(   15) = (  -0.4285714   0.4123930   0.0000000), wk =   0.1632653
        k(   16) = (   0.5714286  -0.0000000   0.0000000), wk =   0.0816327

                       cryst. coord.
        k(    1) = (   0.0000000   0.0000000   0.0000000), wk =   0.0408163
        k(    2) = (   0.0000000   0.1428571   0.0000000), wk =   0.0816327
        k(    3) = (   0.0000000   0.2857143   0.0000000), wk =   0.0816327
        k(    4) = (   0.0000000   0.4285714   0.0000000), wk =   0.0816327
        k(    5) = (   0.1428571   0.1428571   0.0000000), wk =   0.1632653
        k(    6) = (   0.1428571   0.2857143   0.0000000), wk =   0.1632653
        k(    7) = (   0.1428571   0.4285714   0.0000000), wk =   0.0816327
        k(    8) = (   0.2857143   0.2857143   0.0000000), wk =   0.1632653
        k(    9) = (  -0.1428571   0.1428571   0.0000000), wk =   0.1632653
        k(   10) = (  -0.2857143   0.2857143   0.0000000), wk =   0.1632653
        k(   11) = (  -0.4285714   0.4285714   0.0000000), wk =   0.1632653
        k(   12) = (   0.2857143  -0.1428571   0.0000000), wk =   0.0816327
        k(   13) = (  -0.2857143   0.4285714   0.0000000), wk =   0.1632653
        k(   14) = (   0.4285714  -0.1428571   0.0000000), wk =   0.1632653
        k(   15) = (  -0.4285714   0.5714286   0.0000000), wk =   0.1632653
        k(   16) = (   0.5714286  -0.2857143   0.0000000), wk =   0.0816327

     Dense  grid: 10795351 G-vectors     FFT dimensions: ( 180, 180, 900)

     Smooth grid:  2731157 G-vectors     FFT dimensions: ( 108, 108, 576)

     Dynamical RAM for                 wfc:       2.93 MB

     Dynamical RAM for     wfc (w. buffer):      26.36 MB

     Dynamical RAM for           str. fact:       0.86 MB

     Dynamical RAM for           local pot:       0.00 MB

     Dynamical RAM for          nlocal pot:      10.41 MB

     Dynamical RAM for                qrad:       0.65 MB

     Dynamical RAM for          rho,v,vnew:       6.28 MB

     Dynamical RAM for               rhoin:       2.09 MB

     Dynamical RAM for            rho*nmix:      13.73 MB

     Dynamical RAM for           G-vectors:       3.33 MB

     Dynamical RAM for          h,s,v(r/c):       8.54 MB

     Dynamical RAM for          <psi|beta>:       0.63 MB

     Dynamical RAM for                 psi:      11.71 MB

     Dynamical RAM for                hpsi:      11.71 MB

     Dynamical RAM for                spsi:      11.71 MB

     Dynamical RAM for      wfcinit/wfcrot:       6.12 MB

     Dynamical RAM for           addusdens:      39.47 MB

     Dynamical RAM for          addusforce:      79.84 MB

     Estimated static dynamical RAM per process >      57.87 MB

     Estimated max dynamical RAM per process >     164.72 MB

     Estimated total dynamical RAM >      54.21 GB

     Initial potential from superposition of free atoms

     starting charge     143.7788, renormalised to     144.0000

     negative rho (up, down):  4.473E-03 0.000E+00
     Starting wfcs are random
     Checking if some PAW data can be deallocated... 

     total cpu time spent up to now is       36.6 secs

     Self-consistent Calculation

     iteration #  1     ecut=    80.00 Ry     beta= 0.20
     Davidson diagonalization with overlap

---- Real-time Memory Report at c_bands before calling an iterative solver
          1123 MiB given to the printing process from OS
             0 MiB allocation reported by mallinfo(arena+hblkhd)
        216022 MiB available memory on the node where the printing process lives
------------------
     c_bands:  2 eigenvalues not converged
     c_bands:  1 eigenvalues not converged
     ethr =  1.00E-12,  avg # of iterations =137.7

     negative rho (up, down):  3.342E-03 0.000E+00

     total cpu time spent up to now is      273.1 secs

     total energy              =    -721.54932272 Ry
     estimated scf accuracy    <       0.21719184 Ry

     total charge of GC-SCF    =       0.21902990 e
     the Fermi energy          =      -4.35236698 eV
                        (error :       1.05163302 eV)
     electrostatic embedding   =       0.00000000 Ry
     cavitation energy         =       0.04794894 Ry
     electrolyte free energy   =       0.01215974 Ry
     correction to one-el term =      -0.00000000 Ry

     iteration #  2     ecut=    80.00 Ry     beta= 0.20
     Davidson diagonalization with overlap

---- Real-time Memory Report at c_bands before calling an iterative solver
          1123 MiB given to the printing process from OS
             0 MiB allocation reported by mallinfo(arena+hblkhd)
        208543 MiB available memory on the node where the printing process lives
------------------
     ethr =  1.00E-05,  avg # of iterations = 13.9

     negative rho (up, down):  2.523E-03 0.000E+00

     add environment contribution to local potential

     total cpu time spent up to now is      315.8 secs

     total energy              =    -721.84453024 Ry
     estimated scf accuracy    <       0.05223123 Ry

     total charge of GC-SCF    =       0.42413809 e
     the Fermi energy          =      -3.91780122 eV
                        (error :       1.48619878 eV)
     electrostatic embedding   =       0.00175366 Ry
     cavitation energy         =       0.04794894 Ry
     electrolyte free energy   =       0.01215974 Ry
     correction to one-el term =      -0.00000000 Ry

     iteration #  3     ecut=    80.00 Ry     beta= 0.20
     Davidson diagonalization with overlap

---- Real-time Memory Report at c_bands before calling an iterative solver
          1123 MiB given to the printing process from OS
             0 MiB allocation reported by mallinfo(arena+hblkhd)
        208011 MiB available memory on the node where the printing process lives
------------------
     ethr =  1.00E-05,  avg # of iterations = 22.1

     negative rho (up, down):  1.993E-03 0.000E+00

     add environment contribution to local potential

     total cpu time spent up to now is      369.6 secs

     total energy              =    -722.02363017 Ry
     estimated scf accuracy    <       0.02642638 Ry

     total charge of GC-SCF    =       0.69049739 e
     the Fermi energy          =      -3.04923163 eV
                        (error :       2.35476837 eV)
     electrostatic embedding   =      -0.04830223 Ry
     cavitation energy         =       0.04794894 Ry
     electrolyte free energy   =      -0.00608805 Ry
     correction to one-el term =     -12.16734984 Ry

     iteration #  4     ecut=    80.00 Ry     beta= 0.20
     Davidson diagonalization with overlap

---- Real-time Memory Report at c_bands before calling an iterative solver
          1123 MiB given to the printing process from OS
             0 MiB allocation reported by mallinfo(arena+hblkhd)
        207903 MiB available memory on the node where the printing process lives
------------------
     ethr =  1.00E-05,  avg # of iterations = 15.6

     negative rho (up, down):  1.558E-03 0.000E+00

     add environment contribution to local potential

     total cpu time spent up to now is      419.8 secs

     total energy              =    -721.83855141 Ry
     estimated scf accuracy    <       0.02546683 Ry

     total charge of GC-SCF    =       1.30139651 e
     the Fermi energy          =      -3.47213368 eV
                        (error :       1.93186632 eV)
     electrostatic embedding   =      -0.06807019 Ry
     cavitation energy         =       0.04794894 Ry
     electrolyte free energy   =      -0.00946496 Ry
     correction to one-el term =     -18.93649767 Ry

     iteration #  5     ecut=    80.00 Ry     beta= 0.20
     Davidson diagonalization with overlap

---- Real-time Memory Report at c_bands before calling an iterative solver
          1123 MiB given to the printing process from OS
             0 MiB allocation reported by mallinfo(arena+hblkhd)
        207860 MiB available memory on the node where the printing process lives
------------------
     ethr =  1.00E-05,  avg # of iterations =  6.6

     negative rho (up, down):  8.473E-03 0.000E+00

     add environment contribution to local potential

     total cpu time spent up to now is      457.0 secs

     total energy              =    -721.59696335 Ry
     estimated scf accuracy    <       0.01685181 Ry

     total charge of GC-SCF    =       2.87884010 e
     the Fermi energy          =      -3.43223169 eV
                        (error :       1.97176831 eV)
     electrostatic embedding   =      -0.17902518 Ry
     cavitation energy         =       0.04794894 Ry
     electrolyte free energy   =      -0.01012165 Ry
     correction to one-el term =     -35.24602380 Ry

     iteration #  6     ecut=    80.00 Ry     beta= 0.20
     Davidson diagonalization with overlap

---- Real-time Memory Report at c_bands before calling an iterative solver
          1123 MiB given to the printing process from OS
             0 MiB allocation reported by mallinfo(arena+hblkhd)
        207808 MiB available memory on the node where the printing process lives
------------------
     ethr =  1.00E-05,  avg # of iterations = 23.4

     negative rho (up, down):  2.456E-03 0.000E+00

     add environment contribution to local potential

     total cpu time spent up to now is      515.5 secs

     total energy              =    -722.75184415 Ry
     estimated scf accuracy    <       0.01307508 Ry

     total charge of GC-SCF    =       2.67695676 e
     the Fermi energy          =      -3.15663112 eV
                        (error :       2.24736888 eV)
     electrostatic embedding   =      -0.87167185 Ry
     cavitation energy         =       0.04794894 Ry
     electrolyte free energy   =      -0.01672970 Ry
     correction to one-el term =     -76.97697402 Ry

     iteration #  7     ecut=    80.00 Ry     beta= 0.20
     Davidson diagonalization with overlap

---- Real-time Memory Report at c_bands before calling an iterative solver
          1123 MiB given to the printing process from OS
             0 MiB allocation reported by mallinfo(arena+hblkhd)
        207614 MiB available memory on the node where the printing process lives
------------------
     ethr =  9.25E-06,  avg # of iterations =  7.2

     negative rho (up, down):  5.241E-03 0.000E+00

     add environment contribution to local potential

     total cpu time spent up to now is      549.5 secs

     total energy              =    -722.76129916 Ry
     estimated scf accuracy    <       0.01558488 Ry

     total charge of GC-SCF    =       2.51954933 e
     the Fermi energy          =      -3.07664629 eV
                        (error :       2.32735371 eV)
     electrostatic embedding   =      -0.75882834 Ry
     cavitation energy         =       0.04794894 Ry
     electrolyte free energy   =      -0.01457308 Ry
     correction to one-el term =     -71.41158109 Ry

     iteration #  8     ecut=    80.00 Ry     beta= 0.20
     Davidson diagonalization with overlap

---- Real-time Memory Report at c_bands before calling an iterative solver
          1123 MiB given to the printing process from OS
             0 MiB allocation reported by mallinfo(arena+hblkhd)
        207618 MiB available memory on the node where the printing process lives
------------------
     ethr =  9.25E-06,  avg # of iterations =  8.9

     negative rho (up, down):  2.490E-01 0.000E+00

     add environment contribution to local potential

     total cpu time spent up to now is      594.3 secs

     total energy              =    -721.47568650 Ry
     estimated scf accuracy    <       0.02076102 Ry

     total charge of GC-SCF    =       6.00564386 e
     the Fermi energy          =      -2.97259661 eV
                        (error :       2.43140339 eV)
     electrostatic embedding   =      -0.68191598 Ry
     cavitation energy         =       0.04794894 Ry
     electrolyte free energy   =      -0.01283516 Ry
     correction to one-el term =     -66.08508688 Ry

     iteration #  9     ecut=    80.00 Ry     beta= 0.20
     Davidson diagonalization with overlap

---- Real-time Memory Report at c_bands before calling an iterative solver
          1123 MiB given to the printing process from OS
             0 MiB allocation reported by mallinfo(arena+hblkhd)
        207606 MiB available memory on the node where the printing process lives
------------------
     ethr =  9.25E-06,  avg # of iterations = 22.5

     negative rho (up, down):  6.940E-02 0.000E+00

     add environment contribution to local potential

     total cpu time spent up to now is      658.4 secs

     total energy              =    -722.66336254 Ry
     estimated scf accuracy    <       0.02176588 Ry

     total charge of GC-SCF    =       5.40426405 e
     the Fermi energy          =      -4.76119248 eV
                        (error :       0.64280752 eV)
     electrostatic embedding   =      -3.77378786 Ry
     cavitation energy         =       0.04794894 Ry
     electrolyte free energy   =      -0.08527024 Ry
     correction to one-el term =    -166.33162523 Ry

     iteration # 10     ecut=    80.00 Ry     beta= 0.20
     Davidson diagonalization with overlap

---- Real-time Memory Report at c_bands before calling an iterative solver
          1123 MiB given to the printing process from OS
             0 MiB allocation reported by mallinfo(arena+hblkhd)
        207333 MiB available memory on the node where the printing process lives
------------------
     ethr =  9.25E-06,  avg # of iterations = 14.4

     negative rho (up, down):  5.061E-03 0.000E+00

     add environment contribution to local potential

     total cpu time spent up to now is      711.0 secs

     total energy              =    -722.69777121 Ry
     estimated scf accuracy    <       0.01166789 Ry

     total charge of GC-SCF    =       5.37244475 e
     the Fermi energy          =      -3.90371869 eV
                        (error :       1.50028131 eV)
     electrostatic embedding   =      -3.10254178 Ry
     cavitation energy         =       0.04794894 Ry
     electrolyte free energy   =      -0.06679880 Ry
     correction to one-el term =    -150.72270875 Ry

     iteration # 11     ecut=    80.00 Ry     beta= 0.20
     Davidson diagonalization with overlap

---- Real-time Memory Report at c_bands before calling an iterative solver
          1123 MiB given to the printing process from OS
             0 MiB allocation reported by mallinfo(arena+hblkhd)
        207213 MiB available memory on the node where the printing process lives
------------------
     ethr =  8.42E-06,  avg # of iterations = 14.7

     negative rho (up, down):  5.680E-01 0.000E+00

     add environment contribution to local potential

     total cpu time spent up to now is      768.4 secs

     total energy              =    -722.37437713 Ry
     estimated scf accuracy    <       0.02893940 Ry

     total charge of GC-SCF    =       7.61745158 e
     the Fermi energy          =      -3.72129141 eV
                        (error :       1.68270859 eV)
     electrostatic embedding   =      -3.10373767 Ry
     cavitation energy         =       0.04794894 Ry
     electrolyte free energy   =      -0.06579764 Ry
     correction to one-el term =    -151.49698538 Ry

     iteration # 12     ecut=    80.00 Ry     beta= 0.20
     Davidson diagonalization with overlap

---- Real-time Memory Report at c_bands before calling an iterative solver
          1123 MiB given to the printing process from OS
             0 MiB allocation reported by mallinfo(arena+hblkhd)
        207230 MiB available memory on the node where the printing process lives
------------------
     ethr =  8.42E-06,  avg # of iterations = 25.8

     negative rho (up, down):  4.761E-01 0.000E+00

     add environment contribution to local potential

     total cpu time spent up to now is      837.9 secs

     total energy              =    -722.49565909 Ry
     estimated scf accuracy    <       0.00375835 Ry

     total charge of GC-SCF    =       7.83715197 e
     the Fermi energy          =      -5.40191716 eV
                        (error :       0.00208284 eV)
     electrostatic embedding   =      -6.25604610 Ry
     cavitation energy         =       0.04794894 Ry
     electrolyte free energy   =      -0.15111164 Ry
     correction to one-el term =    -214.28328451 Ry

     iteration # 13     ecut=    80.00 Ry     beta= 0.20
     Davidson diagonalization with overlap

---- Real-time Memory Report at c_bands before calling an iterative solver
          1123 MiB given to the printing process from OS
             0 MiB allocation reported by mallinfo(arena+hblkhd)
        207242 MiB available memory on the node where the printing process lives
------------------
     ethr =  2.76E-06,  avg # of iterations = 15.0

     negative rho (up, down):  1.130E-01 0.000E+00

     add environment contribution to local potential

     total cpu time spent up to now is      899.9 secs

     total energy              =    -722.51864602 Ry
     estimated scf accuracy    <       0.00927774 Ry

     total charge of GC-SCF    =       6.96136571 e
     the Fermi energy          =      -5.86982726 eV
                        (error :       0.46582726 eV)
     electrostatic embedding   =      -6.64667703 Ry
     cavitation energy         =       0.04794894 Ry
     electrolyte free energy   =      -0.16266816 Ry
     correction to one-el term =    -221.84628051 Ry

     iteration # 14     ecut=    80.00 Ry     beta= 0.20
     Davidson diagonalization with overlap

---- Real-time Memory Report at c_bands before calling an iterative solver
          1123 MiB given to the printing process from OS
             0 MiB allocation reported by mallinfo(arena+hblkhd)
        207230 MiB available memory on the node where the printing process lives
------------------
     ethr =  2.76E-06,  avg # of iterations = 11.2

     negative rho (up, down):  1.335E-02 0.000E+00

     add environment contribution to local potential

     total cpu time spent up to now is      953.0 secs

     total energy              =    -722.51852837 Ry
     estimated scf accuracy    <       0.00242652 Ry

     total charge of GC-SCF    =       6.72874357 e
     the Fermi energy          =      -5.40638306 eV
                        (error :       0.00238306 eV)
     electrostatic embedding   =      -5.22139052 Ry
     cavitation energy         =       0.04794894 Ry
     electrolyte free energy   =      -0.12127738 Ry
     correction to one-el term =    -198.11991580 Ry

     iteration # 15     ecut=    80.00 Ry     beta= 0.20
     Davidson diagonalization with overlap

---- Real-time Memory Report at c_bands before calling an iterative solver
          1123 MiB given to the printing process from OS
             0 MiB allocation reported by mallinfo(arena+hblkhd)
        207248 MiB available memory on the node where the printing process lives
------------------
     ethr =  1.77E-06,  avg # of iterations = 11.4

     negative rho (up, down):  1.130E-01 0.000E+00

     add environment contribution to local potential

     total cpu time spent up to now is     1006.0 secs

     total energy              =    -722.51318875 Ry
     estimated scf accuracy    <       0.00063280 Ry

     total charge of GC-SCF    =       7.14371957 e
     the Fermi energy          =      -5.26929197 eV
                        (error :       0.13470803 eV)
     electrostatic embedding   =      -4.89826451 Ry
     cavitation energy         =       0.04794894 Ry
     electrolyte free energy   =      -0.11201608 Ry
     correction to one-el term =    -192.71363551 Ry

     iteration # 16     ecut=    80.00 Ry     beta= 0.20
     Davidson diagonalization with overlap

---- Real-time Memory Report at c_bands before calling an iterative solver
          1123 MiB given to the printing process from OS
             0 MiB allocation reported by mallinfo(arena+hblkhd)
        207240 MiB available memory on the node where the printing process lives
------------------
     ethr =  4.62E-07,  avg # of iterations = 16.2

     negative rho (up, down):  1.551E-02 0.000E+00

     add environment contribution to local potential

     total cpu time spent up to now is     1067.0 secs

     total energy              =    -722.50442323 Ry
     estimated scf accuracy    <       0.00091738 Ry

     total charge of GC-SCF    =       7.04644008 e
     the Fermi energy          =      -5.43602541 eV
                        (error :       0.03202541 eV)
     electrostatic embedding   =      -5.53386689 Ry
     cavitation energy         =       0.04794894 Ry
     electrolyte free energy   =      -0.12911777 Ry
     correction to one-el term =    -204.03835858 Ry

     iteration # 17     ecut=    80.00 Ry     beta= 0.20
     Davidson diagonalization with overlap

---- Real-time Memory Report at c_bands before calling an iterative solver
          1123 MiB given to the printing process from OS
             0 MiB allocation reported by mallinfo(arena+hblkhd)
        207239 MiB available memory on the node where the printing process lives
------------------
     ethr =  4.62E-07,  avg # of iterations = 12.5

     negative rho (up, down):  1.709E-02 0.000E+00

     add environment contribution to local potential

     total cpu time spent up to now is     1124.5 secs

     total energy              =    -722.50531881 Ry
     estimated scf accuracy    <       0.00050086 Ry

     total charge of GC-SCF    =       7.00315733 e
     the Fermi energy          =      -5.35947899 eV
                        (error :       0.04452101 eV)
     electrostatic embedding   =      -5.42496691 Ry
     cavitation energy         =       0.04794894 Ry
     electrolyte free energy   =      -0.12505791 Ry
     correction to one-el term =    -202.94406685 Ry

     iteration # 18     ecut=    80.00 Ry     beta= 0.20
     Davidson diagonalization with overlap

---- Real-time Memory Report at c_bands before calling an iterative solver
          1123 MiB given to the printing process from OS
             0 MiB allocation reported by mallinfo(arena+hblkhd)
        207260 MiB available memory on the node where the printing process lives
------------------
     ethr =  3.66E-07,  avg # of iterations = 11.9

     negative rho (up, down):  2.682E-02 0.000E+00

     add environment contribution to local potential

     total cpu time spent up to now is     1179.5 secs

     total energy              =    -722.50650404 Ry
     estimated scf accuracy    <       0.00010581 Ry

     total charge of GC-SCF    =       7.03288611 e
     the Fermi energy          =      -5.47642238 eV
                        (error :       0.07242238 eV)
     electrostatic embedding   =      -5.33548918 Ry
     cavitation energy         =       0.04794894 Ry
     electrolyte free energy   =      -0.12322769 Ry
     correction to one-el term =    -201.66697035 Ry

     iteration # 19     ecut=    80.00 Ry     beta= 0.20
     Davidson diagonalization with overlap

---- Real-time Memory Report at c_bands before calling an iterative solver
          1123 MiB given to the printing process from OS
             0 MiB allocation reported by mallinfo(arena+hblkhd)
        207188 MiB available memory on the node where the printing process lives
------------------
     ethr =  7.73E-08,  avg # of iterations = 13.6

     negative rho (up, down):  5.820E-03 0.000E+00

     add environment contribution to local potential

     total cpu time spent up to now is     1232.8 secs

     total energy              =    -722.50479242 Ry
     estimated scf accuracy    <       0.00008377 Ry

     total charge of GC-SCF    =       6.99967177 e
     the Fermi energy          =      -5.47939719 eV
                        (error :       0.07539719 eV)
     electrostatic embedding   =      -5.37994353 Ry
     cavitation energy         =       0.04794894 Ry
     electrolyte free energy   =      -0.12446882 Ry
     correction to one-el term =    -202.45462824 Ry

     iteration # 20     ecut=    80.00 Ry     beta= 0.20
     Davidson diagonalization with overlap

---- Real-time Memory Report at c_bands before calling an iterative solver
          1123 MiB given to the printing process from OS
             0 MiB allocation reported by mallinfo(arena+hblkhd)
        207176 MiB available memory on the node where the printing process lives
------------------
     ethr =  6.11E-08,  avg # of iterations = 12.1

     negative rho (up, down):  5.435E-03 0.000E+00

     add environment contribution to local potential

     total cpu time spent up to now is     1287.7 secs

     total energy              =    -722.50685737 Ry
     estimated scf accuracy    <       0.00015921 Ry

     total charge of GC-SCF    =       6.88495186 e
     the Fermi energy          =      -5.41008096 eV
                        (error :       0.00608096 eV)
     electrostatic embedding   =      -5.33944883 Ry
     cavitation energy         =       0.04794894 Ry
     electrolyte free energy   =      -0.12308417 Ry
     correction to one-el term =    -201.69776098 Ry

     iteration # 21     ecut=    80.00 Ry     beta= 0.20
     Davidson diagonalization with overlap

---- Real-time Memory Report at c_bands before calling an iterative solver
          1123 MiB given to the printing process from OS
             0 MiB allocation reported by mallinfo(arena+hblkhd)
        207124 MiB available memory on the node where the printing process lives
------------------
     ethr =  6.11E-08,  avg # of iterations = 11.1

     negative rho (up, down):  3.536E-03 0.000E+00

     add environment contribution to local potential

     total cpu time spent up to now is     1342.0 secs

     total energy              =    -722.50722757 Ry
     estimated scf accuracy    <       0.00002463 Ry

     total charge of GC-SCF    =       6.86506073 e
     the Fermi energy          =      -5.41508211 eV
                        (error :       0.01108211 eV)
     electrostatic embedding   =      -5.15158963 Ry
     cavitation energy         =       0.04794894 Ry
     electrolyte free energy   =      -0.11834639 Ry
     correction to one-el term =    -198.24028348 Ry

     iteration # 22     ecut=    80.00 Ry     beta= 0.20
     Davidson diagonalization with overlap

---- Real-time Memory Report at c_bands before calling an iterative solver
          1123 MiB given to the printing process from OS
             0 MiB allocation reported by mallinfo(arena+hblkhd)
        207126 MiB available memory on the node where the printing process lives
------------------
     ethr =  1.80E-08,  avg # of iterations = 10.3

     negative rho (up, down):  1.083E-03 0.000E+00

     add environment contribution to local potential

     total cpu time spent up to now is     1393.9 secs

     total energy              =    -722.50767879 Ry
     estimated scf accuracy    <       0.00001602 Ry

     total charge of GC-SCF    =       6.85224001 e
     the Fermi energy          =      -5.39214889 eV
                        (error :       0.01185111 eV)
     electrostatic embedding   =      -5.12381270 Ry
     cavitation energy         =       0.04794894 Ry
     electrolyte free energy   =      -0.11754533 Ry
     correction to one-el term =    -197.69762173 Ry

     iteration # 23     ecut=    80.00 Ry     beta= 0.20
     Davidson diagonalization with overlap

---- Real-time Memory Report at c_bands before calling an iterative solver
          1123 MiB given to the printing process from OS
             0 MiB allocation reported by mallinfo(arena+hblkhd)
        207098 MiB available memory on the node where the printing process lives
------------------
     ethr =  1.17E-08,  avg # of iterations = 13.3

     negative rho (up, down):  5.603E-04 0.000E+00

     add environment contribution to local potential

     total cpu time spent up to now is     1450.8 secs

     total energy              =    -722.50800887 Ry
     estimated scf accuracy    <       0.00000934 Ry

     total charge of GC-SCF    =       6.86009046 e
     the Fermi energy          =      -5.37132662 eV
                        (error :       0.03267338 eV)
     electrostatic embedding   =      -5.10919393 Ry
     cavitation energy         =       0.04794894 Ry
     electrolyte free energy   =      -0.11704083 Ry
     correction to one-el term =    -197.42772791 Ry

     iteration # 24     ecut=    80.00 Ry     beta= 0.20
     Davidson diagonalization with overlap

---- Real-time Memory Report at c_bands before calling an iterative solver
          1123 MiB given to the printing process from OS
             0 MiB allocation reported by mallinfo(arena+hblkhd)
        207126 MiB available memory on the node where the printing process lives
------------------
     ethr =  6.81E-09,  avg # of iterations = 19.6

     negative rho (up, down):  5.683E-04 0.000E+00

     add environment contribution to local potential

     total cpu time spent up to now is     1519.2 secs

     total energy              =    -722.50806138 Ry
     estimated scf accuracy    <       0.00000585 Ry

     total charge of GC-SCF    =       6.86416625 e
     the Fermi energy          =      -5.37068884 eV
                        (error :       0.03331116 eV)
     electrostatic embedding   =      -5.12215574 Ry
     cavitation energy         =       0.04794894 Ry
     electrolyte free energy   =      -0.11735981 Ry
     correction to one-el term =    -197.67541772 Ry

     iteration # 25     ecut=    80.00 Ry     beta= 0.20
     Davidson diagonalization with overlap

---- Real-time Memory Report at c_bands before calling an iterative solver
          1123 MiB given to the printing process from OS
             0 MiB allocation reported by mallinfo(arena+hblkhd)
        207142 MiB available memory on the node where the printing process lives
------------------
     c_bands:  1 eigenvalues not converged
     ethr =  4.27E-09,  avg # of iterations = 26.6

     negative rho (up, down):  8.035E-04 0.000E+00

     add environment contribution to local potential

     total cpu time spent up to now is     1594.1 secs

     total energy              =    -722.50796715 Ry
     estimated scf accuracy    <       0.00000302 Ry

     total charge of GC-SCF    =       6.86746514 e
     the Fermi energy          =      -5.37710180 eV
                        (error :       0.02689820 eV)
     electrostatic embedding   =      -5.12360247 Ry
     cavitation energy         =       0.04794894 Ry
     electrolyte free energy   =      -0.11751052 Ry
     correction to one-el term =    -197.66740003 Ry

     iteration # 26     ecut=    80.00 Ry     beta= 0.20
     Davidson diagonalization with overlap

---- Real-time Memory Report at c_bands before calling an iterative solver
          1123 MiB given to the printing process from OS
             0 MiB allocation reported by mallinfo(arena+hblkhd)
        207131 MiB available memory on the node where the printing process lives
------------------
     ethr =  2.20E-09,  avg # of iterations = 14.5

     negative rho (up, down):  8.337E-04 0.000E+00

     add environment contribution to local potential

     total cpu time spent up to now is     1650.8 secs

     total energy              =    -722.50792509 Ry
     estimated scf accuracy    <       0.00000191 Ry

     total charge of GC-SCF    =       6.87458196 e
     the Fermi energy          =      -5.37721005 eV
                        (error :       0.02678995 eV)
     electrostatic embedding   =      -5.12732516 Ry
     cavitation energy         =       0.04794894 Ry
     electrolyte free energy   =      -0.11763827 Ry
     correction to one-el term =    -197.71537580 Ry

     iteration # 27     ecut=    80.00 Ry     beta= 0.20
     Davidson diagonalization with overlap

---- Real-time Memory Report at c_bands before calling an iterative solver
          1123 MiB given to the printing process from OS
             0 MiB allocation reported by mallinfo(arena+hblkhd)
        207138 MiB available memory on the node where the printing process lives
------------------
     ethr =  1.40E-09,  avg # of iterations = 10.8

     negative rho (up, down):  5.841E-04 0.000E+00

     add environment contribution to local potential

     total cpu time spent up to now is     1703.2 secs

     total energy              =    -722.50779314 Ry
     estimated scf accuracy    <       0.00000158 Ry

     total charge of GC-SCF    =       6.88456832 e
     the Fermi energy          =      -5.38255513 eV
                        (error :       0.02144487 eV)
     electrostatic embedding   =      -5.13863603 Ry
     cavitation energy         =       0.04794894 Ry
     electrolyte free energy   =      -0.11792793 Ry
     correction to one-el term =    -197.93795934 Ry

     iteration # 28     ecut=    80.00 Ry     beta= 0.20
     Davidson diagonalization with overlap

---- Real-time Memory Report at c_bands before calling an iterative solver
          1123 MiB given to the printing process from OS
             0 MiB allocation reported by mallinfo(arena+hblkhd)
        207164 MiB available memory on the node where the printing process lives
------------------
     ethr =  1.15E-09,  avg # of iterations = 16.1

     negative rho (up, down):  6.115E-04 0.000E+00

     add environment contribution to local potential

     total cpu time spent up to now is     1761.6 secs

     total energy              =    -722.50763083 Ry
     estimated scf accuracy    <       0.00000072 Ry

     total charge of GC-SCF    =       6.89100931 e
     the Fermi energy          =      -5.39017885 eV
                        (error :       0.01382115 eV)
     electrostatic embedding   =      -5.15637239 Ry
     cavitation energy         =       0.04794894 Ry
     electrolyte free energy   =      -0.11834094 Ry
     correction to one-el term =    -198.29679520 Ry

     iteration # 29     ecut=    80.00 Ry     beta= 0.20
     Davidson diagonalization with overlap

---- Real-time Memory Report at c_bands before calling an iterative solver
          1123 MiB given to the printing process from OS
             0 MiB allocation reported by mallinfo(arena+hblkhd)
        207158 MiB available memory on the node where the printing process lives
------------------
     ethr =  5.24E-10,  avg # of iterations = 13.1

     negative rho (up, down):  7.106E-04 0.000E+00

     add environment contribution to local potential

     total cpu time spent up to now is     1818.7 secs

     total energy              =    -722.50754713 Ry
     estimated scf accuracy    <       0.00000051 Ry

     total charge of GC-SCF    =       6.90134219 e
     the Fermi energy          =      -5.39404838 eV
                        (error :       0.00995162 eV)
     electrostatic embedding   =      -5.16623572 Ry
     cavitation energy         =       0.04794894 Ry
     electrolyte free energy   =      -0.11860230 Ry
     correction to one-el term =    -198.47734809 Ry

     iteration # 30     ecut=    80.00 Ry     beta= 0.20
     Davidson diagonalization with overlap

---- Real-time Memory Report at c_bands before calling an iterative solver
          1123 MiB given to the printing process from OS
             0 MiB allocation reported by mallinfo(arena+hblkhd)
        207165 MiB available memory on the node where the printing process lives
------------------
     ethr =  3.71E-10,  avg # of iterations = 22.8

     negative rho (up, down):  6.708E-04 0.000E+00

     add environment contribution to local potential

     total cpu time spent up to now is     1884.1 secs

     total energy              =    -722.50744500 Ry
     estimated scf accuracy    <       0.00000027 Ry

     total charge of GC-SCF    =       6.91200015 e
     the Fermi energy          =      -5.39907470 eV
                        (error :       0.00492530 eV)
     electrostatic embedding   =      -5.18145524 Ry
     cavitation energy         =       0.04794894 Ry
     electrolyte free energy   =      -0.11902024 Ry
     correction to one-el term =    -198.74741822 Ry

     iteration # 31     ecut=    80.00 Ry     beta= 0.20
     Davidson diagonalization with overlap

---- Real-time Memory Report at c_bands before calling an iterative solver
          1123 MiB given to the printing process from OS
             0 MiB allocation reported by mallinfo(arena+hblkhd)
        207074 MiB available memory on the node where the printing process lives
------------------
     ethr =  1.98E-10,  avg # of iterations = 23.0

     negative rho (up, down):  6.620E-04 0.000E+00

     add environment contribution to local potential

     total cpu time spent up to now is     1950.7 secs

     total energy              =    -722.50730336 Ry
     estimated scf accuracy    <       0.00000011 Ry

     total charge of GC-SCF    =       6.91252970 e
     the Fermi energy          =      -5.40500842 eV
                        (error :       0.00100842 eV)
     electrostatic embedding   =      -5.19740003 Ry
     cavitation energy         =       0.04794894 Ry
     electrolyte free energy   =      -0.11945405 Ry
     correction to one-el term =    -199.03746313 Ry

     iteration # 32     ecut=    80.00 Ry     beta= 0.20
     Davidson diagonalization with overlap

---- Real-time Memory Report at c_bands before calling an iterative solver
          1123 MiB given to the printing process from OS
             0 MiB allocation reported by mallinfo(arena+hblkhd)
        207096 MiB available memory on the node where the printing process lives
------------------
     ethr =  7.91E-11,  avg # of iterations = 11.2

     negative rho (up, down):  6.669E-04 0.000E+00

     add environment contribution to local potential

     total cpu time spent up to now is     2002.7 secs

     total energy              =    -722.50729081 Ry
     estimated scf accuracy    <       0.00000009 Ry

     total charge of GC-SCF    =       6.90986491 e
     the Fermi energy          =      -5.40561201 eV
                        (error :       0.00161201 eV)
     electrostatic embedding   =      -5.19826169 Ry
     cavitation energy         =       0.04794894 Ry
     electrolyte free energy   =      -0.11947607 Ry
     correction to one-el term =    -199.05625946 Ry

     iteration # 33     ecut=    80.00 Ry     beta= 0.20
     Davidson diagonalization with overlap

---- Real-time Memory Report at c_bands before calling an iterative solver
          1123 MiB given to the printing process from OS
             0 MiB allocation reported by mallinfo(arena+hblkhd)
        207082 MiB available memory on the node where the printing process lives
------------------
     ethr =  6.69E-11,  avg # of iterations = 24.6

     negative rho (up, down):  6.888E-04 0.000E+00

     add environment contribution to local potential

     total cpu time spent up to now is     2070.5 secs

     total energy              =    -722.50731189 Ry
     estimated scf accuracy    <       0.00000004 Ry

     total charge of GC-SCF    =       6.90967242 e
     the Fermi energy          =      -5.40481079 eV
                        (error :       0.00081079 eV)
     electrostatic embedding   =      -5.19433185 Ry
     cavitation energy         =       0.04794894 Ry
     electrolyte free energy   =      -0.11936809 Ry
     correction to one-el term =    -198.99115173 Ry

     iteration # 34     ecut=    80.00 Ry     beta= 0.20
     Davidson diagonalization with overlap

---- Real-time Memory Report at c_bands before calling an iterative solver
          1123 MiB given to the printing process from OS
             0 MiB allocation reported by mallinfo(arena+hblkhd)
        207054 MiB available memory on the node where the printing process lives
------------------
     ethr =  3.08E-11,  avg # of iterations = 13.6

     negative rho (up, down):  6.810E-04 0.000E+00

     add environment contribution to local potential

     total cpu time spent up to now is     2125.4 secs

     total energy              =    -722.50730916 Ry
     estimated scf accuracy    <       0.00000003 Ry

     total charge of GC-SCF    =       6.91009164 e
     the Fermi energy          =      -5.40501140 eV
                        (error :       0.00101140 eV)
     electrostatic embedding   =      -5.19402321 Ry
     cavitation energy         =       0.04794894 Ry
     electrolyte free energy   =      -0.11936034 Ry
     correction to one-el term =    -198.98734144 Ry

     iteration # 35     ecut=    80.00 Ry     beta= 0.20
     Davidson diagonalization with overlap

---- Real-time Memory Report at c_bands before calling an iterative solver
          1123 MiB given to the printing process from OS
             0 MiB allocation reported by mallinfo(arena+hblkhd)
        207084 MiB available memory on the node where the printing process lives
------------------
     ethr =  2.09E-11,  avg # of iterations = 13.8

     negative rho (up, down):  6.576E-04 0.000E+00

     add environment contribution to local potential

     total cpu time spent up to now is     2179.9 secs

     total energy              =    -722.50730385 Ry
     estimated scf accuracy    <       0.00000002 Ry

     total charge of GC-SCF    =       6.91056474 e
     the Fermi energy          =      -5.40519713 eV
                        (error :       0.00119713 eV)
     electrostatic embedding   =      -5.19467521 Ry
     cavitation energy         =       0.04794894 Ry
     electrolyte free energy   =      -0.11937749 Ry
     correction to one-el term =    -198.99932352 Ry

     iteration # 36     ecut=    80.00 Ry     beta= 0.20
     Davidson diagonalization with overlap

---- Real-time Memory Report at c_bands before calling an iterative solver
          1123 MiB given to the printing process from OS
             0 MiB allocation reported by mallinfo(arena+hblkhd)
        207048 MiB available memory on the node where the printing process lives
------------------
     ethr =  1.52E-11,  avg # of iterations = 19.4

     negative rho (up, down):  6.534E-04 0.000E+00

     add environment contribution to local potential

     total cpu time spent up to now is     2241.6 secs

     total energy              =    -722.50730314 Ry
     estimated scf accuracy    <          8.7E-09 Ry

     total charge of GC-SCF    =       6.91043001 e
     the Fermi energy          =      -5.40513678 eV
                        (error :       0.00113678 eV)
     electrostatic embedding   =      -5.19540787 Ry
     cavitation energy         =       0.04794894 Ry
     electrolyte free energy   =      -0.11939673 Ry
     correction to one-el term =    -199.01127754 Ry

     iteration # 37     ecut=    80.00 Ry     beta= 0.20
     Davidson diagonalization with overlap

---- Real-time Memory Report at c_bands before calling an iterative solver
          1123 MiB given to the printing process from OS
             0 MiB allocation reported by mallinfo(arena+hblkhd)
        207058 MiB available memory on the node where the printing process lives
------------------
     ethr =  6.38E-12,  avg # of iterations = 12.6

     negative rho (up, down):  6.414E-04 0.000E+00

     add environment contribution to local potential

     total cpu time spent up to now is     2296.8 secs

     total energy              =    -722.50730757 Ry
     estimated scf accuracy    <          4.8E-09 Ry

     total charge of GC-SCF    =       6.90974695 e
     the Fermi energy          =      -5.40498292 eV
                        (error :       0.00098292 eV)
     electrostatic embedding   =      -5.19518304 Ry
     cavitation energy         =       0.04794894 Ry
     electrolyte free energy   =      -0.11939109 Ry
     correction to one-el term =    -199.00596815 Ry

     iteration # 38     ecut=    80.00 Ry     beta= 0.20
     Davidson diagonalization with overlap

---- Real-time Memory Report at c_bands before calling an iterative solver
          1123 MiB given to the printing process from OS
             0 MiB allocation reported by mallinfo(arena+hblkhd)
        207067 MiB available memory on the node where the printing process lives
------------------
     ethr =  3.48E-12,  avg # of iterations = 24.5

     negative rho (up, down):  6.399E-04 0.000E+00

     add environment contribution to local potential

     total cpu time spent up to now is     2364.4 secs

     total energy              =    -722.50731638 Ry
     estimated scf accuracy    <          1.7E-09 Ry

     total charge of GC-SCF    =       6.90964270 e
     the Fermi energy          =      -5.40462261 eV
                        (error :       0.00062261 eV)
     electrostatic embedding   =      -5.19424620 Ry
     cavitation energy         =       0.04794894 Ry
     electrolyte free energy   =      -0.11936349 Ry
     correction to one-el term =    -198.98926357 Ry

     iteration # 39     ecut=    80.00 Ry     beta= 0.20
     Davidson diagonalization with overlap

---- Real-time Memory Report at c_bands before calling an iterative solver
          1123 MiB given to the printing process from OS
             0 MiB allocation reported by mallinfo(arena+hblkhd)
        207077 MiB available memory on the node where the printing process lives
------------------
     ethr =  1.25E-12,  avg # of iterations = 24.2

     negative rho (up, down):  6.391E-04 0.000E+00

     add environment contribution to local potential

     total cpu time spent up to now is     2437.7 secs

     total energy              =    -722.50731742 Ry
     estimated scf accuracy    <          1.3E-09 Ry

     total charge of GC-SCF    =       6.90958110 e
     the Fermi energy          =      -5.40458270 eV
                        (error :       0.00058270 eV)
     electrostatic embedding   =      -5.19410674 Ry
     cavitation energy         =       0.04794894 Ry
     electrolyte free energy   =      -0.11935929 Ry
     correction to one-el term =    -198.98683534 Ry

     iteration # 40     ecut=    80.00 Ry     beta= 0.20
     Davidson diagonalization with overlap

---- Real-time Memory Report at c_bands before calling an iterative solver
          1123 MiB given to the printing process from OS
             0 MiB allocation reported by mallinfo(arena+hblkhd)
        207093 MiB available memory on the node where the printing process lives
------------------
     ethr =  9.19E-13,  avg # of iterations = 14.0

     negative rho (up, down):  6.433E-04 0.000E+00

     add environment contribution to local potential

     total cpu time spent up to now is     2493.2 secs

     total energy              =    -722.50731837 Ry
     estimated scf accuracy    <          9.2E-10 Ry

     total charge of GC-SCF    =       6.90922915 e
     the Fermi energy          =      -5.40455256 eV
                        (error :       0.00055256 eV)
     electrostatic embedding   =      -5.19401987 Ry
     cavitation energy         =       0.04794894 Ry
     electrolyte free energy   =      -0.11935679 Ry
     correction to one-el term =    -198.98512852 Ry

     iteration # 41     ecut=    80.00 Ry     beta= 0.20
     Davidson diagonalization with overlap

---- Real-time Memory Report at c_bands before calling an iterative solver
          1123 MiB given to the printing process from OS
             0 MiB allocation reported by mallinfo(arena+hblkhd)
        207096 MiB available memory on the node where the printing process lives
------------------
     ethr =  6.69E-13,  avg # of iterations = 23.4

     negative rho (up, down):  6.446E-04 0.000E+00

     add environment contribution to local potential

     total cpu time spent up to now is     2560.7 secs

     total energy              =    -722.50732310 Ry
     estimated scf accuracy    <          4.7E-10 Ry

     total charge of GC-SCF    =       6.90906249 e
     the Fermi energy          =      -5.40437889 eV
                        (error :       0.00037889 eV)
     electrostatic embedding   =      -5.19346497 Ry
     cavitation energy         =       0.04794894 Ry
     electrolyte free energy   =      -0.11934239 Ry
     correction to one-el term =    -198.97494425 Ry

     iteration # 42     ecut=    80.00 Ry     beta= 0.20
     Davidson diagonalization with overlap

---- Real-time Memory Report at c_bands before calling an iterative solver
          1123 MiB given to the printing process from OS
             0 MiB allocation reported by mallinfo(arena+hblkhd)
        207051 MiB available memory on the node where the printing process lives
------------------
     ethr =  3.39E-13,  avg # of iterations = 11.6

     negative rho (up, down):  6.428E-04 0.000E+00

     add environment contribution to local potential

     total cpu time spent up to now is     2616.3 secs

     total energy              =    -722.50732592 Ry
     estimated scf accuracy    <          3.1E-10 Ry

     total charge of GC-SCF    =       6.90892313 e
     the Fermi energy          =      -5.40426969 eV
                        (error :       0.00026969 eV)
     electrostatic embedding   =      -5.19318698 Ry
     cavitation energy         =       0.04794894 Ry
     electrolyte free energy   =      -0.11933551 Ry
     correction to one-el term =    -198.96950247 Ry

     iteration # 43     ecut=    80.00 Ry     beta= 0.20
     Davidson diagonalization with overlap

---- Real-time Memory Report at c_bands before calling an iterative solver
          1123 MiB given to the printing process from OS
             0 MiB allocation reported by mallinfo(arena+hblkhd)
        207016 MiB available memory on the node where the printing process lives
------------------
     ethr =  2.24E-13,  avg # of iterations = 18.4

     negative rho (up, down):  6.398E-04 0.000E+00

     add environment contribution to local potential

     total cpu time spent up to now is     2678.3 secs

     total energy              =    -722.50732870 Ry
     estimated scf accuracy    <          1.8E-10 Ry

     total charge of GC-SCF    =       6.90877110 e
     the Fermi energy          =      -5.40415328 eV
                        (error :       0.00015328 eV)
     electrostatic embedding   =      -5.19295017 Ry
     cavitation energy         =       0.04794894 Ry
     electrolyte free energy   =      -0.11932974 Ry
     correction to one-el term =    -198.96468798 Ry

     iteration # 44     ecut=    80.00 Ry     beta= 0.20
     Davidson diagonalization with overlap

---- Real-time Memory Report at c_bands before calling an iterative solver
          1123 MiB given to the printing process from OS
             0 MiB allocation reported by mallinfo(arena+hblkhd)
        207031 MiB available memory on the node where the printing process lives
------------------
     ethr =  1.33E-13,  avg # of iterations = 19.1

     negative rho (up, down):  6.397E-04 0.000E+00

     add environment contribution to local potential

     total cpu time spent up to now is     2739.9 secs

     total energy              =    -722.50732986 Ry
     estimated scf accuracy    <          5.4E-11 Ry

     total charge of GC-SCF    =       6.90870886 e
     the Fermi energy          =      -5.40411209 eV
                        (error :       0.00011209 eV)
     electrostatic embedding   =      -5.19272494 Ry
     cavitation energy         =       0.04794894 Ry
     electrolyte free energy   =      -0.11932357 Ry
     correction to one-el term =    -198.96080785 Ry

     iteration # 45     ecut=    80.00 Ry     beta= 0.20
     Davidson diagonalization with overlap

---- Real-time Memory Report at c_bands before calling an iterative solver
          1123 MiB given to the printing process from OS
             0 MiB allocation reported by mallinfo(arena+hblkhd)
        207037 MiB available memory on the node where the printing process lives
------------------
     ethr =  1.00E-13,  avg # of iterations = 14.6

     negative rho (up, down):  6.405E-04 0.000E+00

     add environment contribution to local potential

     total cpu time spent up to now is     2796.7 secs

     total energy              =    -722.50733068 Ry
     estimated scf accuracy    <          3.9E-11 Ry

     total charge of GC-SCF    =       6.90862622 e
     the Fermi energy          =      -5.40407795 eV
                        (error :       0.00007795 eV)
     electrostatic embedding   =      -5.19263067 Ry
     cavitation energy         =       0.04794894 Ry
     electrolyte free energy   =      -0.11932103 Ry
     correction to one-el term =    -198.95907723 Ry

     iteration # 46     ecut=    80.00 Ry     beta= 0.20
     Davidson diagonalization with overlap

---- Real-time Memory Report at c_bands before calling an iterative solver
          1123 MiB given to the printing process from OS
             0 MiB allocation reported by mallinfo(arena+hblkhd)
        207006 MiB available memory on the node where the printing process lives
------------------
     ethr =  1.00E-13,  avg # of iterations = 15.6

     negative rho (up, down):  6.406E-04 0.000E+00

     add environment contribution to local potential

     total cpu time spent up to now is     2856.3 secs

     total energy              =    -722.50733212 Ry
     estimated scf accuracy    <          2.1E-11 Ry

     total charge of GC-SCF    =       6.90860673 e
     the Fermi energy          =      -5.40401398 eV
                        (error :       0.00001398 eV)
     electrostatic embedding   =      -5.19250431 Ry
     cavitation energy         =       0.04794894 Ry
     electrolyte free energy   =      -0.11931765 Ry
     correction to one-el term =    -198.95667594 Ry

     iteration # 47     ecut=    80.00 Ry     beta= 0.20
     Davidson diagonalization with overlap

---- Real-time Memory Report at c_bands before calling an iterative solver
          1123 MiB given to the printing process from OS
             0 MiB allocation reported by mallinfo(arena+hblkhd)
        207025 MiB available memory on the node where the printing process lives
------------------
     ethr =  1.00E-13,  avg # of iterations = 12.9

     negative rho (up, down):  6.405E-04 0.000E+00

     add environment contribution to local potential

     total cpu time spent up to now is     2908.3 secs

     total energy              =    -722.50733245 Ry
     estimated scf accuracy    <          1.0E-11 Ry

     total charge of GC-SCF    =       6.90860222 e
     the Fermi energy          =      -5.40400010 eV
                        (error :       0.00000010 eV)
     electrostatic embedding   =      -5.19247595 Ry
     cavitation energy         =       0.04794894 Ry
     electrolyte free energy   =      -0.11931686 Ry
     correction to one-el term =    -198.95615253 Ry

     iteration # 48     ecut=    80.00 Ry     beta= 0.20
     Davidson diagonalization with overlap

---- Real-time Memory Report at c_bands before calling an iterative solver
          1123 MiB given to the printing process from OS
             0 MiB allocation reported by mallinfo(arena+hblkhd)
        207012 MiB available memory on the node where the printing process lives
------------------
     ethr =  1.00E-13,  avg # of iterations = 10.4

     negative rho (up, down):  6.404E-04 0.000E+00

     add environment contribution to local potential

     total cpu time spent up to now is     2956.7 secs

     total energy              =    -722.50733255 Ry
     estimated scf accuracy    <          4.9E-12 Ry

     total charge of GC-SCF    =       6.90859737 e
     the Fermi energy          =      -5.40399600 eV
                        (error :       0.00000400 eV)
     electrostatic embedding   =      -5.19246889 Ry
     cavitation energy         =       0.04794894 Ry
     electrolyte free energy   =      -0.11931667 Ry
     correction to one-el term =    -198.95602838 Ry

     iteration # 49     ecut=    80.00 Ry     beta= 0.20
     Davidson diagonalization with overlap

---- Real-time Memory Report at c_bands before calling an iterative solver
          1123 MiB given to the printing process from OS
             0 MiB allocation reported by mallinfo(arena+hblkhd)
        207043 MiB available memory on the node where the printing process lives
------------------
     ethr =  1.00E-13,  avg # of iterations =  8.9

     negative rho (up, down):  6.405E-04 0.000E+00

     add environment contribution to local potential

     total cpu time spent up to now is     3003.9 secs

     total energy              =    -722.50733267 Ry
     estimated scf accuracy    <          3.3E-12 Ry

     total charge of GC-SCF    =       6.90860465 e
     the Fermi energy          =      -5.40399110 eV
                        (error :       0.00000890 eV)
     electrostatic embedding   =      -5.19245982 Ry
     cavitation energy         =       0.04794894 Ry
     electrolyte free energy   =      -0.11931647 Ry
     correction to one-el term =    -198.95584353 Ry

     iteration # 50     ecut=    80.00 Ry     beta= 0.20
     Davidson diagonalization with overlap

---- Real-time Memory Report at c_bands before calling an iterative solver
          1123 MiB given to the printing process from OS
             0 MiB allocation reported by mallinfo(arena+hblkhd)
        207043 MiB available memory on the node where the printing process lives
------------------
     ethr =  1.00E-13,  avg # of iterations = 11.1

     negative rho (up, down):  6.404E-04 0.000E+00

     add environment contribution to local potential

     total cpu time spent up to now is     3052.6 secs

     total energy              =    -722.50733257 Ry
     estimated scf accuracy    <          1.4E-12 Ry

     total charge of GC-SCF    =       6.90860663 e
     the Fermi energy          =      -5.40399604 eV
                        (error :       0.00000396 eV)
     electrostatic embedding   =      -5.19247011 Ry
     cavitation energy         =       0.04794894 Ry
     electrolyte free energy   =      -0.11931677 Ry
     correction to one-el term =    -198.95602324 Ry

     iteration # 51     ecut=    80.00 Ry     beta= 0.20
     Davidson diagonalization with overlap

---- Real-time Memory Report at c_bands before calling an iterative solver
          1123 MiB given to the printing process from OS
             0 MiB allocation reported by mallinfo(arena+hblkhd)
        206973 MiB available memory on the node where the printing process lives
------------------
     ethr =  1.00E-13,  avg # of iterations =  6.6

     negative rho (up, down):  6.403E-04 0.000E+00

     add environment contribution to local potential

     total cpu time spent up to now is     3096.9 secs

     total energy              =    -722.50733254 Ry
     estimated scf accuracy    <          1.0E-12 Ry

     total charge of GC-SCF    =       6.90861581 e
     the Fermi energy          =      -5.40399713 eV
                        (error :       0.00000287 eV)
     electrostatic embedding   =      -5.19247338 Ry
     cavitation energy         =       0.04794894 Ry
     electrolyte free energy   =      -0.11931685 Ry
     correction to one-el term =    -198.95608042 Ry

     iteration # 52     ecut=    80.00 Ry     beta= 0.20
     Davidson diagonalization with overlap

---- Real-time Memory Report at c_bands before calling an iterative solver
          1123 MiB given to the printing process from OS
             0 MiB allocation reported by mallinfo(arena+hblkhd)
        207021 MiB available memory on the node where the printing process lives
------------------
     ethr =  1.00E-13,  avg # of iterations = 10.2

     negative rho (up, down):  6.404E-04 0.000E+00

     add environment contribution to local potential

     total cpu time spent up to now is     3144.5 secs

     total energy              =    -722.50733244 Ry
     estimated scf accuracy    <          5.5E-13 Ry

     total charge of GC-SCF    =       6.90861597 e
     the Fermi energy          =      -5.40400052 eV
                        (error :       0.00000052 eV)
     electrostatic embedding   =      -5.19248755 Ry
     cavitation energy         =       0.04794894 Ry
     electrolyte free energy   =      -0.11931722 Ry
     correction to one-el term =    -198.95633020 Ry

     iteration # 53     ecut=    80.00 Ry     beta= 0.20
     Davidson diagonalization with overlap

---- Real-time Memory Report at c_bands before calling an iterative solver
          1123 MiB given to the printing process from OS
             0 MiB allocation reported by mallinfo(arena+hblkhd)
        207005 MiB available memory on the node where the printing process lives
------------------
     ethr =  1.00E-13,  avg # of iterations =  3.9

     negative rho (up, down):  6.404E-04 0.000E+00

     add environment contribution to local potential

     total cpu time spent up to now is     3186.3 secs

     total energy              =    -722.50733243 Ry
     estimated scf accuracy    <          3.8E-13 Ry

     total charge of GC-SCF    =       6.90861463 e
     the Fermi energy          =      -5.40400115 eV
                        (error :       0.00000115 eV)
     electrostatic embedding   =      -5.19248800 Ry
     cavitation energy         =       0.04794894 Ry
     electrolyte free energy   =      -0.11931723 Ry
     correction to one-el term =    -198.95634452 Ry

     iteration # 54     ecut=    80.00 Ry     beta= 0.20
     Davidson diagonalization with overlap

---- Real-time Memory Report at c_bands before calling an iterative solver
          1123 MiB given to the printing process from OS
             0 MiB allocation reported by mallinfo(arena+hblkhd)
        207026 MiB available memory on the node where the printing process lives
------------------
     ethr =  1.00E-13,  avg # of iterations =  9.6

     negative rho (up, down):  6.404E-04 0.000E+00

     add environment contribution to local potential

     total cpu time spent up to now is     3232.8 secs

     total energy              =    -722.50733242 Ry
     estimated scf accuracy    <          2.4E-13 Ry

     total charge of GC-SCF    =       6.90861319 e
     the Fermi energy          =      -5.40400170 eV
                        (error :       0.00000170 eV)
     electrostatic embedding   =      -5.19248629 Ry
     cavitation energy         =       0.04794894 Ry
     electrolyte free energy   =      -0.11931717 Ry
     correction to one-el term =    -198.95632809 Ry

     iteration # 55     ecut=    80.00 Ry     beta= 0.20
     Davidson diagonalization with overlap

---- Real-time Memory Report at c_bands before calling an iterative solver
          1123 MiB given to the printing process from OS
             0 MiB allocation reported by mallinfo(arena+hblkhd)
        207022 MiB available memory on the node where the printing process lives
------------------
     ethr =  1.00E-13,  avg # of iterations =  3.1

     negative rho (up, down):  6.405E-04 0.000E+00

     add environment contribution to local potential

     total cpu time spent up to now is     3274.3 secs

     total energy              =    -722.50733243 Ry
[...]
     atom   30 type  1   force =     0.00000004    0.00002299  -12.17735874
     atom   31 type  1   force =     0.00000000    0.00002615   12.17714668
     atom   32 type  1   force =    -0.00000958   -0.00000204    3.48374726
     atom   33 type  1   force =     0.00000003   -0.00001154    8.12683299
     atom   34 type  1   force =    -0.00000000    0.00001690    6.30661452
     atom   35 type  1   force =    -0.00000386    0.00000834   10.12427639
     atom   36 type  1   force =     0.00000005    0.00001590    0.98484717
     atom   37 type  1   force =     0.00002081    0.00000798   -0.98478360
     atom   38 type  1   force =     0.00000004   -0.00003642  -10.12437168
     atom   39 type  1   force =     0.00001288   -0.00000594   -6.30654991
     atom   40 type  1   force =    -0.00000885   -0.00001242   -8.12679426
     atom   41 type  1   force =     0.00000003   -0.00000439   -3.48352405
     atom   42 type  1   force =     0.00000242   -0.00002644  -12.17734656
     atom   43 type  1   force =    -0.00001225   -0.00001811   12.17714404
     atom   44 type  1   force =     0.00000003    0.00000617    3.48360323
     atom   45 type  1   force =     0.00001027    0.00000313    8.12682050
     atom   46 type  1   force =    -0.00001406   -0.00000243    6.30665296
     atom   47 type  1   force =     0.00000002   -0.00000595   10.12414257
     atom   48 type  1   force =    -0.00001631   -0.00000492    0.98482110
     The local contribution  to forces
     atom    1 type  1   force =     0.00000058   -0.00000229    0.99650258
     atom    2 type  1   force =    -0.00000669   -0.00004903   10.32094732
     atom    3 type  1   force =     0.00000196   -0.00000893    6.38586751
     atom    4 type  1   force =    -0.00000058   -0.00000305    8.27688792
     atom    5 type  1   force =     0.00001231    0.00000480    3.52901697
     atom    6 type  1   force =    -0.00000328   -0.00002698   12.09679346
     atom    7 type  1   force =    -0.00000000   -0.00001310  -12.09654559
     atom    8 type  1   force =    -0.00000781    0.00000171   -3.52948099
     atom    9 type  1   force =     0.00000196    0.00000140   -8.27683140
     atom   10 type  1   force =     0.00000058    0.00000267   -6.38604522
     atom   11 type  1   force =    -0.00000269   -0.00001086  -10.32109903
     atom   12 type  1   force =     0.00000138    0.00000769   -0.99654079
     atom   13 type  1   force =     0.00002321   -0.00000794    0.99639620
     atom   14 type  1   force =     0.00000313    0.00004950   10.32108728
     atom   15 type  1   force =     0.00001703    0.00000722    6.38585392
     atom   16 type  1   force =    -0.00000774    0.00001357    8.27670112
     atom   17 type  1   force =     0.00000196   -0.00001422    3.52914101
     atom   18 type  1   force =     0.00000607    0.00003045   12.09682010
     atom   19 type  1   force =    -0.00001018    0.00001883  -12.09654844
     atom   20 type  1   force =     0.00000255    0.00000214   -3.52937328
     atom   21 type  1   force =     0.00001493   -0.00000357   -8.27682148
     atom   22 type  1   force =    -0.00001295    0.00000340   -6.38606008
     atom   23 type  1   force =     0.00000255    0.00001310  -10.32100715
     atom   24 type  1   force =    -0.00001300    0.00000546   -0.99652852
     atom   25 type  1   force =     0.00000254    0.00001717    0.99647572
     atom   26 type  1   force =     0.00001063   -0.00004787   10.32093832
     atom   27 type  1   force =     0.00000392   -0.00000205    6.38583049
     atom   28 type  1   force =     0.00000312   -0.00002197    8.27683466
     atom   29 type  1   force =    -0.00000838    0.00000480    3.52901214
     atom   30 type  1   force =     0.00000861   -0.00002398   12.09680184
     atom   31 type  1   force =     0.00000256   -0.00002678  -12.09654963
     atom   32 type  1   force =     0.00001174    0.00000171   -3.52948402
     atom   33 type  1   force =     0.00000334    0.00001309   -8.27683818
     atom   34 type  1   force =     0.00000254   -0.00001834   -6.38602100
     atom   35 type  1   force =     0.00000663   -0.00001028  -10.32110143
     atom   36 type  1   force =     0.00000392   -0.00001592   -0.99655476
     atom   37 type  1   force =    -0.00001872   -0.00000852    0.99639620
     atom   38 type  1   force =     0.00000277    0.00004358   10.32109989
     atom   39 type  1   force =    -0.00000977    0.00000664    6.38585331
     atom   40 type  1   force =     0.00001224    0.00001241    8.27670051
     atom   41 type  1   force =     0.00000335    0.00000481    3.52916453
     atom   42 type  1   force =     0.00000123    0.00002402   12.09681951
     atom   43 type  1   force =     0.00001470    0.00001824  -12.09654786
     atom   44 type  1   force =     0.00000335   -0.00000573   -3.52933571
     atom   45 type  1   force =    -0.00000768   -0.00000357   -8.27682148
     atom   46 type  1   force =     0.00001687    0.00000340   -6.38605947
     atom   47 type  1   force =     0.00000335    0.00000819  -10.32095994
     atom   48 type  1   force =     0.00001969    0.00000487   -0.99652852
     The core correction contribution to forces
     atom    1 type  1   force =     0.00000000    0.00000000    0.00000000
     atom    2 type  1   force =     0.00000000    0.00000000    0.00000000
     atom    3 type  1   force =     0.00000000    0.00000000    0.00000000
     atom    4 type  1   force =     0.00000000    0.00000000    0.00000000
     atom    5 type  1   force =     0.00000000    0.00000000    0.00000000
     atom    6 type  1   force =     0.00000000    0.00000000    0.00000000
     atom    7 type  1   force =     0.00000000    0.00000000    0.00000000
     atom    8 type  1   force =     0.00000000    0.00000000    0.00000000
     atom    9 type  1   force =     0.00000000    0.00000000    0.00000000
     atom   10 type  1   force =     0.00000000    0.00000000    0.00000000
     atom   11 type  1   force =     0.00000000    0.00000000    0.00000000
     atom   12 type  1   force =     0.00000000    0.00000000    0.00000000
     atom   13 type  1   force =     0.00000000    0.00000000    0.00000000
     atom   14 type  1   force =     0.00000000    0.00000000    0.00000000
     atom   15 type  1   force =     0.00000000    0.00000000    0.00000000
     atom   16 type  1   force =     0.00000000    0.00000000    0.00000000
     atom   17 type  1   force =     0.00000000    0.00000000    0.00000000
     atom   18 type  1   force =     0.00000000    0.00000000    0.00000000
     atom   19 type  1   force =     0.00000000    0.00000000    0.00000000
     atom   20 type  1   force =     0.00000000    0.00000000    0.00000000
     atom   21 type  1   force =     0.00000000    0.00000000    0.00000000
     atom   22 type  1   force =     0.00000000    0.00000000    0.00000000
     atom   23 type  1   force =     0.00000000    0.00000000    0.00000000
     atom   24 type  1   force =     0.00000000    0.00000000    0.00000000
     atom   25 type  1   force =     0.00000000    0.00000000    0.00000000
     atom   26 type  1   force =     0.00000000    0.00000000    0.00000000
     atom   27 type  1   force =     0.00000000    0.00000000    0.00000000
     atom   28 type  1   force =     0.00000000    0.00000000    0.00000000
     atom   29 type  1   force =     0.00000000    0.00000000    0.00000000
     atom   30 type  1   force =     0.00000000    0.00000000    0.00000000
     atom   31 type  1   force =     0.00000000    0.00000000    0.00000000
     atom   32 type  1   force =     0.00000000    0.00000000    0.00000000
     atom   33 type  1   force =     0.00000000    0.00000000    0.00000000
     atom   34 type  1   force =     0.00000000    0.00000000    0.00000000
     atom   35 type  1   force =     0.00000000    0.00000000    0.00000000
     atom   36 type  1   force =     0.00000000    0.00000000    0.00000000
     atom   37 type  1   force =     0.00000000    0.00000000    0.00000000
     atom   38 type  1   force =     0.00000000    0.00000000    0.00000000
     atom   39 type  1   force =     0.00000000    0.00000000    0.00000000
     atom   40 type  1   force =     0.00000000    0.00000000    0.00000000
     atom   41 type  1   force =     0.00000000    0.00000000    0.00000000
     atom   42 type  1   force =     0.00000000    0.00000000    0.00000000
     atom   43 type  1   force =     0.00000000    0.00000000    0.00000000
     atom   44 type  1   force =     0.00000000    0.00000000    0.00000000
     atom   45 type  1   force =     0.00000000    0.00000000    0.00000000
     atom   46 type  1   force =     0.00000000    0.00000000    0.00000000
     atom   47 type  1   force =     0.00000000    0.00000000    0.00000000
     atom   48 type  1   force =     0.00000000    0.00000000    0.00000000
     The Hubbard contrib.    to forces
     atom    1 type  1   force =     0.00000000    0.00000000    0.00000000
     atom    2 type  1   force =     0.00000000    0.00000000    0.00000000
     atom    3 type  1   force =     0.00000000    0.00000000    0.00000000
     atom    4 type  1   force =     0.00000000    0.00000000    0.00000000
     atom    5 type  1   force =     0.00000000    0.00000000    0.00000000
     atom    6 type  1   force =     0.00000000    0.00000000    0.00000000
     atom    7 type  1   force =     0.00000000    0.00000000    0.00000000
     atom    8 type  1   force =     0.00000000    0.00000000    0.00000000
     atom    9 type  1   force =     0.00000000    0.00000000    0.00000000
     atom   10 type  1   force =     0.00000000    0.00000000    0.00000000
     atom   11 type  1   force =     0.00000000    0.00000000    0.00000000
     atom   12 type  1   force =     0.00000000    0.00000000    0.00000000
     atom   13 type  1   force =     0.00000000    0.00000000    0.00000000
     atom   14 type  1   force =     0.00000000    0.00000000    0.00000000
     atom   15 type  1   force =     0.00000000    0.00000000    0.00000000
     atom   16 type  1   force =     0.00000000    0.00000000    0.00000000
     atom   17 type  1   force =     0.00000000    0.00000000    0.00000000
     atom   18 type  1   force =     0.00000000    0.00000000    0.00000000
     atom   19 type  1   force =     0.00000000    0.00000000    0.00000000
     atom   20 type  1   force =     0.00000000    0.00000000    0.00000000
     atom   21 type  1   force =     0.00000000    0.00000000    0.00000000
     atom   22 type  1   force =     0.00000000    0.00000000    0.00000000
     atom   23 type  1   force =     0.00000000    0.00000000    0.00000000
     atom   24 type  1   force =     0.00000000    0.00000000    0.00000000
     atom   25 type  1   force =     0.00000000    0.00000000    0.00000000
     atom   26 type  1   force =     0.00000000    0.00000000    0.00000000
     atom   27 type  1   force =     0.00000000    0.00000000    0.00000000
     atom   28 type  1   force =     0.00000000    0.00000000    0.00000000
     atom   29 type  1   force =     0.00000000    0.00000000    0.00000000
     atom   30 type  1   force =     0.00000000    0.00000000    0.00000000
     atom   31 type  1   force =     0.00000000    0.00000000    0.00000000
     atom   32 type  1   force =     0.00000000    0.00000000    0.00000000
     atom   33 type  1   force =     0.00000000    0.00000000    0.00000000
     atom   34 type  1   force =     0.00000000    0.00000000    0.00000000
     atom   35 type  1   force =     0.00000000    0.00000000    0.00000000
     atom   36 type  1   force =     0.00000000    0.00000000    0.00000000
     atom   37 type  1   force =     0.00000000    0.00000000    0.00000000
     atom   38 type  1   force =     0.00000000    0.00000000    0.00000000
     atom   39 type  1   force =     0.00000000    0.00000000    0.00000000
     atom   40 type  1   force =     0.00000000    0.00000000    0.00000000
     atom   41 type  1   force =     0.00000000    0.00000000    0.00000000
     atom   42 type  1   force =     0.00000000    0.00000000    0.00000000
     atom   43 type  1   force =     0.00000000    0.00000000    0.00000000
     atom   44 type  1   force =     0.00000000    0.00000000    0.00000000
     atom   45 type  1   force =     0.00000000    0.00000000    0.00000000
     atom   46 type  1   force =     0.00000000    0.00000000    0.00000000
     atom   47 type  1   force =     0.00000000    0.00000000    0.00000000
     atom   48 type  1   force =     0.00000000    0.00000000    0.00000000
     The SCF correction term to forces
     atom    1 type  1   force =    -0.00000000    0.00000000    0.00000000
     atom    2 type  1   force =     0.00000000    0.00000000    0.00000000
     atom    3 type  1   force =     0.00000000   -0.00000000   -0.00000000
     atom    4 type  1   force =    -0.00000000    0.00000000   -0.00000000
     atom    5 type  1   force =    -0.00000000    0.00000000    0.00000000
     atom    6 type  1   force =     0.00000000    0.00000000    0.00000001
     atom    7 type  1   force =    -0.00000000    0.00000000   -0.00000001
     atom    8 type  1   force =    -0.00000000   -0.00000000    0.00000000
     atom    9 type  1   force =    -0.00000000   -0.00000000    0.00000000
     atom   10 type  1   force =     0.00000000    0.00000000    0.00000000
     atom   11 type  1   force =    -0.00000000    0.00000000   -0.00000000
     atom   12 type  1   force =    -0.00000000   -0.00000000   -0.00000000
     atom   13 type  1   force =    -0.00000000   -0.00000000    0.00000000
     atom   14 type  1   force =     0.00000000   -0.00000000    0.00000000
     atom   15 type  1   force =     0.00000000    0.00000000   -0.00000000
     atom   16 type  1   force =    -0.00000000   -0.00000000    0.00000000
     atom   17 type  1   force =    -0.00000000   -0.00000000   -0.00000000
     atom   18 type  1   force =     0.00000000   -0.00000000    0.00000001
     atom   19 type  1   force =    -0.00000000   -0.00000000   -0.00000001
     atom   20 type  1   force =     0.00000000   -0.00000000    0.00000000
     atom   21 type  1   force =     0.00000000    0.00000000    0.00000000
     atom   22 type  1   force =    -0.00000000   -0.00000000    0.00000000
     atom   23 type  1   force =     0.00000000   -0.00000000   -0.00000000
     atom   24 type  1   force =     0.00000000    0.00000000   -0.00000000
     atom   25 type  1   force =    -0.00000000    0.00000000    0.00000000
     atom   26 type  1   force =    -0.00000000    0.00000000    0.00000000
     atom   27 type  1   force =     0.00000000    0.00000000   -0.00000000
     atom   28 type  1   force =     0.00000000    0.00000000   -0.00000000
     atom   29 type  1   force =     0.00000000    0.00000000    0.00000000
     atom   30 type  1   force =    -0.00000000    0.00000000    0.00000001
     atom   31 type  1   force =    -0.00000000    0.00000000   -0.00000001
     atom   32 type  1   force =     0.00000000   -0.00000000    0.00000000
     atom   33 type  1   force =    -0.00000000   -0.00000000    0.00000000
     atom   34 type  1   force =     0.00000000    0.00000000    0.00000000
     atom   35 type  1   force =     0.00000000    0.00000000   -0.00000000
     atom   36 type  1   force =     0.00000000    0.00000000   -0.00000000
     atom   37 type  1   force =     0.00000000   -0.00000000    0.00000000
     atom   38 type  1   force =    -0.00000000   -0.00000000    0.00000000
     atom   39 type  1   force =    -0.00000000    0.00000000   -0.00000000
     atom   40 type  1   force =     0.00000000   -0.00000000    0.00000000
     atom   41 type  1   force =     0.00000000   -0.00000000    0.00000000
     atom   42 type  1   force =    -0.00000000   -0.00000000    0.00000001
     atom   43 type  1   force =     0.00000000   -0.00000000   -0.00000001
     atom   44 type  1   force =     0.00000000   -0.00000000    0.00000000
     atom   45 type  1   force =    -0.00000000    0.00000000    0.00000000
     atom   46 type  1   force =     0.00000000   -0.00000000    0.00000000
     atom   47 type  1   force =    -0.00000000   -0.00000000   -0.00000000
     atom   48 type  1   force =    -0.00000000    0.00000000   -0.00000000

     Total force =     0.016177     Total SCF correction =     0.000000

     Writing all to output data dir ./Li/Lithium.save/ :
     XML data file
     init_run     :     28.13s CPU     36.28s WALL (       1 calls)
     electrons    :   3407.92s CPU   3976.63s WALL (       1 calls)
     forces       :     88.75s CPU     91.66s WALL (       1 calls)

     Called by init_run:
     wfcinit      :      2.84s CPU      3.37s WALL (       1 calls)
     wfcinit:wfcr :      2.57s CPU      3.09s WALL (       8 calls)
     potinit      :      1.05s CPU      1.13s WALL (       1 calls)
     hinit0       :      7.96s CPU      8.91s WALL (       1 calls)

     Called by electrons:
     c_bands      :   1390.14s CPU   1675.64s WALL (      74 calls)
     sum_band     :    101.22s CPU    127.06s WALL (      74 calls)
     v_of_rho     :     13.20s CPU     15.34s WALL (      75 calls)
     v_h          :      1.01s CPU      1.25s WALL (      75 calls)
     v_xc         :     12.18s CPU     14.09s WALL (      75 calls)
     newd         :      6.31s CPU      8.65s WALL (      75 calls)
     PAW_pot      :      0.71s CPU      1.02s WALL (      75 calls)
     mix_rho      :     31.72s CPU     38.96s WALL (      74 calls)

     Called by c_bands:
     init_us_2    :     22.88s CPU     23.02s WALL (    1200 calls)
     cegterg      :   1302.48s CPU   1474.01s WALL (     718 calls)

     Called by sum_band:
     sum_band:wei :      0.12s CPU      0.14s WALL (      74 calls)
     sum_band:loo :     91.68s CPU    108.41s WALL (      74 calls)
     sum_band:buf :      2.28s CPU      2.31s WALL (     592 calls)
     sum_band:ini :     11.31s CPU     11.36s WALL (     592 calls)
     sum_band:cal :     17.83s CPU     18.97s WALL (     592 calls)
     sum_band:bec :      0.15s CPU      0.16s WALL (     592 calls)
     addusdens    :      4.03s CPU      6.37s WALL (      74 calls)
                                        0.00s GPU  (      74 calls)
     addusd:skk   :      0.36s CPU      1.57s WALL (      74 calls)
                                        0.00s GPU  (      74 calls)

     Called by *egterg:
     cdiaghg      :    337.73s CPU    351.05s WALL (    8150 calls)
     cegterg:over :     87.75s CPU     94.31s WALL (    7479 calls)
     cegterg:upda :     72.16s CPU     74.27s WALL (    7479 calls)
     cegterg:last :     32.78s CPU     32.86s WALL (     924 calls)
     h_psi        :    659.45s CPU    799.95s WALL (    8205 calls)
     s_psi        :     83.30s CPU     84.24s WALL (    8205 calls)
     g_psi        :      1.05s CPU      1.14s WALL (    7479 calls)

     Called by h_psi:
     h_psi:calbec :    102.26s CPU    110.03s WALL (    8205 calls)
     vloc_psi     :    468.34s CPU    597.43s WALL (    8205 calls)
                                        0.00s GPU  (    8205 calls)
     add_vuspsi   :     83.99s CPU     84.50s WALL (    8205 calls)

     General routines
     calbec       :    120.86s CPU    129.82s WALL (    8829 calls)
     fft          :      9.20s CPU     12.18s WALL (     975 calls)
     ffts         :     15.66s CPU     20.42s WALL (    9128 calls)
     fftw         :    490.67s CPU    626.07s WALL (  580276 calls)
     interpolate  :      1.72s CPU      1.92s WALL (      75 calls)

     Parallel routines

     PAW routines
     PAW_pot      :      0.71s CPU      1.02s WALL (      75 calls)
     PAW_symme    :      0.03s CPU      0.05s WALL (     149 calls)

     Environ routines

     PWSCF        :  58m44.95s CPU      1h 8m WALL


   This run was terminated on:  12: 2:10  21Jan2025            

=------------------------------------------------------------------------------=
   JOB DONE.
=------------------------------------------------------------------------------=
