
     Program PWSCF v.7.4 starts on 24Jan2025 at  1:57:35 

     This program is part of the open-source Quantum ESPRESSO suite
     for quantum simulation of materials; please cite
         "P. Giannozzi et al., J. Phys.:Condens. Matter 21 395502 (2009);
         "P. Giannozzi et al., J. Phys.:Condens. Matter 29 465901 (2017);
         "P. Giannozzi et al., J. Chem. Phys. 152 154105 (2020);
          URL http://www.quantum-espresso.org", 
     in publications or presentations arising from this work. More details at
     http://www.quantum-espresso.org/quote

     Parallel version (MPI & OpenMP), running on     512 processor cores
     Number of MPI processes:               512
     Threads/MPI process:                     1

     MPI processes distributed on     4 nodes
     233026 MiB available memory on the printing compute node when the environment starts

     Reading input from espresso.pwi
Warning: card &CELL ignored
Warning: card    PRESS_CONV_THR   = 0.1 ignored
Warning: card    CELL_DOFREE      = 'ALL' ignored
Warning: card / ignored
Warning: card &FCP ignored
Warning: card / ignored
Warning: card &RISM ignored
Warning: card / ignored

     Current dimensions of program PWSCF are:
     Max number of different atomic species (ntypx) = 10
     Max number of k-points (npk) =  40000
     Max angular momentum in pseudopotentials (lmaxx) =  4

     IMPORTANT: XC functional enforced from input :
     Exchange-correlation= PBE
                           (   1   4   3   4   0   0   0)
     Any further DFT definition will be discarded
     Please, verify this is what you really want


     Reading input from environ.in:
     * using ionic solvent mode
     * setting boundary derivatives method to SSCS default
     * setting electrolyte-boundary derivatives method to SSCS default

Environ Warning (1001): card EOF ignored

     

     K-points division:     npool     =       2
     R & G space division:  proc/nbgrp/npool/nimage =     256
     Subspace diagonalization in iterative solution of the eigenvalue problem:
     one sub-group per band group will be used
     ELPA distributed-memory algorithm (size of sub-group:  2*  2 procs)


     Parallelization info
     --------------------
     sticks:   dense  smooth     PW     G-vecs:    dense   smooth      PW
     Min          86      34      9                52542    13274    1767
     Max          87      35     10                52593    13321    1811
     Sum       22119    8865   2329             13455463  3404289  459339

     Using Slab Decomposition



     bravais-lattice index     =           12
     lattice parameter (alat)  =      18.3607  a.u.
     unit-cell volume          =   35212.2554 (a.u.)^3
     number of atoms/cell      =           68
     number of atomic types    =            1
     number of electrons       =       204.00
     number of Kohn-Sham states=          153
     kinetic-energy cutoff     =      80.0000  Ry
     charge density cutoff     =     800.0000  Ry
     scf convergence threshold =      1.0E-14
     mixing beta               =       0.2000
     number of iterations used =            8  local-TF  mixing
     Exchange-correlation= PBE
                           (   1   4   3   4   0   0   0)

     ================================================================================

                                  Environ Setup Summary

     ================================================================================

     Please cite

          O. Andreussi, I. Dabo and N. Marzari, J. Chem. Phys. 136, 064102 (2012)
          F. Nattino, M. Truscott, N. Marzari, and O. Andreussi, J. Chem. Phys. 150, 041722 (2019)

     in publications or presentations arising from this work.

     ================================================================================

     Parameters
     ==========

     compensation onset threshold      =               0.1000E+00
     static permittivity               =                    89.90
     surface tension in input (dyn/cm) =                    37.30
     surface tension in internal units =               0.4792E-04

     Solvent Boundary
     ================

     solvent mode                      =                    ionic
     derivatives method                =                   lowmem
     electrolyte derivatives method    =                   lowmem
     numerical core for derivatives    =                      fft
     switching function adopted        =                     SCCS
     density limit for vacuum region   =               0.5000E-02
     density limit for bulk solvent    =               0.1000E-03
     soft-sphere radius mode           =                    bondi
     soft-sphere softness              =                     0.50
     alpha                             =                     1.32

     Electrostatic Setup
     ===================

     electrostatic problem to solve    =                    modpb
     numerical solver adopted          =                   newton
     type of auxiliary density adopted =                     none
     numerical core for poisson        =                      fft
     adopting a nested solver scheme
     inner solver                      =                       cg
     inner core                        =                      fft
     type of pbc corrections           =                parabolic
     numerical core for corrections    =                      1da

     ================================================================================


     >>>>> Grand-Canonical SCF is activated <<<<<
     Initial Total Charge  =     0.000000 e
     Target Fermi Energy   =    -1.654000 eV
     Thr. of Fermi Energy  =     0.001000 eV
     Wave-shift of Kerker  =     0.400000 bohr^-1
     Wave-shift of Hartree =     1.500000 bohr^-1
     Mixing Rate of Fermi  =     0.050000

     celldm(1)=  18.360747  celldm(2)=   1.060660  celldm(3)=   5.518976
     celldm(4)=  -0.235702  celldm(5)=   0.000000  celldm(6)=   0.000000

     crystal axes: (cart. coord. in units of alat)
               a(1) = (   1.000000   0.000000   0.000000 )  
               a(2) = (  -0.250000   1.030776   0.000000 )  
               a(3) = (   0.000000   0.000000   5.518976 )  

     reciprocal axes: (cart. coord. in units 2 pi/alat)
               b(1) = (  1.000000  0.242536 -0.000000 )  
               b(2) = (  0.000000  0.970143  0.000000 )  
               b(3) = (  0.000000 -0.000000  0.181193 )  


     PseudoPot. # 1 for Li read from file:
     /work/e89/e89/ba3g18/Repos/Pseudopotentials/Pslibrary/Li.pbe-sl-kjpaw_psl.1.0.0.UPF
     MD5 check sum: 3f4d2cafebb47c6c3aa8ed472e6f074d
     Pseudo is Projector augmented-wave, Zval =  3.0
     Generated using 'atomic' code by A. Dal Corso  v.7.4
     Shape of augmentation charge: PSQ
     Using radial grid of 1017 points,  4 beta functions with: 
                l(1) =   0
                l(2) =   0
                l(3) =   1
                l(4) =   1
     Q(r) pseudized with 0 coefficients 


     atomic species   valence    mass     pseudopotential
     Li                3.00     6.94000     Li( 1.00)

     No symmetry found


                                    s                        frac. trans.

      isym =  1     identity                                     

 cryst.   s( 1) = (     1          0          0      )
                  (     0          1          0      )
                  (     0          0          1      )

 cart.    s( 1) = (  1.0000000  0.0000000  0.0000000 )
                  (  0.0000000  1.0000000  0.0000000 )
                  (  0.0000000  0.0000000  1.0000000 )


     point group C_1 (1)    
     there are  1 classes
     the character table:

       E    
A      1.00

     the symmetry operations in each class and the name of the first element:

     E        1
          identity                                               

   Cartesian axes

     site n.     atom                  positions (alat units)
         1        Li     tau(   1) = (  -0.0002560   0.0086755   2.0671584  )
         2        Li     tau(   2) = (   0.0001929   0.6082964   3.4167417  )
         3        Li     tau(   3) = (   0.2502120   0.7831701   3.2702465  )
         4        Li     tau(   4) = (   0.2502833   0.1875956   3.3234742  )
         5        Li     tau(   5) = (   0.0002037   0.3676580   3.1576735  )
         6        Li     tau(   6) = (   0.2501625   0.5456802   3.0034977  )
         7        Li     tau(   7) = (   0.2499504   0.9059256   2.6626587  )
         8        Li     tau(   8) = (   0.0002119   0.9736669   3.0817736  )
         9        Li     tau(   9) = (   0.0001058   0.1207612   2.9118277  )
        10        Li     tau(  10) = (   0.2499810   0.3024483   2.7368541  )
        11        Li     tau(  11) = (  -0.0001647   0.4870467   2.5536795  )
        12        Li     tau(  12) = (   0.2498120   0.6607149   2.3947468  )
        13        Li     tau(  13) = (   0.0000364   0.7302345   2.8202150  )
        14        Li     tau(  14) = (   0.2498330   0.0585249   2.4858383  )
        15        Li     tau(  15) = (  -0.0002594   0.2460187   2.3012495  )
        16        Li     tau(  16) = (   0.2497828   0.4105761   2.1362373  )
        17        Li     tau(  17) = (  -0.0002098   0.8544840   2.2124454  )
        18        Li     tau(  18) = (   0.0002522   0.0571534   3.2177246  )
        19        Li     tau(  19) = (   0.0001890   0.6732294   3.1242313  )
        20        Li     tau(  20) = (   0.2501646   0.8468959   2.9652985  )
        21        Li     tau(  21) = (   0.2501669   0.2446402   3.0331402  )
        22        Li     tau(  22) = (   0.0000486   0.4280157   2.8563169  )
        23        Li     tau(  23) = (   0.2499636   0.6037042   2.6987623  )
        24        Li     tau(  24) = (   0.2497959   0.9662874   2.3613021  )
        25        Li     tau(  25) = (   0.0000190   1.0314891   2.7821235  )
        26        Li     tau(  26) = (  -0.0001105   0.1824055   2.6071449  )
        27        Li     tau(  27) = (   0.2497882   0.3602756   2.4372052  )
        28        Li     tau(  28) = (  -0.0002121   0.5507796   2.2487306  )
        29        Li     tau(  29) = (   0.2498075   0.7256535   2.1022375  )
        30        Li     tau(  30) = (  -0.0001623   0.7882615   2.5154798  )
        31        Li     tau(  31) = (   0.2497168   0.1155784   2.1955094  )
        32        Li     tau(  32) = (   0.0002687   0.2945036   3.4518181  )
        33        Li     tau(  33) = (   0.2502106   0.4794650   3.3065324  )
        34        Li     tau(  34) = (   0.0002158   0.9233735   3.3827394  )
        35        Li     tau(  35) = (   0.4997262   0.0086687   2.0671586  )
        36        Li     tau(  36) = (   0.5001956   0.6082929   3.4167469  )
        37        Li     tau(  37) = (   0.7502192   0.7831704   3.2702465  )
        38        Li     tau(  38) = (   0.7502845   0.1875959   3.3234861  )
        39        Li     tau(  39) = (   0.5002008   0.3676581   3.1576726  )
        40        Li     tau(  40) = (   0.7501587   0.5456804   3.0034934  )
        41        Li     tau(  41) = (   0.7499556   0.9059271   2.6626596  )
        42        Li     tau(  42) = (   0.5002112   0.9736689   3.0817634  )
        43        Li     tau(  43) = (   0.5001107   0.1207616   2.9118291  )
        44        Li     tau(  44) = (   0.7499829   0.3024500   2.7368604  )
        45        Li     tau(  45) = (   0.4998323   0.4870472   2.5536779  )
        46        Li     tau(  46) = (   0.7498084   0.6607133   2.3947403  )
        47        Li     tau(  47) = (   0.5000381   0.7302356   2.8202198  )
        48        Li     tau(  48) = (   0.7498322   0.0585286   2.4858201  )
        49        Li     tau(  49) = (   0.4997501   0.2460185   2.3012496  )
        50        Li     tau(  50) = (   0.7497855   0.4105858   2.1362456  )
        51        Li     tau(  51) = (   0.4997900   0.8544867   2.2124491  )
        52        Li     tau(  52) = (   0.5002571   0.0571534   3.2177253  )
        53        Li     tau(  53) = (   0.5001904   0.6732329   3.1242380  )
        54        Li     tau(  54) = (   0.7501677   0.8468971   2.9652988  )
        55        Li     tau(  55) = (   0.7501680   0.2446418   3.0331484  )
        56        Li     tau(  56) = (   0.5000454   0.4280144   2.8563148  )
        57        Li     tau(  57) = (   0.7499618   0.6037045   2.6987576  )
        58        Li     tau(  58) = (   0.7497996   0.9662881   2.3613017  )
        59        Li     tau(  59) = (   0.5000173   1.0314900   2.7821099  )
        60        Li     tau(  60) = (   0.4998940   0.1824062   2.6071458  )
        61        Li     tau(  61) = (   0.7497887   0.3602780   2.4372113  )
        62        Li     tau(  62) = (   0.4997807   0.5507781   2.2487281  )
        63        Li     tau(  63) = (   0.7498038   0.7256605   2.1022331  )
        64        Li     tau(  64) = (   0.4998410   0.7882650   2.5154847  )
        65        Li     tau(  65) = (   0.7497152   0.1155777   2.1954820  )
        66        Li     tau(  66) = (   0.5002607   0.2944997   3.4518172  )
        67        Li     tau(  67) = (   0.7502092   0.4794635   3.3065287  )
        68        Li     tau(  68) = (   0.5002155   0.9233671   3.3827278  )

   Crystallographic axes

     site n.     atom                  positions (cryst. coord.)
         1        Li     tau(   1) = (  0.0018482  0.0084165  0.3745547  )
         2        Li     tau(   2) = (  0.1477265  0.5901344  0.6190898  )
         3        Li     tau(   3) = (  0.4401587  0.7597869  0.5925459  )
         4        Li     tau(   4) = (  0.2957820  0.1819945  0.6021904  )
         5        Li     tau(   5) = (  0.0893739  0.3566808  0.5721484  )
         6        Li     tau(   6) = (  0.3825094  0.5293878  0.5442129  )
         7        Li     tau(   7) = (  0.4696697  0.8788772  0.4824552  )
         8        Li     tau(   8) = (  0.2363609  0.9445960  0.5583959  )
         9        Li     tau(   9) = (  0.0293947  0.1171557  0.5276029  )
        10        Li     tau(  10) = (  0.3233355  0.2934181  0.4958989  )
        11        Li     tau(  11) = (  0.1179615  0.4725049  0.4627089  )
        12        Li     tau(  12) = (  0.4100590  0.6409879  0.4339114  )
        13        Li     tau(  13) = (  0.1771444  0.7084318  0.5110033  )
        14        Li     tau(  14) = (  0.2640273  0.0567775  0.4504166  )
        15        Li     tau(  15) = (  0.0594089  0.2386733  0.4169704  )
        16        Li     tau(  16) = (  0.3493621  0.3983175  0.3870713  )
        17        Li     tau(  17) = (  0.2070331  0.8289715  0.4008797  )
        18        Li     tau(  18) = (  0.0141139  0.0554469  0.5830293  )
        19        Li     tau(  19) = (  0.1634712  0.6531287  0.5660889  )
        20        Li     tau(  20) = (  0.4555671  0.8216100  0.5372914  )
        21        Li     tau(  21) = (  0.3095009  0.2373360  0.5495839  )
        22        Li     tau(  22) = (  0.1038577  0.4152364  0.5175447  )
        23        Li     tau(  23) = (  0.3963834  0.5856794  0.4889969  )
        24        Li     tau(  24) = (  0.4841551  0.9374368  0.4278515  )
        25        Li     tau(  25) = (  0.2501919  1.0006919  0.5041014  )
        26        Li     tau(  26) = (  0.0441294  0.1769594  0.4723965  )
        27        Li     tau(  27) = (  0.3371679  0.3495188  0.4416046  )
        28        Li     tau(  28) = (  0.1333716  0.5343349  0.4074543  )
        29        Li     tau(  29) = (  0.4258044  0.7039876  0.3809108  )
        30        Li     tau(  30) = (  0.1910193  0.7647262  0.4557874  )
        31        Li     tau(  31) = (  0.2777487  0.1121276  0.3978110  )
        32        Li     tau(  32) = (  0.0716964  0.2857105  0.6254454  )
        33        Li     tau(  33) = (  0.3664980  0.4651496  0.5991206  )
        34        Li     tau(  34) = (  0.2241668  0.8958042  0.6129288  )
        35        Li     tau(  35) = (  0.5018287  0.0084099  0.3745547  )
        36        Li     tau(  36) = (  0.6477284  0.5901311  0.6190907  )
        37        Li     tau(  37) = (  0.9401660  0.7597872  0.5925459  )
        38        Li     tau(  38) = (  0.7957833  0.1819949  0.6021925  )
        39        Li     tau(  39) = (  0.5893710  0.3566809  0.5721483  )
        40        Li     tau(  40) = (  0.8825057  0.5293880  0.5442121  )
        41        Li     tau(  41) = (  0.9696753  0.8788787  0.4824554  )
        42        Li     tau(  42) = (  0.7363607  0.9445980  0.5583940  )
        43        Li     tau(  43) = (  0.5293997  0.1171560  0.5276031  )
        44        Li     tau(  44) = (  0.8233378  0.2934197  0.4959000  )
        45        Li     tau(  45) = (  0.6179587  0.4725054  0.4627086  )
        46        Li     tau(  46) = (  0.9100550  0.6409863  0.4339103  )
        47        Li     tau(  47) = (  0.6771463  0.7084329  0.5110042  )
        48        Li     tau(  48) = (  0.7640274  0.0567811  0.4504133  )
        49        Li     tau(  49) = (  0.5594184  0.2386730  0.4169704  )
        50        Li     tau(  50) = (  0.8493673  0.3983269  0.3870728  )
        51        Li     tau(  51) = (  0.7070336  0.8289742  0.4008804  )
        52        Li     tau(  52) = (  0.5141189  0.0554469  0.5830294  )
        53        Li     tau(  53) = (  0.6634734  0.6531321  0.5660901  )
        54        Li     tau(  54) = (  0.9555705  0.8216112  0.5372915  )
        55        Li     tau(  55) = (  0.8095024  0.2373375  0.5495854  )
        56        Li     tau(  56) = (  0.6038542  0.4152351  0.5175443  )
        57        Li     tau(  57) = (  0.8963817  0.5856797  0.4889961  )
        58        Li     tau(  58) = (  0.9841590  0.9374375  0.4278514  )
        59        Li     tau(  59) = (  0.7501905  1.0006927  0.5040989  )
        60        Li     tau(  60) = (  0.5441340  0.1769601  0.4723967  )
        61        Li     tau(  61) = (  0.8371690  0.3495212  0.4416057  )
        62        Li     tau(  62) = (  0.6333641  0.5343335  0.4074539  )
        63        Li     tau(  63) = (  0.9258024  0.7039944  0.3809100  )
        64        Li     tau(  64) = (  0.6910235  0.7647297  0.4557883  )
        65        Li     tau(  65) = (  0.7777469  0.1121269  0.3978060  )
        66        Li     tau(  66) = (  0.5716874  0.2857068  0.6254452  )
        67        Li     tau(  67) = (  0.8664962  0.4651481  0.5991200  )
        68        Li     tau(  68) = (  0.7241650  0.8957980  0.6129267  )

     number of k points=    25  Marzari-Vanderbilt smearing, width (Ry)=  0.0100
                       cart. coord. in units 2pi/alat
        k(    1) = (   0.0000000   0.0000000   0.0000000), wk =   0.0408163
        k(    2) = (   0.0000000   0.1385918   0.0000000), wk =   0.0816327
        k(    3) = (   0.0000000   0.2771837   0.0000000), wk =   0.0816327
        k(    4) = (   0.0000000   0.4157755   0.0000000), wk =   0.0816327
        k(    5) = (   0.1428571   0.0346480   0.0000000), wk =   0.0816327
        k(    6) = (   0.1428571   0.1732398   0.0000000), wk =   0.0816327
        k(    7) = (   0.1428571   0.3118316   0.0000000), wk =   0.0816327
        k(    8) = (   0.1428571   0.4504235   0.0000000), wk =   0.0816327
        k(    9) = (   0.1428571  -0.3811276   0.0000000), wk =   0.0816327
        k(   10) = (   0.1428571  -0.2425357   0.0000000), wk =   0.0816327
        k(   11) = (   0.1428571  -0.1039439   0.0000000), wk =   0.0816327
        k(   12) = (   0.2857143   0.0692959   0.0000000), wk =   0.0816327
        k(   13) = (   0.2857143   0.2078878   0.0000000), wk =   0.0816327
        k(   14) = (   0.2857143   0.3464796   0.0000000), wk =   0.0816327
        k(   15) = (   0.2857143   0.4850714   0.0000000), wk =   0.0816327
        k(   16) = (   0.2857143  -0.3464796   0.0000000), wk =   0.0816327
        k(   17) = (   0.2857143  -0.2078878   0.0000000), wk =   0.0816327
        k(   18) = (   0.2857143  -0.0692959   0.0000000), wk =   0.0816327
        k(   19) = (   0.4285714   0.1039439   0.0000000), wk =   0.0816327
        k(   20) = (   0.4285714   0.2425357   0.0000000), wk =   0.0816327
        k(   21) = (   0.4285714   0.3811276   0.0000000), wk =   0.0816327
        k(   22) = (   0.4285714   0.5197194   0.0000000), wk =   0.0816327
        k(   23) = (   0.4285714  -0.3118316   0.0000000), wk =   0.0816327
        k(   24) = (   0.4285714  -0.1732398   0.0000000), wk =   0.0816327
        k(   25) = (   0.4285714  -0.0346480   0.0000000), wk =   0.0816327

                       cryst. coord.
        k(    1) = (   0.0000000   0.0000000   0.0000000), wk =   0.0408163
        k(    2) = (   0.0000000   0.1428571   0.0000000), wk =   0.0816327
        k(    3) = (   0.0000000   0.2857143   0.0000000), wk =   0.0816327
        k(    4) = (   0.0000000   0.4285714   0.0000000), wk =   0.0816327
        k(    5) = (   0.1428571   0.0000000   0.0000000), wk =   0.0816327
        k(    6) = (   0.1428571   0.1428571   0.0000000), wk =   0.0816327
        k(    7) = (   0.1428571   0.2857143   0.0000000), wk =   0.0816327
        k(    8) = (   0.1428571   0.4285714   0.0000000), wk =   0.0816327
        k(    9) = (   0.1428571  -0.4285714   0.0000000), wk =   0.0816327
        k(   10) = (   0.1428571  -0.2857143   0.0000000), wk =   0.0816327
        k(   11) = (   0.1428571  -0.1428571   0.0000000), wk =   0.0816327
        k(   12) = (   0.2857143   0.0000000   0.0000000), wk =   0.0816327
        k(   13) = (   0.2857143   0.1428571   0.0000000), wk =   0.0816327
        k(   14) = (   0.2857143   0.2857143   0.0000000), wk =   0.0816327
        k(   15) = (   0.2857143   0.4285714   0.0000000), wk =   0.0816327
        k(   16) = (   0.2857143  -0.4285714   0.0000000), wk =   0.0816327
        k(   17) = (   0.2857143  -0.2857143   0.0000000), wk =   0.0816327
        k(   18) = (   0.2857143  -0.1428571   0.0000000), wk =   0.0816327
        k(   19) = (   0.4285714   0.0000000   0.0000000), wk =   0.0816327
        k(   20) = (   0.4285714   0.1428571   0.0000000), wk =   0.0816327
        k(   21) = (   0.4285714   0.2857143   0.0000000), wk =   0.0816327
        k(   22) = (   0.4285714   0.4285714   0.0000000), wk =   0.0816327
        k(   23) = (   0.4285714  -0.4285714   0.0000000), wk =   0.0816327
        k(   24) = (   0.4285714  -0.2857143   0.0000000), wk =   0.0816327
        k(   25) = (   0.4285714  -0.1428571   0.0000000), wk =   0.0816327

     Dense  grid: 13455463 G-vectors     FFT dimensions: ( 180, 180, 960)

     Smooth grid:  3404289 G-vectors     FFT dimensions: ( 108, 120, 600)

     Dynamical RAM for                 wfc:       3.88 MB

     Dynamical RAM for     wfc (w. buffer):      54.32 MB

     Dynamical RAM for           str. fact:       0.80 MB

     Dynamical RAM for           local pot:       0.00 MB

     Dynamical RAM for          nlocal pot:      13.80 MB

     Dynamical RAM for                qrad:       0.65 MB

     Dynamical RAM for          rho,v,vnew:       5.37 MB

     Dynamical RAM for               rhoin:       1.79 MB

     Dynamical RAM for            rho*nmix:      12.84 MB

     Dynamical RAM for           G-vectors:       3.11 MB

     Dynamical RAM for          h,s,v(r/c):       4.29 MB

     Dynamical RAM for          <psi|beta>:       1.27 MB

     Dynamical RAM for                 psi:      15.52 MB

     Dynamical RAM for                hpsi:      15.52 MB

     Dynamical RAM for                spsi:      15.52 MB

     Dynamical RAM for      wfcinit/wfcrot:       8.30 MB

     Dynamical RAM for           addusdens:      44.93 MB

     Dynamical RAM for          addusforce:      98.75 MB

     Estimated static dynamical RAM per process >      86.39 MB

     Estimated max dynamical RAM per process >     205.31 MB

     Estimated total dynamical RAM >      95.78 GB

     Initial potential from superposition of free atoms

     starting charge     203.6866, renormalised to     204.0000

     negative rho (up, down):  6.025E-03 0.000E+00
     Starting wfcs are random
     Checking if some PAW data can be deallocated... 

     total cpu time spent up to now is       48.3 secs

     Self-consistent Calculation

     iteration #  1     ecut=    80.00 Ry     beta= 0.20
     Davidson diagonalization with overlap

---- Real-time Memory Report at c_bands before calling an iterative solver
          1218 MiB given to the printing process from OS
             0 MiB allocation reported by mallinfo(arena+hblkhd)
        211838 MiB available memory on the node where the printing process lives
------------------
     c_bands:  4 eigenvalues not converged
     c_bands:  1 eigenvalues not converged
     c_bands:  5 eigenvalues not converged
     ethr =  1.00E-12,  avg # of iterations =132.7

     negative rho (up, down):  4.533E-03 0.000E+00

     total cpu time spent up to now is      719.8 secs

     total energy              =   -1022.50394602 Ry
     estimated scf accuracy    <       0.22291367 Ry

     total charge of GC-SCF    =      -0.05978340 e
     the Fermi energy          =      -4.26393994 eV
                        (error :       2.60993994 eV)
     electrostatic embedding   =       0.00000000 Ry
     cavitation energy         =       0.04170471 Ry
     electrolyte free energy   =       0.01515579 Ry
     correction to one-el term =      -0.00000000 Ry

     iteration #  2     ecut=    80.00 Ry     beta= 0.20
     Davidson diagonalization with overlap

---- Real-time Memory Report at c_bands before calling an iterative solver
          1218 MiB given to the printing process from OS
             0 MiB allocation reported by mallinfo(arena+hblkhd)
        205504 MiB available memory on the node where the printing process lives
------------------
     ethr =  1.00E-05,  avg # of iterations = 11.6

     negative rho (up, down):  3.566E-03 0.000E+00

     total cpu time spent up to now is      790.7 secs

     total energy              =   -1022.71010928 Ry
     estimated scf accuracy    <       0.11444229 Ry

     total charge of GC-SCF    =      -0.08664106 e
     the Fermi energy          =      -2.86328229 eV
                        (error :       1.20928229 eV)
     electrostatic embedding   =      -0.00054405 Ry
     cavitation energy         =       0.04170471 Ry
     electrolyte free energy   =       0.01515579 Ry
     correction to one-el term =      -0.00000000 Ry

     iteration #  3     ecut=    80.00 Ry     beta= 0.20
     Davidson diagonalization with overlap

---- Real-time Memory Report at c_bands before calling an iterative solver
          1218 MiB given to the printing process from OS
             0 MiB allocation reported by mallinfo(arena+hblkhd)
        205313 MiB available memory on the node where the printing process lives
------------------
     ethr =  1.00E-05,  avg # of iterations =  9.8

     negative rho (up, down):  2.686E-03 0.000E+00

     add environment contribution to local potential

     total cpu time spent up to now is      855.3 secs

     total energy              =   -1022.40254468 Ry
     estimated scf accuracy    <       0.06429669 Ry

     total charge of GC-SCF    =      -0.15754721 e
     the Fermi energy          =      -2.59051577 eV
                        (error :       0.93651577 eV)
     electrostatic embedding   =      -0.00078846 Ry
     cavitation energy         =       0.04170471 Ry
     electrolyte free energy   =       0.01515579 Ry
     correction to one-el term =      -0.00000000 Ry

     iteration #  4     ecut=    80.00 Ry     beta= 0.20
     Davidson diagonalization with overlap

---- Real-time Memory Report at c_bands before calling an iterative solver
          1218 MiB given to the printing process from OS
             0 MiB allocation reported by mallinfo(arena+hblkhd)
        205108 MiB available memory on the node where the printing process lives
------------------
     ethr =  1.00E-05,  avg # of iterations = 31.5

     negative rho (up, down):  2.285E-03 0.000E+00

     add environment contribution to local potential

     total cpu time spent up to now is      997.8 secs

     total energy              =   -1022.59946244 Ry
     estimated scf accuracy    <       0.02721875 Ry

     total charge of GC-SCF    =      -0.27613293 e
     the Fermi energy          =      -2.54288352 eV
                        (error :       0.88888352 eV)
     electrostatic embedding   =      -0.04658124 Ry
     cavitation energy         =       0.04170471 Ry
     electrolyte free energy   =      -0.00106089 Ry
     correction to one-el term =      11.95540496 Ry

     iteration #  5     ecut=    80.00 Ry     beta= 0.20
     Davidson diagonalization with overlap

---- Real-time Memory Report at c_bands before calling an iterative solver
          1218 MiB given to the printing process from OS
             0 MiB allocation reported by mallinfo(arena+hblkhd)
        204961 MiB available memory on the node where the printing process lives
------------------
     ethr =  1.00E-05,  avg # of iterations =  8.0

     negative rho (up, down):  2.203E-03 0.000E+00

     add environment contribution to local potential

     total cpu time spent up to now is     1051.2 secs

     total energy              =   -1022.31958915 Ry
     estimated scf accuracy    <       0.01920512 Ry

     total charge of GC-SCF    =      -1.08293042 e
     the Fermi energy          =      -2.60684140 eV
                        (error :       0.95284140 eV)
     electrostatic embedding   =      -0.06019067 Ry
     cavitation energy         =       0.04170471 Ry
     electrolyte free energy   =      -0.00122682 Ry
     correction to one-el term =      15.72151346 Ry

     iteration #  6     ecut=    80.00 Ry     beta= 0.20
     Davidson diagonalization with overlap

---- Real-time Memory Report at c_bands before calling an iterative solver
          1218 MiB given to the printing process from OS
             0 MiB allocation reported by mallinfo(arena+hblkhd)
        205006 MiB available memory on the node where the printing process lives
------------------
     ethr =  9.36E-06,  avg # of iterations = 12.6

     negative rho (up, down):  1.878E-03 0.000E+00

     add environment contribution to local potential

     total cpu time spent up to now is     1145.5 secs

     total energy              =   -1022.47712438 Ry
     estimated scf accuracy    <       0.01166742 Ry

     total charge of GC-SCF    =      -1.38354446 e
     the Fermi energy          =      -2.64179099 eV
                        (error :       0.98779099 eV)
     electrostatic embedding   =      -0.24421380 Ry
     cavitation energy         =       0.04170471 Ry
     electrolyte free energy   =      -0.00179842 Ry
     correction to one-el term =      50.11161415 Ry

     iteration #  7     ecut=    80.00 Ry     beta= 0.20
     Davidson diagonalization with overlap

---- Real-time Memory Report at c_bands before calling an iterative solver
          1218 MiB given to the printing process from OS
             0 MiB allocation reported by mallinfo(arena+hblkhd)
        205170 MiB available memory on the node where the printing process lives
------------------
     ethr =  5.68E-06,  avg # of iterations = 22.4

     negative rho (up, down):  1.719E-03 0.000E+00

     add environment contribution to local potential

     total cpu time spent up to now is     1276.8 secs

     total energy              =   -1022.65187184 Ry
     estimated scf accuracy    <       0.01350236 Ry

     total charge of GC-SCF    =      -1.63356564 e
     the Fermi energy          =      -2.17294723 eV
                        (error :       0.51894723 eV)
     electrostatic embedding   =      -0.33237823 Ry
     cavitation energy         =       0.04170471 Ry
     electrolyte free energy   =      -0.00209812 Ry
     correction to one-el term =      66.01378818 Ry

     iteration #  8     ecut=    80.00 Ry     beta= 0.20
     Davidson diagonalization with overlap

---- Real-time Memory Report at c_bands before calling an iterative solver
          1218 MiB given to the printing process from OS
             0 MiB allocation reported by mallinfo(arena+hblkhd)
        204742 MiB available memory on the node where the printing process lives
------------------
     ethr =  5.68E-06,  avg # of iterations =  6.4

     negative rho (up, down):  1.649E-03 0.000E+00

     add environment contribution to local potential

     total cpu time spent up to now is     1330.9 secs

     total energy              =   -1022.57494169 Ry
     estimated scf accuracy    <       0.02082715 Ry

     total charge of GC-SCF    =      -2.15050013 e
     the Fermi energy          =      -2.13114012 eV
                        (error :       0.47714012 eV)
     electrostatic embedding   =      -0.42490785 Ry
     cavitation energy         =       0.04170471 Ry
     electrolyte free energy   =      -0.00298970 Ry
     correction to one-el term =      74.94467701 Ry

     iteration #  9     ecut=    80.00 Ry     beta= 0.20
     Davidson diagonalization with overlap

---- Real-time Memory Report at c_bands before calling an iterative solver
          1218 MiB given to the printing process from OS
             0 MiB allocation reported by mallinfo(arena+hblkhd)
        204764 MiB available memory on the node where the printing process lives
------------------
     ethr =  5.68E-06,  avg # of iterations = 10.8

     negative rho (up, down):  1.555E-03 0.000E+00

     add environment contribution to local potential

     total cpu time spent up to now is     1398.7 secs

     total energy              =   -1022.64634673 Ry
     estimated scf accuracy    <       0.00771917 Ry

     total charge of GC-SCF    =      -2.50854726 e
     the Fermi energy          =      -2.20549607 eV
                        (error :       0.55149607 eV)
     electrostatic embedding   =      -0.66885902 Ry
     cavitation energy         =       0.04170471 Ry
     electrolyte free energy   =      -0.00404119 Ry
     correction to one-el term =      94.06677299 Ry

     iteration # 10     ecut=    80.00 Ry     beta= 0.20
     Davidson diagonalization with overlap

---- Real-time Memory Report at c_bands before calling an iterative solver
          1218 MiB given to the printing process from OS
             0 MiB allocation reported by mallinfo(arena+hblkhd)
        204654 MiB available memory on the node where the printing process lives
------------------
     ethr =  3.74E-06,  avg # of iterations = 12.6

     negative rho (up, down):  1.346E-03 0.000E+00

     add environment contribution to local potential

     total cpu time spent up to now is     1474.4 secs

     total energy              =   -1022.72251370 Ry
     estimated scf accuracy    <       0.00269813 Ry

     total charge of GC-SCF    =      -2.71016353 e
     the Fermi energy          =      -2.26785699 eV
                        (error :       0.61385699 eV)
     electrostatic embedding   =      -0.86994106 Ry
     cavitation energy         =       0.04170471 Ry
     electrolyte free energy   =      -0.00515904 Ry
     correction to one-el term =     106.81917508 Ry

     iteration # 11     ecut=    80.00 Ry     beta= 0.20
     Davidson diagonalization with overlap

---- Real-time Memory Report at c_bands before calling an iterative solver
          1218 MiB given to the printing process from OS
             0 MiB allocation reported by mallinfo(arena+hblkhd)
        204548 MiB available memory on the node where the printing process lives
------------------
     ethr =  1.31E-06,  avg # of iterations = 11.6

     negative rho (up, down):  1.154E-03 0.000E+00

     add environment contribution to local potential

     total cpu time spent up to now is     1555.5 secs

     total energy              =   -1022.70671412 Ry
     estimated scf accuracy    <       0.00596420 Ry

     total charge of GC-SCF    =      -3.15036120 e
     the Fermi energy          =      -2.22398391 eV
                        (error :       0.56998391 eV)
     electrostatic embedding   =      -0.97671389 Ry
     cavitation energy         =       0.04170471 Ry
     electrolyte free energy   =      -0.00620293 Ry
     correction to one-el term =     113.05781295 Ry

     iteration # 12     ecut=    80.00 Ry     beta= 0.20
     Davidson diagonalization with overlap

---- Real-time Memory Report at c_bands before calling an iterative solver
          1218 MiB given to the printing process from OS
             0 MiB allocation reported by mallinfo(arena+hblkhd)
        204543 MiB available memory on the node where the printing process lives
------------------
     ethr =  1.31E-06,  avg # of iterations = 17.1

     negative rho (up, down):  1.101E-03 0.000E+00

     add environment contribution to local potential

     total cpu time spent up to now is     1673.3 secs

     total energy              =   -1022.65024029 Ry
     estimated scf accuracy    <       0.02066945 Ry

     total charge of GC-SCF    =      -3.64232844 e
     the Fermi energy          =      -2.02571995 eV
                        (error :       0.37171995 eV)
     electrostatic embedding   =      -1.24567829 Ry
     cavitation energy         =       0.04170471 Ry
     electrolyte free energy   =      -0.01000024 Ry
     correction to one-el term =     128.11625387 Ry

     iteration # 13     ecut=    80.00 Ry     beta= 0.20
     Davidson diagonalization with overlap

---- Real-time Memory Report at c_bands before calling an iterative solver
          1218 MiB given to the printing process from OS
             0 MiB allocation reported by mallinfo(arena+hblkhd)
        204705 MiB available memory on the node where the printing process lives
------------------
     ethr =  1.31E-06,  avg # of iterations = 14.0

     negative rho (up, down):  9.844E-04 0.000E+00

     add environment contribution to local potential

     total cpu time spent up to now is     1772.6 secs

     total energy              =   -1022.75907707 Ry
     estimated scf accuracy    <       0.00270187 Ry

     total charge of GC-SCF    =      -3.95245578 e
     the Fermi energy          =      -2.19745948 eV
                        (error :       0.54345948 eV)
     electrostatic embedding   =      -1.62800404 Ry
     cavitation energy         =       0.04170471 Ry
     electrolyte free energy   =      -0.01237683 Ry
     correction to one-el term =     145.54697406 Ry

     iteration # 14     ecut=    80.00 Ry     beta= 0.20
     Davidson diagonalization with overlap

---- Real-time Memory Report at c_bands before calling an iterative solver
          1218 MiB given to the printing process from OS
             0 MiB allocation reported by mallinfo(arena+hblkhd)
        204639 MiB available memory on the node where the printing process lives
------------------
     ethr =  1.30E-06,  avg # of iterations = 14.7

     negative rho (up, down):  9.439E-04 0.000E+00

     add environment contribution to local potential

     total cpu time spent up to now is     1865.6 secs

     total energy              =   -1022.81625002 Ry
     estimated scf accuracy    <       0.00371154 Ry

     total charge of GC-SCF    =      -3.99550951 e
     the Fermi energy          =      -2.11361042 eV
                        (error :       0.45961042 eV)
     electrostatic embedding   =      -1.87930926 Ry
     cavitation energy         =       0.04170471 Ry
     electrolyte free energy   =      -0.01573237 Ry
     correction to one-el term =     156.90625777 Ry

     iteration # 15     ecut=    80.00 Ry     beta= 0.20
     Davidson diagonalization with overlap

---- Real-time Memory Report at c_bands before calling an iterative solver
          1218 MiB given to the printing process from OS
             0 MiB allocation reported by mallinfo(arena+hblkhd)
        204475 MiB available memory on the node where the printing process lives
------------------
     ethr =  1.30E-06,  avg # of iterations =  6.4

     negative rho (up, down):  9.066E-04 0.000E+00

     add environment contribution to local potential

     total cpu time spent up to now is     1917.1 secs

     total energy              =   -1022.81442619 Ry
     estimated scf accuracy    <       0.00451158 Ry

     total charge of GC-SCF    =      -4.00551351 e
     the Fermi energy          =      -2.09408028 eV
                        (error :       0.44008028 eV)
     electrostatic embedding   =      -1.91531490 Ry
     cavitation energy         =       0.04170471 Ry
     electrolyte free energy   =      -0.01629811 Ry
     correction to one-el term =     158.49310148 Ry

     iteration # 16     ecut=    80.00 Ry     beta= 0.20
     Davidson diagonalization with overlap

---- Real-time Memory Report at c_bands before calling an iterative solver
          1218 MiB given to the printing process from OS
             0 MiB allocation reported by mallinfo(arena+hblkhd)
        204475 MiB available memory on the node where the printing process lives
------------------
     ethr =  1.30E-06,  avg # of iterations = 11.0

     negative rho (up, down):  8.550E-04 0.000E+00

     add environment contribution to local potential

     total cpu time spent up to now is     1986.8 secs

     total energy              =   -1022.75083336 Ry
     estimated scf accuracy    <       0.00198675 Ry

     total charge of GC-SCF    =      -4.54146642 e
     the Fermi energy          =      -2.15984893 eV
                        (error :       0.50584893 eV)
     electrostatic embedding   =      -1.92289025 Ry
     cavitation energy         =       0.04170471 Ry
     electrolyte free energy   =      -0.01587658 Ry
     correction to one-el term =     158.19665916 Ry

     iteration # 17     ecut=    80.00 Ry     beta= 0.20
     Davidson diagonalization with overlap

---- Real-time Memory Report at c_bands before calling an iterative solver
          1218 MiB given to the printing process from OS
             0 MiB allocation reported by mallinfo(arena+hblkhd)
        204454 MiB available memory on the node where the printing process lives
------------------
     ethr =  9.53E-07,  avg # of iterations = 12.1

     negative rho (up, down):  7.628E-04 0.000E+00

     add environment contribution to local potential

     total cpu time spent up to now is     2073.8 secs

     total energy              =   -1022.78985091 Ry
     estimated scf accuracy    <       0.00077637 Ry

     total charge of GC-SCF    =      -6.04313484 e
     the Fermi energy          =      -2.17444881 eV
                        (error :       0.52044881 eV)
     electrostatic embedding   =      -2.38641950 Ry
     cavitation energy         =       0.04170471 Ry
     electrolyte free energy   =      -0.02155292 Ry
     correction to one-el term =     174.80506422 Ry

     iteration # 18     ecut=    80.00 Ry     beta= 0.20
     Davidson diagonalization with overlap

---- Real-time Memory Report at c_bands before calling an iterative solver
          1218 MiB given to the printing process from OS
             0 MiB allocation reported by mallinfo(arena+hblkhd)
        204463 MiB available memory on the node where the printing process lives
------------------
     ethr =  3.70E-07,  avg # of iterations = 27.2

     negative rho (up, down):  7.033E-04 0.000E+00

     add environment contribution to local potential

     total cpu time spent up to now is     2206.0 secs

     total energy              =   -1022.85592492 Ry
     estimated scf accuracy    <       0.00043373 Ry

     total charge of GC-SCF    =      -6.54785603 e
     the Fermi energy          =      -2.00187033 eV
                        (error :       0.34787033 eV)
     electrostatic embedding   =      -3.97103020 Ry
     cavitation energy         =       0.04170471 Ry
     electrolyte free energy   =      -0.04867831 Ry
     correction to one-el term =     224.47687575 Ry

     iteration # 19     ecut=    80.00 Ry     beta= 0.20
     Davidson diagonalization with overlap

---- Real-time Memory Report at c_bands before calling an iterative solver
          1218 MiB given to the printing process from OS
             0 MiB allocation reported by mallinfo(arena+hblkhd)
        204480 MiB available memory on the node where the printing process lives
------------------
     ethr =  2.06E-07,  avg # of iterations = 18.6

     negative rho (up, down):  6.571E-04 0.000E+00

     add environment contribution to local potential

     total cpu time spent up to now is     2320.7 secs

     total energy              =   -1022.96390515 Ry
     estimated scf accuracy    <       0.00052955 Ry

     total charge of GC-SCF    =      -8.09694396 e
     the Fermi energy          =      -1.91375519 eV
                        (error :       0.25975519 eV)
     electrostatic embedding   =      -4.55070968 Ry
     cavitation energy         =       0.04170471 Ry
     electrolyte free energy   =      -0.06151553 Ry
     correction to one-el term =     238.99568453 Ry

     iteration # 20     ecut=    80.00 Ry     beta= 0.20
     Davidson diagonalization with overlap

---- Real-time Memory Report at c_bands before calling an iterative solver
          1218 MiB given to the printing process from OS
             0 MiB allocation reported by mallinfo(arena+hblkhd)
        204539 MiB available memory on the node where the printing process lives
------------------
     ethr =  2.06E-07,  avg # of iterations = 28.2

     negative rho (up, down):  6.484E-04 0.000E+00

     add environment contribution to local potential

     total cpu time spent up to now is     2463.1 secs

     total energy              =   -1022.98481601 Ry
     estimated scf accuracy    <       0.00022631 Ry

     total charge of GC-SCF    =      -7.29255173 e
     the Fermi energy          =      -1.72917486 eV
                        (error :       0.07517486 eV)
     electrostatic embedding   =      -6.69554278 Ry
     cavitation energy         =       0.04170471 Ry
     electrolyte free energy   =      -0.11555011 Ry
     correction to one-el term =     288.04969282 Ry

     iteration # 21     ecut=    80.00 Ry     beta= 0.20
     Davidson diagonalization with overlap

---- Real-time Memory Report at c_bands before calling an iterative solver
          1218 MiB given to the printing process from OS
             0 MiB allocation reported by mallinfo(arena+hblkhd)
        204311 MiB available memory on the node where the printing process lives
------------------
     ethr =  1.07E-07,  avg # of iterations = 24.9

     negative rho (up, down):  6.139E-04 0.000E+00

     add environment contribution to local potential

     total cpu time spent up to now is     2587.5 secs

     total energy              =   -1022.95054484 Ry
     estimated scf accuracy    <       0.00011434 Ry

     total charge of GC-SCF    =      -8.40700110 e
     the Fermi energy          =      -1.84813814 eV
                        (error :       0.19413814 eV)
     electrostatic embedding   =      -5.51130562 Ry
     cavitation energy         =       0.04170471 Ry
     electrolyte free energy   =      -0.08420925 Ry
     correction to one-el term =     261.47571600 Ry

     iteration # 22     ecut=    80.00 Ry     beta= 0.20
     Davidson diagonalization with overlap

---- Real-time Memory Report at c_bands before calling an iterative solver
          1218 MiB given to the printing process from OS
             0 MiB allocation reported by mallinfo(arena+hblkhd)
        204394 MiB available memory on the node where the printing process lives
------------------
     ethr =  5.38E-08,  avg # of iterations = 34.9

     negative rho (up, down):  6.059E-04 0.000E+00

     add environment contribution to local potential

     total cpu time spent up to now is     2763.7 secs

     total energy              =   -1022.91598370 Ry
     estimated scf accuracy    <       0.00028868 Ry

     total charge of GC-SCF    =      -8.37511637 e
     the Fermi energy          =      -1.64624171 eV
                        (error :       0.00775829 eV)
     electrostatic embedding   =      -7.10583231 Ry
     cavitation energy         =       0.04170471 Ry
     electrolyte free energy   =      -0.12941607 Ry
     correction to one-el term =     295.26071300 Ry

     iteration # 23     ecut=    80.00 Ry     beta= 0.20
     Davidson diagonalization with overlap

---- Real-time Memory Report at c_bands before calling an iterative solver
          1218 MiB given to the printing process from OS
             0 MiB allocation reported by mallinfo(arena+hblkhd)
        204210 MiB available memory on the node where the printing process lives
------------------
     ethr =  5.38E-08,  avg # of iterations = 10.6

     negative rho (up, down):  6.000E-04 0.000E+00

     add environment contribution to local potential

     total cpu time spent up to now is     2835.1 secs

     total energy              =   -1022.91704993 Ry
     estimated scf accuracy    <       0.00020060 Ry

     total charge of GC-SCF    =      -8.30822589 e
     the Fermi energy          =      -1.66077157 eV
                        (error :       0.00677157 eV)
     electrostatic embedding   =      -7.05322890 Ry
     cavitation energy         =       0.04170471 Ry
     electrolyte free energy   =      -0.12781921 Ry
     correction to one-el term =     294.03333349 Ry

     iteration # 24     ecut=    80.00 Ry     beta= 0.20
     Davidson diagonalization with overlap

---- Real-time Memory Report at c_bands before calling an iterative solver
          1218 MiB given to the printing process from OS
             0 MiB allocation reported by mallinfo(arena+hblkhd)
        204194 MiB available memory on the node where the printing process lives
------------------
     ethr =  5.38E-08,  avg # of iterations =  9.3

     negative rho (up, down):  5.993E-04 0.000E+00

     add environment contribution to local potential

     total cpu time spent up to now is     2900.7 secs

     total energy              =   -1022.91698362 Ry
     estimated scf accuracy    <       0.00021259 Ry

     total charge of GC-SCF    =      -8.27794384 e
     the Fermi energy          =      -1.66899192 eV
                        (error :       0.01499192 eV)
     electrostatic embedding   =      -6.95032661 Ry
     cavitation energy         =       0.04170471 Ry
     electrolyte free energy   =      -0.12478007 Ry
     correction to one-el term =     291.96317353 Ry

     iteration # 25     ecut=    80.00 Ry     beta= 0.20
     Davidson diagonalization with overlap

---- Real-time Memory Report at c_bands before calling an iterative solver
          1218 MiB given to the printing process from OS
             0 MiB allocation reported by mallinfo(arena+hblkhd)
        204228 MiB available memory on the node where the printing process lives
------------------
     ethr =  5.38E-08,  avg # of iterations = 11.6

     negative rho (up, down):  5.930E-04 0.000E+00

     add environment contribution to local potential

     total cpu time spent up to now is     2981.9 secs

     total energy              =   -1022.91693803 Ry
     estimated scf accuracy    <       0.00040442 Ry

     total charge of GC-SCF    =      -8.50150929 e
     the Fermi energy          =      -1.65554016 eV
                        (error :       0.00154016 eV)
     electrostatic embedding   =      -6.89590579 Ry
     cavitation energy         =       0.04170471 Ry
     electrolyte free energy   =      -0.12357375 Ry
     correction to one-el term =     290.87185677 Ry

     iteration # 26     ecut=    80.00 Ry     beta= 0.20
     Davidson diagonalization with overlap

---- Real-time Memory Report at c_bands before calling an iterative solver
          1218 MiB given to the printing process from OS
             0 MiB allocation reported by mallinfo(arena+hblkhd)
        204280 MiB available memory on the node where the printing process lives
------------------
     ethr =  5.38E-08,  avg # of iterations = 10.6

     negative rho (up, down):  5.936E-04 0.000E+00

     add environment contribution to local potential

     total cpu time spent up to now is     3063.4 secs

     total energy              =   -1022.94593541 Ry
     estimated scf accuracy    <       0.00023160 Ry

     total charge of GC-SCF    =      -7.91391716 e
     the Fermi energy          =      -1.63763502 eV
                        (error :       0.01636498 eV)
     electrostatic embedding   =      -7.24427472 Ry
     cavitation energy         =       0.04170471 Ry
     electrolyte free energy   =      -0.13375520 Ry
     correction to one-el term =     297.77288777 Ry

     iteration # 27     ecut=    80.00 Ry     beta= 0.20
     Davidson diagonalization with overlap

---- Real-time Memory Report at c_bands before calling an iterative solver
          1218 MiB given to the printing process from OS
             0 MiB allocation reported by mallinfo(arena+hblkhd)
        204279 MiB available memory on the node where the printing process lives
------------------
     ethr =  5.38E-08,  avg # of iterations = 28.1

     negative rho (up, down):  5.828E-04 0.000E+00

     add environment contribution to local potential

     total cpu time spent up to now is     3199.7 secs

     total energy              =   -1022.92062333 Ry
     estimated scf accuracy    <       0.00006345 Ry

     total charge of GC-SCF    =      -8.44911475 e
     the Fermi energy          =      -1.76057123 eV
                        (error :       0.10657123 eV)
     electrostatic embedding   =      -6.34006619 Ry
     cavitation energy         =       0.04170471 Ry
     electrolyte free energy   =      -0.10728730 Ry
     correction to one-el term =     278.41486629 Ry

     iteration # 28     ecut=    80.00 Ry     beta= 0.20
     Davidson diagonalization with overlap

---- Real-time Memory Report at c_bands before calling an iterative solver
          1218 MiB given to the printing process from OS
             0 MiB allocation reported by mallinfo(arena+hblkhd)
        204211 MiB available memory on the node where the printing process lives
------------------
     ethr =  2.99E-08,  avg # of iterations = 30.8

     negative rho (up, down):  5.749E-04 0.000E+00

     add environment contribution to local potential

     total cpu time spent up to now is     3353.4 secs

     total energy              =   -1022.91564731 Ry
     estimated scf accuracy    <       0.00008909 Ry

     total charge of GC-SCF    =      -8.48105235 e
     the Fermi energy          =      -1.66993463 eV
                        (error :       0.01593463 eV)
     electrostatic embedding   =      -7.12811771 Ry
     cavitation energy         =       0.04170471 Ry
     electrolyte free energy   =      -0.13083927 Ry
     correction to one-el term =     294.40936993 Ry

     iteration # 29     ecut=    80.00 Ry     beta= 0.20
     Davidson diagonalization with overlap

---- Real-time Memory Report at c_bands before calling an iterative solver
          1218 MiB given to the printing process from OS
             0 MiB allocation reported by mallinfo(arena+hblkhd)
        204226 MiB available memory on the node where the printing process lives
------------------
     ethr =  2.99E-08,  avg # of iterations = 14.2

     negative rho (up, down):  5.640E-04 0.000E+00

     add environment contribution to local potential

     total cpu time spent up to now is     3450.6 secs

     total energy              =   -1022.91646005 Ry
     estimated scf accuracy    <       0.00004260 Ry

     total charge of GC-SCF    =      -8.49675244 e
     the Fermi energy          =      -1.67879755 eV
                        (error :       0.02479755 eV)
     electrostatic embedding   =      -7.15077772 Ry
     cavitation energy         =       0.04170471 Ry
     electrolyte free energy   =      -0.13206613 Ry
     correction to one-el term =     294.14125349 Ry

     iteration # 30     ecut=    80.00 Ry     beta= 0.20
     Davidson diagonalization with overlap

---- Real-time Memory Report at c_bands before calling an iterative solver
          1218 MiB given to the printing process from OS
             0 MiB allocation reported by mallinfo(arena+hblkhd)
        204468 MiB available memory on the node where the printing process lives
------------------
     ethr =  2.00E-08,  avg # of iterations = 15.8

     negative rho (up, down):  5.530E-04 0.000E+00

     add environment contribution to local potential

     total cpu time spent up to now is     3563.3 secs

     total energy              =   -1022.91671379 Ry
     estimated scf accuracy    <       0.00001839 Ry

     total charge of GC-SCF    =      -8.58717943 e
     the Fermi energy          =      -1.68821467 eV
                        (error :       0.03421467 eV)
     electrostatic embedding   =      -7.14623420 Ry
     cavitation energy         =       0.04170471 Ry
     electrolyte free energy   =      -0.13254819 Ry
     correction to one-el term =     293.35209218 Ry

     iteration # 31     ecut=    80.00 Ry     beta= 0.20
     Davidson diagonalization with overlap

---- Real-time Memory Report at c_bands before calling an iterative solver
          1218 MiB given to the printing process from OS
             0 MiB allocation reported by mallinfo(arena+hblkhd)
        204464 MiB available memory on the node where the printing process lives
------------------
     ethr =  8.65E-09,  avg # of iterations = 15.6

     negative rho (up, down):  5.419E-04 0.000E+00

     add environment contribution to local potential

     total cpu time spent up to now is     3666.5 secs

     total energy              =   -1022.91730214 Ry
     estimated scf accuracy    <       0.00001185 Ry

     total charge of GC-SCF    =      -8.69060011 e
     the Fermi energy          =      -1.67878167 eV
                        (error :       0.02478167 eV)
     electrostatic embedding   =      -7.26186128 Ry
     cavitation energy         =       0.04170471 Ry
     electrolyte free energy   =      -0.13673482 Ry
     correction to one-el term =     295.12021761 Ry

     iteration # 32     ecut=    80.00 Ry     beta= 0.20
     Davidson diagonalization with overlap

---- Real-time Memory Report at c_bands before calling an iterative solver
          1218 MiB given to the printing process from OS
             0 MiB allocation reported by mallinfo(arena+hblkhd)
        204320 MiB available memory on the node where the printing process lives
------------------
     ethr =  5.57E-09,  avg # of iterations = 21.8

     negative rho (up, down):  5.336E-04 0.000E+00

     add environment contribution to local potential

     total cpu time spent up to now is     3784.4 secs

     total energy              =   -1022.91774949 Ry
     estimated scf accuracy    <       0.00000619 Ry

     total charge of GC-SCF    =      -8.78332903 e
     the Fermi energy          =      -1.66946048 eV
                        (error :       0.01546048 eV)
     electrostatic embedding   =      -7.39762288 Ry
     cavitation energy         =       0.04170471 Ry
     electrolyte free energy   =      -0.14162770 Ry
     correction to one-el term =     297.14822859 Ry

     iteration # 33     ecut=    80.00 Ry     beta= 0.20
     Davidson diagonalization with overlap

---- Real-time Memory Report at c_bands before calling an iterative solver
          1218 MiB given to the printing process from OS
             0 MiB allocation reported by mallinfo(arena+hblkhd)
        204130 MiB available memory on the node where the printing process lives
------------------
     ethr =  2.91E-09,  avg # of iterations = 20.0

     negative rho (up, down):  5.287E-04 0.000E+00

     add environment contribution to local potential

     total cpu time spent up to now is     3902.5 secs

     total energy              =   -1022.91778010 Ry
     estimated scf accuracy    <       0.00000282 Ry

     total charge of GC-SCF    =      -8.84104988 e
     the Fermi energy          =      -1.65815349 eV
                        (error :       0.00415349 eV)
     electrostatic embedding   =      -7.52602097 Ry
     cavitation energy         =       0.04170471 Ry
     electrolyte free energy   =      -0.14618628 Ry
     correction to one-el term =     299.20381594 Ry

     iteration # 34     ecut=    80.00 Ry     beta= 0.20
     Davidson diagonalization with overlap

---- Real-time Memory Report at c_bands before calling an iterative solver
          1218 MiB given to the printing process from OS
             0 MiB allocation reported by mallinfo(arena+hblkhd)
        204169 MiB available memory on the node where the printing process lives
------------------
     c_bands:  1 eigenvalues not converged
     ethr =  1.33E-09,  avg # of iterations = 29.7

     negative rho (up, down):  5.283E-04 0.000E+00

     add environment contribution to local potential

     total cpu time spent up to now is     4057.0 secs

     total energy              =   -1022.91759761 Ry
     estimated scf accuracy    <       0.00000129 Ry

     total charge of GC-SCF    =      -8.84159585 e
     the Fermi energy          =      -1.65006844 eV
                        (error :       0.00393156 eV)
     electrostatic embedding   =      -7.60577735 Ry
     cavitation energy         =       0.04170471 Ry
     electrolyte free energy   =      -0.14909249 Ry
     correction to one-el term =     300.48556113 Ry

     iteration # 35     ecut=    80.00 Ry     beta= 0.20
     Davidson diagonalization with overlap

---- Real-time Memory Report at c_bands before calling an iterative solver
          1218 MiB given to the printing process from OS
             0 MiB allocation reported by mallinfo(arena+hblkhd)
        204458 MiB available memory on the node where the printing process lives
------------------
     ethr =  6.08E-10,  avg # of iterations = 13.6

     negative rho (up, down):  5.280E-04 0.000E+00

     add environment contribution to local potential

     total cpu time spent up to now is     4152.3 secs

     total energy              =   -1022.91761137 Ry
     estimated scf accuracy    <       0.00000067 Ry

     total charge of GC-SCF    =      -8.84897616 e
     the Fermi energy          =      -1.64974134 eV
                        (error :       0.00425866 eV)
     electrostatic embedding   =      -7.60649935 Ry
     cavitation energy         =       0.04170471 Ry
     electrolyte free energy   =      -0.14912315 Ry
     correction to one-el term =     300.50243750 Ry

     iteration # 36     ecut=    80.00 Ry     beta= 0.20
     Davidson diagonalization with overlap

---- Real-time Memory Report at c_bands before calling an iterative solver
          1218 MiB given to the printing process from OS
             0 MiB allocation reported by mallinfo(arena+hblkhd)
        204408 MiB available memory on the node where the printing process lives
------------------
     ethr =  3.15E-10,  avg # of iterations = 12.6

     negative rho (up, down):  5.296E-04 0.000E+00

     add environment contribution to local potential

     total cpu time spent up to now is     4250.1 secs

     total energy              =   -1022.91759674 Ry
     estimated scf accuracy    <       0.00000039 Ry

     total charge of GC-SCF    =      -8.83178974 e
     the Fermi energy          =      -1.64911986 eV
                        (error :       0.00488014 eV)
     electrostatic embedding   =      -7.61679877 Ry
     cavitation energy         =       0.04170471 Ry
     electrolyte free energy   =      -0.14949343 Ry
     correction to one-el term =     300.66128964 Ry

     iteration # 37     ecut=    80.00 Ry     beta= 0.20
     Davidson diagonalization with overlap

---- Real-time Memory Report at c_bands before calling an iterative solver
          1218 MiB given to the printing process from OS
             0 MiB allocation reported by mallinfo(arena+hblkhd)
        204582 MiB available memory on the node where the printing process lives
------------------
     ethr =  1.84E-10,  avg # of iterations = 17.5

     negative rho (up, down):  5.294E-04 0.000E+00

     add environment contribution to local potential

     total cpu time spent up to now is     4356.0 secs

     total energy              =   -1022.91760484 Ry
     estimated scf accuracy    <       0.00000013 Ry

     total charge of GC-SCF    =      -8.83076726 e
     the Fermi energy          =      -1.65097097 eV
                        (error :       0.00302903 eV)
     electrostatic embedding   =      -7.59333395 Ry
     cavitation energy         =       0.04170471 Ry
     electrolyte free energy   =      -0.14863141 Ry
     correction to one-el term =     300.31059007 Ry

     iteration # 38     ecut=    80.00 Ry     beta= 0.20
     Davidson diagonalization with overlap

---- Real-time Memory Report at c_bands before calling an iterative solver
          1218 MiB given to the printing process from OS
             0 MiB allocation reported by mallinfo(arena+hblkhd)
        204183 MiB available memory on the node where the printing process lives
------------------
     ethr =  5.95E-11,  avg # of iterations = 15.4

     negative rho (up, down):  5.298E-04 0.000E+00

     add environment contribution to local potential

     total cpu time spent up to now is     4461.2 secs

     total energy              =   -1022.91760866 Ry
     estimated scf accuracy    <       0.00000007 Ry

     total charge of GC-SCF    =      -8.81878215 e
     the Fermi energy          =      -1.65151997 eV
                        (error :       0.00248003 eV)
     electrostatic embedding   =      -7.59129990 Ry
     cavitation energy         =       0.04170471 Ry
     electrolyte free energy   =      -0.14857211 Ry
     correction to one-el term =     300.25720703 Ry

     iteration # 39     ecut=    80.00 Ry     beta= 0.20
     Davidson diagonalization with overlap

---- Real-time Memory Report at c_bands before calling an iterative solver
          1218 MiB given to the printing process from OS
             0 MiB allocation reported by mallinfo(arena+hblkhd)
        204451 MiB available memory on the node where the printing process lives
------------------
     ethr =  3.46E-11,  avg # of iterations = 24.3

     negative rho (up, down):  5.296E-04 0.000E+00

     add environment contribution to local potential

     total cpu time spent up to now is     4591.6 secs

     total energy              =   -1022.91761048 Ry
     estimated scf accuracy    <       0.00000004 Ry

     total charge of GC-SCF    =      -8.81600381 e
     the Fermi energy          =      -1.65291319 eV
                        (error :       0.00108681 eV)
     electrostatic embedding   =      -7.57444667 Ry
     cavitation energy         =       0.04170471 Ry
     electrolyte free energy   =      -0.14796788 Ry
     correction to one-el term =     299.98148220 Ry

     iteration # 40     ecut=    80.00 Ry     beta= 0.20
     Davidson diagonalization with overlap

---- Real-time Memory Report at c_bands before calling an iterative solver
          1218 MiB given to the printing process from OS
             0 MiB allocation reported by mallinfo(arena+hblkhd)
        204157 MiB available memory on the node where the printing process lives
------------------
     ethr =  1.74E-11,  avg # of iterations = 13.7

     negative rho (up, down):  5.296E-04 0.000E+00

     add environment contribution to local potential

     total cpu time spent up to now is     4696.1 secs

     total energy              =   -1022.91761282 Ry
     estimated scf accuracy    <       0.00000002 Ry

     total charge of GC-SCF    =      -8.81147048 e
     the Fermi energy          =      -1.65353945 eV
                        (error :       0.00046055 eV)
     electrostatic embedding   =      -7.57003493 Ry
     cavitation energy         =       0.04170471 Ry
     electrolyte free energy   =      -0.14782158 Ry
     correction to one-el term =     299.88870207 Ry

     iteration # 41     ecut=    80.00 Ry     beta= 0.20
     Davidson diagonalization with overlap

---- Real-time Memory Report at c_bands before calling an iterative solver
          1218 MiB given to the printing process from OS
             0 MiB allocation reported by mallinfo(arena+hblkhd)
        204535 MiB available memory on the node where the printing process lives
------------------
     ethr =  8.17E-12,  avg # of iterations = 18.9

     negative rho (up, down):  5.295E-04 0.000E+00

     add environment contribution to local potential

     total cpu time spent up to now is     4814.8 secs

     total energy              =   -1022.91761329 Ry
     estimated scf accuracy    <          8.4E-09 Ry

     total charge of GC-SCF    =      -8.81080417 e
     the Fermi energy          =      -1.65412192 eV
                        (error :       0.00012192 eV)
     electrostatic embedding   =      -7.56346051 Ry
     cavitation energy         =       0.04170471 Ry
     electrolyte free energy   =      -0.14759176 Ry
     correction to one-el term =     299.77285460 Ry

     iteration # 42     ecut=    80.00 Ry     beta= 0.20
     Davidson diagonalization with overlap

---- Real-time Memory Report at c_bands before calling an iterative solver
          1218 MiB given to the printing process from OS
             0 MiB allocation reported by mallinfo(arena+hblkhd)
        204157 MiB available memory on the node where the printing process lives
------------------
     ethr =  3.97E-12,  avg # of iterations = 11.1

     negative rho (up, down):  5.293E-04 0.000E+00

     add environment contribution to local potential

     total cpu time spent up to now is     4905.5 secs

     total energy              =   -1022.91761356 Ry
     estimated scf accuracy    <          9.5E-09 Ry

     total charge of GC-SCF    =      -8.81298558 e
     the Fermi energy          =      -1.65415708 eV
                        (error :       0.00015708 eV)
     electrostatic embedding   =      -7.56233277 Ry
     cavitation energy         =       0.04170471 Ry
     electrolyte free energy   =      -0.14755744 Ry
     correction to one-el term =     299.74823392 Ry

     iteration # 43     ecut=    80.00 Ry     beta= 0.20
     Davidson diagonalization with overlap

---- Real-time Memory Report at c_bands before calling an iterative solver
          1218 MiB given to the printing process from OS
             0 MiB allocation reported by mallinfo(arena+hblkhd)
        204235 MiB available memory on the node where the printing process lives
------------------
     ethr =  3.97E-12,  avg # of iterations = 13.0

     negative rho (up, down):  5.293E-04 0.000E+00

     add environment contribution to local potential

     total cpu time spent up to now is     5012.8 secs

     total energy              =   -1022.91761311 Ry
     estimated scf accuracy    <          3.2E-09 Ry

     total charge of GC-SCF    =      -8.81214227 e
     the Fermi energy          =      -1.65405311 eV
                        (error :       0.00005311 eV)
     electrostatic embedding   =      -7.56538298 Ry
     cavitation energy         =       0.04170471 Ry
     electrolyte free energy   =      -0.14766544 Ry
     correction to one-el term =     299.79629994 Ry

     iteration # 44     ecut=    80.00 Ry     beta= 0.20
     Davidson diagonalization with overlap

---- Real-time Memory Report at c_bands before calling an iterative solver
          1218 MiB given to the printing process from OS
             0 MiB allocation reported by mallinfo(arena+hblkhd)
        204416 MiB available memory on the node where the printing process lives
------------------
     ethr =  1.50E-12,  avg # of iterations = 13.9

     negative rho (up, down):  5.293E-04 0.000E+00

     add environment contribution to local potential

     total cpu time spent up to now is     5121.3 secs

     total energy              =   -1022.91761322 Ry
     estimated scf accuracy    <          1.3E-09 Ry

     total charge of GC-SCF    =      -8.81131675 e
     the Fermi energy          =      -1.65405020 eV
                        (error :       0.00005020 eV)
     electrostatic embedding   =      -7.56433113 Ry
     cavitation energy         =       0.04170471 Ry
     electrolyte free energy   =      -0.14762464 Ry
     correction to one-el term =     299.78293633 Ry

     iteration # 45     ecut=    80.00 Ry     beta= 0.20
     Davidson diagonalization with overlap

---- Real-time Memory Report at c_bands before calling an iterative solver
          1218 MiB given to the printing process from OS
             0 MiB allocation reported by mallinfo(arena+hblkhd)
        204327 MiB available memory on the node where the printing process lives
------------------
     ethr =  6.26E-13,  avg # of iterations = 22.4

     negative rho (up, down):  5.293E-04 0.000E+00

     add environment contribution to local potential

     total cpu time spent up to now is     5243.1 secs

     total energy              =   -1022.91761332 Ry
     estimated scf accuracy    <          1.3E-09 Ry

     total charge of GC-SCF    =      -8.81226996 e
     the Fermi energy          =      -1.65410641 eV
                        (error :       0.00010641 eV)
     electrostatic embedding   =      -7.56329573 Ry
     cavitation energy         =       0.04170471 Ry
     electrolyte free energy   =      -0.14758424 Ry
     correction to one-el term =     299.76970538 Ry

     iteration # 46     ecut=    80.00 Ry     beta= 0.20
     Davidson diagonalization with overlap

---- Real-time Memory Report at c_bands before calling an iterative solver
          1218 MiB given to the printing process from OS
             0 MiB allocation reported by mallinfo(arena+hblkhd)
        204088 MiB available memory on the node where the printing process lives
------------------
     ethr =  6.26E-13,  avg # of iterations = 11.7

     negative rho (up, down):  5.293E-04 0.000E+00

     add environment contribution to local potential

     total cpu time spent up to now is     5341.7 secs

     total energy              =   -1022.91761307 Ry
     estimated scf accuracy    <          1.9E-10 Ry

     total charge of GC-SCF    =      -8.81189374 e
     the Fermi energy          =      -1.65402405 eV
                        (error :       0.00002405 eV)
     electrostatic embedding   =      -7.56470460 Ry
     cavitation energy         =       0.04170471 Ry
     electrolyte free energy   =      -0.14763216 Ry
     correction to one-el term =     299.79410460 Ry

     iteration # 47     ecut=    80.00 Ry     beta= 0.20
     Davidson diagonalization with overlap

---- Real-time Memory Report at c_bands before calling an iterative solver
          1218 MiB given to the printing process from OS
             0 MiB allocation reported by mallinfo(arena+hblkhd)
        204392 MiB available memory on the node where the printing process lives
------------------
     ethr =  1.00E-13,  avg # of iterations = 26.6

     negative rho (up, down):  5.292E-04 0.000E+00

     add environment contribution to local potential

     total cpu time spent up to now is     5473.4 secs

     total energy              =   -1022.91761310 Ry
     estimated scf accuracy    <          7.8E-11 Ry

     total charge of GC-SCF    =      -8.81208347 e
     the Fermi energy          =      -1.65404319 eV
                        (error :       0.00004319 eV)
     electrostatic embedding   =      -7.56422967 Ry
     cavitation energy         =       0.04170471 Ry
     electrolyte free energy   =      -0.14761379 Ry
     correction to one-el term =     299.78798901 Ry

     iteration # 48     ecut=    80.00 Ry     beta= 0.20
     Davidson diagonalization with overlap

---- Real-time Memory Report at c_bands before calling an iterative solver
          1218 MiB given to the printing process from OS
             0 MiB allocation reported by mallinfo(arena+hblkhd)
        204165 MiB available memory on the node where the printing process lives
------------------
     ethr =  1.00E-13,  avg # of iterations = 11.6

     negative rho (up, down):  5.292E-04 0.000E+00

     add environment contribution to local potential

     total cpu time spent up to now is     5557.7 secs

     total energy              =   -1022.91761306 Ry
     estimated scf accuracy    <          3.5E-11 Ry

     total charge of GC-SCF    =      -8.81210109 e
     the Fermi energy          =      -1.65403104 eV
                        (error :       0.00003104 eV)
     electrostatic embedding   =      -7.56449809 Ry
     cavitation energy         =       0.04170471 Ry
     electrolyte free energy   =      -0.14762324 Ry
     correction to one-el term =     299.79237478 Ry

     iteration # 49     ecut=    80.00 Ry     beta= 0.20
     Davidson diagonalization with overlap

---- Real-time Memory Report at c_bands before calling an iterative solver
          1218 MiB given to the printing process from OS
             0 MiB allocation reported by mallinfo(arena+hblkhd)
        204220 MiB available memory on the node where the printing process lives
------------------
     ethr =  1.00E-13,  avg # of iterations =  9.5

     negative rho (up, down):  5.292E-04 0.000E+00

     add environment contribution to local potential

     total cpu time spent up to now is     5628.5 secs

     total energy              =   -1022.91761306 Ry
     estimated scf accuracy    <          2.6E-11 Ry

     total charge of GC-SCF    =      -8.81231014 e
     the Fermi energy          =      -1.65402018 eV
                        (error :       0.00002018 eV)
     electrostatic embedding   =      -7.56451864 Ry
     cavitation energy         =       0.04170471 Ry
     electrolyte free energy   =      -0.14762419 Ry
     correction to one-el term =     299.79269865 Ry

     iteration # 50     ecut=    80.00 Ry     beta= 0.20
     Davidson diagonalization with overlap

---- Real-time Memory Report at c_bands before calling an iterative solver
          1218 MiB given to the printing process from OS
             0 MiB allocation reported by mallinfo(arena+hblkhd)
        204128 MiB available memory on the node where the printing process lives
------------------
     ethr =  1.00E-13,  avg # of iterations = 12.5

     negative rho (up, down):  5.291E-04 0.000E+00

     add environment contribution to local potential

     total cpu time spent up to now is     5722.5 secs

     total energy              =   -1022.91761302 Ry
     estimated scf accuracy    <          7.1E-12 Ry

     total charge of GC-SCF    =      -8.81236182 e
     the Fermi energy          =      -1.65399965 eV
                        (error :       0.00000035 eV)
     electrostatic embedding   =      -7.56480793 Ry
     cavitation energy         =       0.04170471 Ry
     electrolyte free energy   =      -0.14763464 Ry
     correction to one-el term =     299.79732149 Ry

     iteration # 51     ecut=    80.00 Ry     beta= 0.20
     Davidson diagonalization with overlap

---- Real-time Memory Report at c_bands before calling an iterative solver
          1218 MiB given to the printing process from OS
             0 MiB allocation reported by mallinfo(arena+hblkhd)
        204338 MiB available memory on the node where the printing process lives
------------------
     ethr =  1.00E-13,  avg # of iterations =  9.0

     negative rho (up, down):  5.291E-04 0.000E+00

     add environment contribution to local potential

     total cpu time spent up to now is     5790.5 secs

     total energy              =   -1022.91761301 Ry
     estimated scf accuracy    <          3.4E-12 Ry

     total charge of GC-SCF    =      -8.81234205 e
     the Fermi energy          =      -1.65399389 eV
                        (error :       0.00000611 eV)
     electrostatic embedding   =      -7.56487918 Ry
     cavitation energy         =       0.04170471 Ry
     electrolyte free energy   =      -0.14763722 Ry
     correction to one-el term =     299.79843468 Ry

     iteration # 52     ecut=    80.00 Ry     beta= 0.20
     Davidson diagonalization with overlap

[...]
     atom   63 type  1   force =     0.00007710    0.25007836   14.02932462
     atom   64 type  1   force =    -0.00028069    0.05073285    5.29741137
     atom   65 type  1   force =    -0.00006659   -0.22828236   12.36547431
     atom   66 type  1   force =    -0.00005906    0.20877640  -14.51935460
     atom   67 type  1   force =     0.00008575   -0.14721935  -11.91451852
     atom   68 type  1   force =    -0.00010259   -0.03522095  -13.61053525
     The core correction contribution to forces
     atom    1 type  1   force =     0.00000000    0.00000000    0.00000000
     atom    2 type  1   force =     0.00000000    0.00000000    0.00000000
     atom    3 type  1   force =     0.00000000    0.00000000    0.00000000
     atom    4 type  1   force =     0.00000000    0.00000000    0.00000000
     atom    5 type  1   force =     0.00000000    0.00000000    0.00000000
     atom    6 type  1   force =     0.00000000    0.00000000    0.00000000
     atom    7 type  1   force =     0.00000000    0.00000000    0.00000000
     atom    8 type  1   force =     0.00000000    0.00000000    0.00000000
     atom    9 type  1   force =     0.00000000    0.00000000    0.00000000
     atom   10 type  1   force =     0.00000000    0.00000000    0.00000000
     atom   11 type  1   force =     0.00000000    0.00000000    0.00000000
     atom   12 type  1   force =     0.00000000    0.00000000    0.00000000
     atom   13 type  1   force =     0.00000000    0.00000000    0.00000000
     atom   14 type  1   force =     0.00000000    0.00000000    0.00000000
     atom   15 type  1   force =     0.00000000    0.00000000    0.00000000
     atom   16 type  1   force =     0.00000000    0.00000000    0.00000000
     atom   17 type  1   force =     0.00000000    0.00000000    0.00000000
     atom   18 type  1   force =     0.00000000    0.00000000    0.00000000
     atom   19 type  1   force =     0.00000000    0.00000000    0.00000000
     atom   20 type  1   force =     0.00000000    0.00000000    0.00000000
     atom   21 type  1   force =     0.00000000    0.00000000    0.00000000
     atom   22 type  1   force =     0.00000000    0.00000000    0.00000000
     atom   23 type  1   force =     0.00000000    0.00000000    0.00000000
     atom   24 type  1   force =     0.00000000    0.00000000    0.00000000
     atom   25 type  1   force =     0.00000000    0.00000000    0.00000000
     atom   26 type  1   force =     0.00000000    0.00000000    0.00000000
     atom   27 type  1   force =     0.00000000    0.00000000    0.00000000
     atom   28 type  1   force =     0.00000000    0.00000000    0.00000000
     atom   29 type  1   force =     0.00000000    0.00000000    0.00000000
     atom   30 type  1   force =     0.00000000    0.00000000    0.00000000
     atom   31 type  1   force =     0.00000000    0.00000000    0.00000000
     atom   32 type  1   force =     0.00000000    0.00000000    0.00000000
     atom   33 type  1   force =     0.00000000    0.00000000    0.00000000
     atom   34 type  1   force =     0.00000000    0.00000000    0.00000000
     atom   35 type  1   force =     0.00000000    0.00000000    0.00000000
     atom   36 type  1   force =     0.00000000    0.00000000    0.00000000
     atom   37 type  1   force =     0.00000000    0.00000000    0.00000000
     atom   38 type  1   force =     0.00000000    0.00000000    0.00000000
     atom   39 type  1   force =     0.00000000    0.00000000    0.00000000
     atom   40 type  1   force =     0.00000000    0.00000000    0.00000000
     atom   41 type  1   force =     0.00000000    0.00000000    0.00000000
     atom   42 type  1   force =     0.00000000    0.00000000    0.00000000
     atom   43 type  1   force =     0.00000000    0.00000000    0.00000000
     atom   44 type  1   force =     0.00000000    0.00000000    0.00000000
     atom   45 type  1   force =     0.00000000    0.00000000    0.00000000
     atom   46 type  1   force =     0.00000000    0.00000000    0.00000000
     atom   47 type  1   force =     0.00000000    0.00000000    0.00000000
     atom   48 type  1   force =     0.00000000    0.00000000    0.00000000
     atom   49 type  1   force =     0.00000000    0.00000000    0.00000000
     atom   50 type  1   force =     0.00000000    0.00000000    0.00000000
     atom   51 type  1   force =     0.00000000    0.00000000    0.00000000
     atom   52 type  1   force =     0.00000000    0.00000000    0.00000000
     atom   53 type  1   force =     0.00000000    0.00000000    0.00000000
     atom   54 type  1   force =     0.00000000    0.00000000    0.00000000
     atom   55 type  1   force =     0.00000000    0.00000000    0.00000000
     atom   56 type  1   force =     0.00000000    0.00000000    0.00000000
     atom   57 type  1   force =     0.00000000    0.00000000    0.00000000
     atom   58 type  1   force =     0.00000000    0.00000000    0.00000000
     atom   59 type  1   force =     0.00000000    0.00000000    0.00000000
     atom   60 type  1   force =     0.00000000    0.00000000    0.00000000
     atom   61 type  1   force =     0.00000000    0.00000000    0.00000000
     atom   62 type  1   force =     0.00000000    0.00000000    0.00000000
     atom   63 type  1   force =     0.00000000    0.00000000    0.00000000
     atom   64 type  1   force =     0.00000000    0.00000000    0.00000000
     atom   65 type  1   force =     0.00000000    0.00000000    0.00000000
     atom   66 type  1   force =     0.00000000    0.00000000    0.00000000
     atom   67 type  1   force =     0.00000000    0.00000000    0.00000000
     atom   68 type  1   force =     0.00000000    0.00000000    0.00000000
     The Hubbard contrib.    to forces
     atom    1 type  1   force =     0.00000000    0.00000000    0.00000000
     atom    2 type  1   force =     0.00000000    0.00000000    0.00000000
     atom    3 type  1   force =     0.00000000    0.00000000    0.00000000
     atom    4 type  1   force =     0.00000000    0.00000000    0.00000000
     atom    5 type  1   force =     0.00000000    0.00000000    0.00000000
     atom    6 type  1   force =     0.00000000    0.00000000    0.00000000
     atom    7 type  1   force =     0.00000000    0.00000000    0.00000000
     atom    8 type  1   force =     0.00000000    0.00000000    0.00000000
     atom    9 type  1   force =     0.00000000    0.00000000    0.00000000
     atom   10 type  1   force =     0.00000000    0.00000000    0.00000000
     atom   11 type  1   force =     0.00000000    0.00000000    0.00000000
     atom   12 type  1   force =     0.00000000    0.00000000    0.00000000
     atom   13 type  1   force =     0.00000000    0.00000000    0.00000000
     atom   14 type  1   force =     0.00000000    0.00000000    0.00000000
     atom   15 type  1   force =     0.00000000    0.00000000    0.00000000
     atom   16 type  1   force =     0.00000000    0.00000000    0.00000000
     atom   17 type  1   force =     0.00000000    0.00000000    0.00000000
     atom   18 type  1   force =     0.00000000    0.00000000    0.00000000
     atom   19 type  1   force =     0.00000000    0.00000000    0.00000000
     atom   20 type  1   force =     0.00000000    0.00000000    0.00000000
     atom   21 type  1   force =     0.00000000    0.00000000    0.00000000
     atom   22 type  1   force =     0.00000000    0.00000000    0.00000000
     atom   23 type  1   force =     0.00000000    0.00000000    0.00000000
     atom   24 type  1   force =     0.00000000    0.00000000    0.00000000
     atom   25 type  1   force =     0.00000000    0.00000000    0.00000000
     atom   26 type  1   force =     0.00000000    0.00000000    0.00000000
     atom   27 type  1   force =     0.00000000    0.00000000    0.00000000
     atom   28 type  1   force =     0.00000000    0.00000000    0.00000000
     atom   29 type  1   force =     0.00000000    0.00000000    0.00000000
     atom   30 type  1   force =     0.00000000    0.00000000    0.00000000
     atom   31 type  1   force =     0.00000000    0.00000000    0.00000000
     atom   32 type  1   force =     0.00000000    0.00000000    0.00000000
     atom   33 type  1   force =     0.00000000    0.00000000    0.00000000
     atom   34 type  1   force =     0.00000000    0.00000000    0.00000000
     atom   35 type  1   force =     0.00000000    0.00000000    0.00000000
     atom   36 type  1   force =     0.00000000    0.00000000    0.00000000
     atom   37 type  1   force =     0.00000000    0.00000000    0.00000000
     atom   38 type  1   force =     0.00000000    0.00000000    0.00000000
     atom   39 type  1   force =     0.00000000    0.00000000    0.00000000
     atom   40 type  1   force =     0.00000000    0.00000000    0.00000000
     atom   41 type  1   force =     0.00000000    0.00000000    0.00000000
     atom   42 type  1   force =     0.00000000    0.00000000    0.00000000
     atom   43 type  1   force =     0.00000000    0.00000000    0.00000000
     atom   44 type  1   force =     0.00000000    0.00000000    0.00000000
     atom   45 type  1   force =     0.00000000    0.00000000    0.00000000
     atom   46 type  1   force =     0.00000000    0.00000000    0.00000000
     atom   47 type  1   force =     0.00000000    0.00000000    0.00000000
     atom   48 type  1   force =     0.00000000    0.00000000    0.00000000
     atom   49 type  1   force =     0.00000000    0.00000000    0.00000000
     atom   50 type  1   force =     0.00000000    0.00000000    0.00000000
     atom   51 type  1   force =     0.00000000    0.00000000    0.00000000
     atom   52 type  1   force =     0.00000000    0.00000000    0.00000000
     atom   53 type  1   force =     0.00000000    0.00000000    0.00000000
     atom   54 type  1   force =     0.00000000    0.00000000    0.00000000
     atom   55 type  1   force =     0.00000000    0.00000000    0.00000000
     atom   56 type  1   force =     0.00000000    0.00000000    0.00000000
     atom   57 type  1   force =     0.00000000    0.00000000    0.00000000
     atom   58 type  1   force =     0.00000000    0.00000000    0.00000000
     atom   59 type  1   force =     0.00000000    0.00000000    0.00000000
     atom   60 type  1   force =     0.00000000    0.00000000    0.00000000
     atom   61 type  1   force =     0.00000000    0.00000000    0.00000000
     atom   62 type  1   force =     0.00000000    0.00000000    0.00000000
     atom   63 type  1   force =     0.00000000    0.00000000    0.00000000
     atom   64 type  1   force =     0.00000000    0.00000000    0.00000000
     atom   65 type  1   force =     0.00000000    0.00000000    0.00000000
     atom   66 type  1   force =     0.00000000    0.00000000    0.00000000
     atom   67 type  1   force =     0.00000000    0.00000000    0.00000000
     atom   68 type  1   force =     0.00000000    0.00000000    0.00000000
     The SCF correction term to forces
     atom    1 type  1   force =     0.00000000   -0.00000003   -0.00000000
     atom    2 type  1   force =    -0.00000000   -0.00000003   -0.00000000
     atom    3 type  1   force =     0.00000000   -0.00000002   -0.00000005
     atom    4 type  1   force =    -0.00000000    0.00000002   -0.00000002
     atom    5 type  1   force =     0.00000000    0.00000001   -0.00000004
     atom    6 type  1   force =     0.00000000    0.00000000   -0.00000005
     atom    7 type  1   force =     0.00000000   -0.00000001   -0.00000003
     atom    8 type  1   force =    -0.00000000   -0.00000000   -0.00000005
     atom    9 type  1   force =    -0.00000000   -0.00000000   -0.00000005
     atom   10 type  1   force =     0.00000000    0.00000001   -0.00000003
     atom   11 type  1   force =    -0.00000000    0.00000001   -0.00000000
     atom   12 type  1   force =    -0.00000000    0.00000001    0.00000002
     atom   13 type  1   force =     0.00000000   -0.00000000   -0.00000004
     atom   14 type  1   force =     0.00000000   -0.00000001    0.00000000
     atom   15 type  1   force =     0.00000000   -0.00000001    0.00000003
     atom   16 type  1   force =    -0.00000000    0.00000000    0.00000005
     atom   17 type  1   force =     0.00000000    0.00000000    0.00000002
     atom   18 type  1   force =    -0.00000000    0.00000000   -0.00000004
     atom   19 type  1   force =     0.00000000   -0.00000001   -0.00000005
     atom   20 type  1   force =     0.00000000   -0.00000001   -0.00000005
     atom   21 type  1   force =     0.00000000    0.00000001   -0.00000004
     atom   22 type  1   force =     0.00000000    0.00000001   -0.00000004
     atom   23 type  1   force =     0.00000000    0.00000001   -0.00000002
     atom   24 type  1   force =     0.00000000   -0.00000001    0.00000001
     atom   25 type  1   force =     0.00000000   -0.00000001   -0.00000004
     atom   26 type  1   force =    -0.00000000   -0.00000000   -0.00000002
     atom   27 type  1   force =     0.00000000    0.00000000    0.00000002
     atom   28 type  1   force =    -0.00000000    0.00000002    0.00000003
     atom   29 type  1   force =    -0.00000000    0.00000003    0.00000001
     atom   30 type  1   force =     0.00000000   -0.00000000    0.00000000
     atom   31 type  1   force =    -0.00000000   -0.00000002    0.00000002
     atom   32 type  1   force =     0.00000000    0.00000003    0.00000002
     atom   33 type  1   force =     0.00000000    0.00000000   -0.00000001
     atom   34 type  1   force =    -0.00000000   -0.00000001   -0.00000005
     atom   35 type  1   force =    -0.00000000   -0.00000003    0.00000000
     atom   36 type  1   force =    -0.00000000   -0.00000003   -0.00000001
     atom   37 type  1   force =    -0.00000000   -0.00000002   -0.00000005
     atom   38 type  1   force =     0.00000000    0.00000002   -0.00000002
     atom   39 type  1   force =     0.00000000    0.00000001   -0.00000004
     atom   40 type  1   force =    -0.00000000    0.00000000   -0.00000005
     atom   41 type  1   force =    -0.00000000   -0.00000001   -0.00000002
     atom   42 type  1   force =    -0.00000000   -0.00000001   -0.00000005
     atom   43 type  1   force =     0.00000000    0.00000000   -0.00000004
     atom   44 type  1   force =    -0.00000000    0.00000001   -0.00000003
     atom   45 type  1   force =    -0.00000000    0.00000001   -0.00000000
     atom   46 type  1   force =    -0.00000000    0.00000001    0.00000002
     atom   47 type  1   force =    -0.00000000   -0.00000000   -0.00000004
     atom   48 type  1   force =     0.00000000   -0.00000001    0.00000000
     atom   49 type  1   force =     0.00000000   -0.00000001    0.00000003
     atom   50 type  1   force =    -0.00000000    0.00000000    0.00000005
     atom   51 type  1   force =    -0.00000000    0.00000000    0.00000001
     atom   52 type  1   force =    -0.00000000    0.00000001   -0.00000004
     atom   53 type  1   force =     0.00000000   -0.00000001   -0.00000005
     atom   54 type  1   force =    -0.00000000   -0.00000001   -0.00000005
     atom   55 type  1   force =    -0.00000000    0.00000001   -0.00000005
     atom   56 type  1   force =     0.00000000    0.00000001   -0.00000004
     atom   57 type  1   force =    -0.00000000    0.00000001   -0.00000002
     atom   58 type  1   force =    -0.00000000   -0.00000001    0.00000001
     atom   59 type  1   force =    -0.00000000   -0.00000001   -0.00000004
     atom   60 type  1   force =     0.00000000   -0.00000000   -0.00000002
     atom   61 type  1   force =    -0.00000000    0.00000000    0.00000002
     atom   62 type  1   force =    -0.00000000    0.00000002    0.00000004
     atom   63 type  1   force =     0.00000000    0.00000003    0.00000001
     atom   64 type  1   force =     0.00000000   -0.00000000    0.00000000
     atom   65 type  1   force =    -0.00000000   -0.00000002    0.00000002
     atom   66 type  1   force =    -0.00000000    0.00000003    0.00000001
     atom   67 type  1   force =    -0.00000000   -0.00000000   -0.00000002
     atom   68 type  1   force =     0.00000000   -0.00000000   -0.00000005

     Total force =     0.003654     Total SCF correction =     0.000000

     Writing all to output data dir ./Li/Lithium.save/ :
     XML data file
     init_run     :     36.40s CPU     48.10s WALL (       1 calls)
     electrons    :   4651.83s CPU   6156.84s WALL (       1 calls)
     forces       :    109.97s CPU    114.11s WALL (       1 calls)

     Called by init_run:
     wfcinit      :      7.56s CPU     10.77s WALL (       1 calls)
     wfcinit:wfcr :      6.95s CPU     10.15s WALL (      13 calls)
     potinit      :      1.19s CPU      1.27s WALL (       1 calls)
     hinit0       :     12.42s CPU     20.44s WALL (       1 calls)

     Called by electrons:
     c_bands      :   3600.32s CPU   4879.24s WALL (      60 calls)
     sum_band     :    217.06s CPU    302.16s WALL (      60 calls)
     v_of_rho     :      8.48s CPU      9.81s WALL (      61 calls)
     v_h          :      0.66s CPU      0.82s WALL (      61 calls)
     v_xc         :      7.81s CPU      8.98s WALL (      61 calls)
     newd         :      4.98s CPU      6.08s WALL (      61 calls)
     PAW_pot      :      0.63s CPU      0.86s WALL (      61 calls)
     mix_rho      :     26.17s CPU     30.84s WALL (      60 calls)

     Called by c_bands:
     init_us_2    :     40.26s CPU     40.46s WALL (    1586 calls)
     cegterg      :   3343.79s CPU   4249.16s WALL (    1013 calls)

     Called by sum_band:
     sum_band:wei :      0.16s CPU      0.18s WALL (      60 calls)
     sum_band:loo :    210.37s CPU    294.79s WALL (      60 calls)
     sum_band:buf :      4.43s CPU      4.54s WALL (     780 calls)
     sum_band:ini :     19.91s CPU     19.93s WALL (     780 calls)
     sum_band:cal :     39.68s CPU     42.31s WALL (     780 calls)
     sum_band:bec :      0.31s CPU      0.37s WALL (     780 calls)
     addusdens    :      5.14s CPU      5.19s WALL (      60 calls)
                                        0.00s GPU  (      60 calls)
     addusd:skk   :      1.46s CPU      1.46s WALL (      60 calls)
                                        0.00s GPU  (      60 calls)

     Called by *egterg:
     cdiaghg      :    767.50s CPU    877.29s WALL (   12870 calls)
     cegterg:over :    254.06s CPU    273.92s WALL (   11933 calls)
     cegterg:upda :    215.54s CPU    224.13s WALL (   11933 calls)
     cegterg:last :     98.73s CPU    106.05s WALL (    1359 calls)
     cdiaghg:chol :     38.10s CPU     70.29s WALL (   12870 calls)
     cdiaghg:inve :     16.87s CPU     18.86s WALL (   12870 calls)
     cdiaghg:para :    210.35s CPU    247.93s WALL (   25740 calls)
     h_psi        :   1753.60s CPU   2511.16s WALL (   12959 calls)
     s_psi        :    206.73s CPU    207.51s WALL (   12959 calls)
     g_psi        :      3.78s CPU      4.09s WALL (   11933 calls)

     Called by h_psi:
     h_psi:calbec :    244.80s CPU    266.38s WALL (   12959 calls)
     vloc_psi     :   1277.92s CPU   2011.97s WALL (   12959 calls)
                                        0.00s GPU  (   12959 calls)
     add_vuspsi   :    216.90s CPU    218.26s WALL (   12959 calls)

     General routines
     calbec       :    286.83s CPU    311.20s WALL (   13791 calls)
     fft          :     10.82s CPU     19.68s WALL (     793 calls)
     ffts         :     13.39s CPU     16.36s WALL (    7378 calls)
     fftw         :   1371.31s CPU   2160.97s WALL ( 1194962 calls)
     interpolate  :      1.63s CPU      1.75s WALL (      61 calls)

     Parallel routines

     PAW routines
     PAW_pot      :      0.63s CPU      0.86s WALL (      61 calls)

     Environ routines

     PWSCF        :      1h19m CPU      1h45m WALL


   This run was terminated on:   3:42:57  24Jan2025            

=------------------------------------------------------------------------------=
   JOB DONE.
=------------------------------------------------------------------------------=
