
     Program PWSCF v.7.4 starts on 20Jan2025 at  4:23:43 

     This program is part of the open-source Quantum ESPRESSO suite
     for quantum simulation of materials; please cite
         "P. Giannozzi et al., J. Phys.:Condens. Matter 21 395502 (2009);
         "P. Giannozzi et al., J. Phys.:Condens. Matter 29 465901 (2017);
         "P. Giannozzi et al., J. Chem. Phys. 152 154105 (2020);
          URL http://www.quantum-espresso.org", 
     in publications or presentations arising from this work. More details at
     http://www.quantum-espresso.org/quote

     Parallel version (MPI & OpenMP), running on     384 processor cores
     Number of MPI processes:               384
     Threads/MPI process:                     1

     MPI processes distributed on     3 nodes
     492816 MiB available memory on the printing compute node when the environment starts

     Reading input from espresso.pwi
Warning: card &CELL ignored
Warning: card    PRESS_CONV_THR   = 0.1 ignored
Warning: card    CELL_DOFREE      = 'ALL' ignored
Warning: card / ignored
Warning: card &FCP ignored
Warning: card / ignored
Warning: card &RISM ignored
Warning: card / ignored

     Current dimensions of program PWSCF are:
     Max number of different atomic species (ntypx) = 10
     Max number of k-points (npk) =  40000
     Max angular momentum in pseudopotentials (lmaxx) =  4

     IMPORTANT: XC functional enforced from input :
     Exchange-correlation= PBE
                           (   1   4   3   4   0   0   0)
     Any further DFT definition will be discarded
     Please, verify this is what you really want


     Reading input from environ.in:
     * using ionic solvent mode
     * setting boundary derivatives method to SSCS default
     * setting electrolyte-boundary derivatives method to SSCS default

Environ Warning (1001): card EOF ignored

     

     K-points division:     npool     =       2
     R & G space division:  proc/nbgrp/npool/nimage =     192
     Subspace diagonalization in iterative solution of the eigenvalue problem:
     a serial algorithm will be used


     Parallelization info
     --------------------
     sticks:   dense  smooth     PW     G-vecs:    dense   smooth      PW
     Min          83      33      8                47331    11965    1600
     Max          84      34      9                47398    12006    1675
     Sum       16113    6449   1713              9095383  2301201  316649

     Using Slab Decomposition



     bravais-lattice index     =           12
     lattice parameter (alat)  =      18.3607  a.u.
     unit-cell volume          =   23801.8584 (a.u.)^3
     number of atoms/cell      =           36
     number of atomic types    =            1
     number of electrons       =       108.00
     number of Kohn-Sham states=           81
     kinetic-energy cutoff     =      80.0000  Ry
     charge density cutoff     =     800.0000  Ry
     scf convergence threshold =      1.0E-16
     mixing beta               =       0.2000
     number of iterations used =            8  local-TF  mixing
     Exchange-correlation= PBE
                           (   1   4   3   4   0   0   0)

     ================================================================================

                                  Environ Setup Summary

     ================================================================================

     Please cite

          O. Andreussi, I. Dabo and N. Marzari, J. Chem. Phys. 136, 064102 (2012)
          F. Nattino, M. Truscott, N. Marzari, and O. Andreussi, J. Chem. Phys. 150, 041722 (2019)

     in publications or presentations arising from this work.

     ================================================================================

     Parameters
     ==========

     compensation onset threshold      =               0.1000E+00
     static permittivity               =                    89.90
     surface tension in input (dyn/cm) =                    37.30
     surface tension in internal units =               0.4792E-04

     Solvent Boundary
     ================

     solvent mode                      =                    ionic
     derivatives method                =                   lowmem
     electrolyte derivatives method    =                   lowmem
     numerical core for derivatives    =                      fft
     switching function adopted        =                     SCCS
     density limit for vacuum region   =               0.5000E-02
     density limit for bulk solvent    =               0.1000E-03
     soft-sphere radius mode           =                    bondi
     soft-sphere softness              =                     0.50
     alpha                             =                     1.32

     Electrostatic Setup
     ===================

     electrostatic problem to solve    =                    modpb
     numerical solver adopted          =                   newton
     type of auxiliary density adopted =                     none
     numerical core for poisson        =                      fft
     adopting a nested solver scheme
     inner solver                      =                       cg
     inner core                        =                      fft
     type of pbc corrections           =                parabolic
     numerical core for corrections    =                      1da

     ================================================================================


     >>>>> Grand-Canonical SCF is activated <<<<<
     Initial Total Charge  =     0.000000 e
     Target Fermi Energy   =    -4.904000 eV
     Thr. of Fermi Energy  =     0.001000 eV
     Wave-shift of Kerker  =     0.400000 bohr^-1
     Wave-shift of Hartree =     1.500000 bohr^-1
     Mixing Rate of Fermi  =     0.050000

     celldm(1)=  18.360747  celldm(2)=   0.790569  celldm(3)=   5.127180
     celldm(4)=   0.316228  celldm(5)=   0.000000  celldm(6)=   0.000000

     crystal axes: (cart. coord. in units of alat)
               a(1) = (   1.000000   0.000000   0.000000 )  
               a(2) = (   0.250000   0.750000   0.000000 )  
               a(3) = (   0.000000   0.000000   5.127180 )  

     reciprocal axes: (cart. coord. in units 2 pi/alat)
               b(1) = (  1.000000 -0.333333  0.000000 )  
               b(2) = (  0.000000  1.333333  0.000000 )  
               b(3) = (  0.000000  0.000000  0.195039 )  


     PseudoPot. # 1 for Li read from file:
     /work/e89/e89/ba3g18/Repos/Pseudopotentials/Pslibrary/Li.pbe-sl-kjpaw_psl.1.0.0.UPF
     MD5 check sum: 3f4d2cafebb47c6c3aa8ed472e6f074d
     Pseudo is Projector augmented-wave, Zval =  3.0
     Generated using 'atomic' code by A. Dal Corso  v.7.4
     Shape of augmentation charge: PSQ
     Using radial grid of 1017 points,  4 beta functions with: 
                l(1) =   0
                l(2) =   0
                l(3) =   1
                l(4) =   1
     Q(r) pseudized with 0 coefficients 


     atomic species   valence    mass     pseudopotential
     Li                3.00     6.94000     Li( 1.00)

     No symmetry found


                                    s                        frac. trans.

      isym =  1     identity                                     

 cryst.   s( 1) = (     1          0          0      )
                  (     0          1          0      )
                  (     0          0          1      )

 cart.    s( 1) = (  1.0000000  0.0000000  0.0000000 )
                  (  0.0000000  1.0000000  0.0000000 )
                  (  0.0000000  0.0000000  1.0000000 )


     point group C_1 (1)    
     there are  1 classes
     the character table:

       E    
A      1.00

     the symmetry operations in each class and the name of the first element:

     E        1
          identity                                               

   Cartesian axes

     site n.     atom                  positions (alat units)
         1        Li     tau(   1) = (   0.0001026  -0.1219145   3.1281664  )
         2        Li     tau(   2) = (   0.2499674   0.4066104   2.0761582  )
         3        Li     tau(   3) = (   0.2499207   0.0690081   2.2984762  )
         4        Li     tau(   4) = (   0.4999450   0.5034423   2.3202513  )
         5        Li     tau(   5) = (   0.4999916   0.1574167   2.4912468  )
         6        Li     tau(   6) = (   0.2500501   0.5977497   2.5535881  )
         7        Li     tau(   7) = (   0.2500288   0.2430609   2.7236906  )
         8        Li     tau(   8) = (   0.5000692   0.6731568   2.8622611  )
         9        Li     tau(   9) = (   0.5000779   0.3673477   2.9413879  )
        10        Li     tau(  10) = (   0.2499307   0.6601772   2.2649155  )
        11        Li     tau(  11) = (   0.2499723   0.3402736   2.4034759  )
        12        Li     tau(  12) = (   0.4999496   0.7355777   2.5735883  )
        13        Li     tau(  13) = (   0.5000082   0.4259156   2.6359306  )
        14        Li     tau(  14) = (   0.5000555   0.0798927   2.8069266  )
        15        Li     tau(  15) = (   0.2500812   0.5143242   2.8287030  )
        16        Li     tau(  16) = (   0.2500408   0.1767196   3.0510130  )
        17        Li     tau(  17) = (   0.4999277   0.7052504   1.9990168  )
        18        Li     tau(  18) = (   0.4999244   0.2159862   2.1857896  )
        19        Li     tau(  19) = (   0.5000700  -0.1219193   3.1281670  )
        20        Li     tau(  20) = (   0.7499597   0.4066128   2.0761687  )
        21        Li     tau(  21) = (   0.7499188   0.0690094   2.2984776  )
        22        Li     tau(  22) = (   0.9999405   0.5034444   2.3202551  )
        23        Li     tau(  23) = (   0.9999940   0.1574172   2.4912441  )
        24        Li     tau(  24) = (   0.7500506   0.5977524   2.5535885  )
        25        Li     tau(  25) = (   0.7500278   0.2430607   2.7237011  )
        26        Li     tau(  26) = (   1.0000697   0.6731584   2.8622644  )
        27        Li     tau(  27) = (   1.0000698   0.3673413   2.9413897  )
        28        Li     tau(  28) = (   0.7499304   0.6601788   2.2649175  )
        29        Li     tau(  29) = (   0.7499710   0.3402733   2.4034854  )
        30        Li     tau(  30) = (   0.9999499   0.7355821   2.5735929  )
        31        Li     tau(  31) = (   1.0000062   0.4259149   2.6359345  )
        32        Li     tau(  32) = (   1.0000590   0.0798906   2.8069233  )
        33        Li     tau(  33) = (   0.7500793   0.5143306   2.8287026  )
        34        Li     tau(  34) = (   0.7500321   0.1767194   3.0510269  )
        35        Li     tau(  35) = (   0.9998997   0.7052466   1.9990189  )
        36        Li     tau(  36) = (   0.9999279   0.2159916   2.1857882  )

   Crystallographic axes

     site n.     atom                  positions (cryst. coord.)
         1        Li     tau(   1) = (  0.0407408 -0.1625527  0.6101144  )
         2        Li     tau(   2) = (  0.1144306  0.5421472  0.4049318  )
         3        Li     tau(   3) = (  0.2269180  0.0920108  0.4482925  )
         4        Li     tau(   4) = (  0.3321309  0.6712564  0.4525395  )
         5        Li     tau(   5) = (  0.4475194  0.2098889  0.4858903  )
         6        Li     tau(   6) = (  0.0508002  0.7969997  0.4980492  )
         7        Li     tau(   7) = (  0.1690085  0.3240812  0.5312259  )
         8        Li     tau(   8) = (  0.2756836  0.8975424  0.5582525  )
         9        Li     tau(   9) = (  0.3776286  0.4897969  0.5736853  )
        10        Li     tau(  10) = (  0.0298717  0.8802362  0.4417468  )
        11        Li     tau(  11) = (  0.1365478  0.4536981  0.4687715  )
        12        Li     tau(  12) = (  0.2547570  0.9807703  0.5019501  )
        13        Li     tau(  13) = (  0.3580364  0.5678875  0.5141092  )
        14        Li     tau(  14) = (  0.4734246  0.1065236  0.5474601  )
        15        Li     tau(  15) = (  0.0786398  0.6857656  0.5517074  )
        16        Li     tau(  16) = (  0.1911343  0.2356261  0.5950665  )
        17        Li     tau(  17) = (  0.2648443  0.9403339  0.3898862  )
        18        Li     tau(  18) = (  0.4279290  0.2879816  0.4263142  )
        19        Li     tau(  19) = (  0.5407097 -0.1625591  0.6101145  )
        20        Li     tau(  20) = (  0.6144221  0.5421505  0.4049338  )
        21        Li     tau(  21) = (  0.7269156  0.0920126  0.4482928  )
        22        Li     tau(  22) = (  0.8321257  0.6712592  0.4525402  )
        23        Li     tau(  23) = (  0.9475216  0.2098896  0.4858897  )
        24        Li     tau(  24) = (  0.5507998  0.7970032  0.4980493  )
        25        Li     tau(  25) = (  0.6690076  0.3240809  0.5312279  )
        26        Li     tau(  26) = (  0.7756836  0.8975445  0.5582532  )
        27        Li     tau(  27) = (  0.8776227  0.4897883  0.5736857  )
        28        Li     tau(  28) = (  0.5298708  0.8802384  0.4417472  )
        29        Li     tau(  29) = (  0.6365466  0.4536977  0.4687734  )
        30        Li     tau(  30) = (  0.7547558  0.9807761  0.5019510  )
        31        Li     tau(  31) = (  0.8580346  0.5678866  0.5141100  )
        32        Li     tau(  32) = (  0.9734288  0.1065208  0.5474595  )
        33        Li     tau(  33) = (  0.5786357  0.6857742  0.5517073  )
        34        Li     tau(  34) = (  0.6911257  0.2356258  0.5950692  )
        35        Li     tau(  35) = (  0.7648175  0.9403288  0.3898866  )
        36        Li     tau(  36) = (  0.9279308  0.2879887  0.4263139  )

     number of k points=    32  Marzari-Vanderbilt smearing, width (Ry)=  0.0100
                       cart. coord. in units 2pi/alat
        k(    1) = (   0.0000000   0.0000000   0.0000000), wk =   0.0317460
        k(    2) = (   0.0000000   0.1481481   0.0000000), wk =   0.0634921
        k(    3) = (   0.0000000   0.2962963   0.0000000), wk =   0.0634921
        k(    4) = (   0.0000000   0.4444444   0.0000000), wk =   0.0634921
        k(    5) = (   0.0000000   0.5925926   0.0000000), wk =   0.0634921
        k(    6) = (   0.1428571  -0.0476190   0.0000000), wk =   0.0634921
        k(    7) = (   0.1428571   0.1005291   0.0000000), wk =   0.0634921
        k(    8) = (   0.1428571   0.2486772   0.0000000), wk =   0.0634921
        k(    9) = (   0.1428571   0.3968254   0.0000000), wk =   0.0634921
        k(   10) = (   0.1428571   0.5449735   0.0000000), wk =   0.0634921
        k(   11) = (   0.1428571  -0.6402116   0.0000000), wk =   0.0634921
        k(   12) = (   0.1428571  -0.4920635   0.0000000), wk =   0.0634921
        k(   13) = (   0.1428571  -0.3439153   0.0000000), wk =   0.0634921
        k(   14) = (   0.1428571  -0.1957672   0.0000000), wk =   0.0634921
        k(   15) = (   0.2857143  -0.0952381   0.0000000), wk =   0.0634921
        k(   16) = (   0.2857143   0.0529101   0.0000000), wk =   0.0634921
        k(   17) = (   0.2857143   0.2010582   0.0000000), wk =   0.0634921
        k(   18) = (   0.2857143   0.3492063   0.0000000), wk =   0.0634921
        k(   19) = (   0.2857143   0.4973545   0.0000000), wk =   0.0634921
        k(   20) = (   0.2857143  -0.6878307   0.0000000), wk =   0.0634921
        k(   21) = (   0.2857143  -0.5396825   0.0000000), wk =   0.0634921
        k(   22) = (   0.2857143  -0.3915344   0.0000000), wk =   0.0634921
        k(   23) = (   0.2857143  -0.2433862   0.0000000), wk =   0.0634921
        k(   24) = (   0.4285714  -0.1428571   0.0000000), wk =   0.0634921
        k(   25) = (   0.4285714   0.0052910   0.0000000), wk =   0.0634921
        k(   26) = (   0.4285714   0.1534392   0.0000000), wk =   0.0634921
        k(   27) = (   0.4285714   0.3015873   0.0000000), wk =   0.0634921
        k(   28) = (   0.4285714   0.4497354   0.0000000), wk =   0.0634921
        k(   29) = (   0.4285714  -0.7354497   0.0000000), wk =   0.0634921
        k(   30) = (   0.4285714  -0.5873016   0.0000000), wk =   0.0634921
        k(   31) = (   0.4285714  -0.4391534   0.0000000), wk =   0.0634921
        k(   32) = (   0.4285714  -0.2910053   0.0000000), wk =   0.0634921

                       cryst. coord.
        k(    1) = (   0.0000000   0.0000000   0.0000000), wk =   0.0317460
        k(    2) = (   0.0000000   0.1111111   0.0000000), wk =   0.0634921
        k(    3) = (   0.0000000   0.2222222   0.0000000), wk =   0.0634921
        k(    4) = (   0.0000000   0.3333333   0.0000000), wk =   0.0634921
        k(    5) = (   0.0000000   0.4444444   0.0000000), wk =   0.0634921
        k(    6) = (   0.1428571   0.0000000   0.0000000), wk =   0.0634921
        k(    7) = (   0.1428571   0.1111111   0.0000000), wk =   0.0634921
        k(    8) = (   0.1428571   0.2222222   0.0000000), wk =   0.0634921
        k(    9) = (   0.1428571   0.3333333   0.0000000), wk =   0.0634921
        k(   10) = (   0.1428571   0.4444444   0.0000000), wk =   0.0634921
        k(   11) = (   0.1428571  -0.4444444   0.0000000), wk =   0.0634921
        k(   12) = (   0.1428571  -0.3333333   0.0000000), wk =   0.0634921
        k(   13) = (   0.1428571  -0.2222222   0.0000000), wk =   0.0634921
        k(   14) = (   0.1428571  -0.1111111   0.0000000), wk =   0.0634921
        k(   15) = (   0.2857143   0.0000000   0.0000000), wk =   0.0634921
        k(   16) = (   0.2857143   0.1111111   0.0000000), wk =   0.0634921
        k(   17) = (   0.2857143   0.2222222   0.0000000), wk =   0.0634921
        k(   18) = (   0.2857143   0.3333333   0.0000000), wk =   0.0634921
        k(   19) = (   0.2857143   0.4444444   0.0000000), wk =   0.0634921
        k(   20) = (   0.2857143  -0.4444444   0.0000000), wk =   0.0634921
        k(   21) = (   0.2857143  -0.3333333   0.0000000), wk =   0.0634921
        k(   22) = (   0.2857143  -0.2222222   0.0000000), wk =   0.0634921
        k(   23) = (   0.2857143  -0.1111111   0.0000000), wk =   0.0634921
        k(   24) = (   0.4285714   0.0000000   0.0000000), wk =   0.0634921
        k(   25) = (   0.4285714   0.1111111   0.0000000), wk =   0.0634921
        k(   26) = (   0.4285714   0.2222222   0.0000000), wk =   0.0634921
        k(   27) = (   0.4285714   0.3333333   0.0000000), wk =   0.0634921
        k(   28) = (   0.4285714   0.4444444   0.0000000), wk =   0.0634921
        k(   29) = (   0.4285714  -0.4444444   0.0000000), wk =   0.0634921
        k(   30) = (   0.4285714  -0.3333333   0.0000000), wk =   0.0634921
        k(   31) = (   0.4285714  -0.2222222   0.0000000), wk =   0.0634921
        k(   32) = (   0.4285714  -0.1111111   0.0000000), wk =   0.0634921

     Dense  grid:  9095383 G-vectors     FFT dimensions: ( 180, 135, 864)

     Smooth grid:  2301201 G-vectors     FFT dimensions: ( 108,  90, 540)

     Dynamical RAM for                 wfc:       1.85 MB

     Dynamical RAM for     wfc (w. buffer):      31.45 MB

     Dynamical RAM for           str. fact:       0.72 MB

     Dynamical RAM for           local pot:       0.00 MB

     Dynamical RAM for          nlocal pot:       6.58 MB

     Dynamical RAM for                qrad:       0.65 MB

     Dynamical RAM for          rho,v,vnew:       4.95 MB

     Dynamical RAM for               rhoin:       1.65 MB

     Dynamical RAM for            rho*nmix:      11.56 MB

     Dynamical RAM for           G-vectors:       2.80 MB

     Dynamical RAM for          h,s,v(r/c):       4.81 MB

     Dynamical RAM for          <psi|beta>:       0.36 MB

     Dynamical RAM for                 psi:       7.40 MB

     Dynamical RAM for                hpsi:       7.40 MB

     Dynamical RAM for                spsi:       7.40 MB

     Dynamical RAM for      wfcinit/wfcrot:       3.85 MB

     Dynamical RAM for           addusdens:      28.91 MB

     Dynamical RAM for          addusforce:      54.24 MB

     Estimated static dynamical RAM per process >      54.88 MB

     Estimated max dynamical RAM per process >     138.78 MB

     Estimated total dynamical RAM >      43.09 GB

     Initial potential from superposition of free atoms

     starting charge     107.8341, renormalised to     108.0000

     negative rho (up, down):  3.708E-03 0.000E+00
     Starting wfcs are random
     Checking if some PAW data can be deallocated... 

     total cpu time spent up to now is       30.2 secs

     Self-consistent Calculation

     iteration #  1     ecut=    80.00 Ry     beta= 0.20
     Davidson diagonalization with overlap

---- Real-time Memory Report at c_bands before calling an iterative solver
           702 MiB given to the printing process from OS
             0 MiB allocation reported by mallinfo(arena+hblkhd)
        475342 MiB available memory on the node where the printing process lives
------------------
     c_bands:  1 eigenvalues not converged
     c_bands:  1 eigenvalues not converged
     c_bands:  1 eigenvalues not converged
     ethr =  1.00E-12,  avg # of iterations =125.8

     negative rho (up, down):  2.750E-03 0.000E+00

     total cpu time spent up to now is      281.4 secs

     total energy              =    -541.27909086 Ry
     estimated scf accuracy    <       0.13545026 Ry

     total charge of GC-SCF    =       0.12524583 e
     the Fermi energy          =      -4.53067208 eV
                        (error :       0.37332792 eV)
     electrostatic embedding   =       0.00000000 Ry
     cavitation energy         =       0.03350764 Ry
     electrolyte free energy   =       0.01024461 Ry
     correction to one-el term =      -0.00000000 Ry

     iteration #  2     ecut=    80.00 Ry     beta= 0.20
     Davidson diagonalization with overlap

---- Real-time Memory Report at c_bands before calling an iterative solver
           702 MiB given to the printing process from OS
             0 MiB allocation reported by mallinfo(arena+hblkhd)
        472457 MiB available memory on the node where the printing process lives
------------------
     ethr =  1.00E-05,  avg # of iterations = 13.4

     negative rho (up, down):  2.018E-03 0.000E+00

     add environment contribution to local potential

     total cpu time spent up to now is      320.3 secs

     total energy              =    -541.24455270 Ry
     estimated scf accuracy    <       0.04527610 Ry

     total charge of GC-SCF    =       0.27779371 e
     the Fermi energy          =      -4.11614088 eV
                        (error :       0.78785912 eV)
     electrostatic embedding   =       0.00089268 Ry
     cavitation energy         =       0.03350764 Ry
     electrolyte free energy   =       0.01024461 Ry
     correction to one-el term =      -0.00000000 Ry

     iteration #  3     ecut=    80.00 Ry     beta= 0.20
     Davidson diagonalization with overlap

---- Real-time Memory Report at c_bands before calling an iterative solver
           702 MiB given to the printing process from OS
             0 MiB allocation reported by mallinfo(arena+hblkhd)
        472276 MiB available memory on the node where the printing process lives
------------------
     ethr =  1.00E-05,  avg # of iterations = 24.9

     negative rho (up, down):  1.614E-03 0.000E+00

     add environment contribution to local potential

     total cpu time spent up to now is      375.4 secs

     total energy              =    -541.39937789 Ry
     estimated scf accuracy    <       0.01717628 Ry

     total charge of GC-SCF    =       0.41453580 e
     the Fermi energy          =      -2.97107182 eV
                        (error :       1.93292818 eV)
     electrostatic embedding   =      -0.03648165 Ry
     cavitation energy         =       0.03350764 Ry
     electrolyte free energy   =      -0.00461115 Ry
     correction to one-el term =      -8.78096260 Ry

     iteration #  4     ecut=    80.00 Ry     beta= 0.20
     Davidson diagonalization with overlap

---- Real-time Memory Report at c_bands before calling an iterative solver
           702 MiB given to the printing process from OS
             0 MiB allocation reported by mallinfo(arena+hblkhd)
        472099 MiB available memory on the node where the printing process lives
------------------
     ethr =  1.00E-05,  avg # of iterations = 11.2

     negative rho (up, down):  1.269E-03 0.000E+00

     add environment contribution to local potential

     total cpu time spent up to now is      413.0 secs

     total energy              =    -541.31219124 Ry
     estimated scf accuracy    <       0.01350908 Ry

     total charge of GC-SCF    =       0.89599998 e
     the Fermi energy          =      -3.29530582 eV
                        (error :       1.60869418 eV)
     electrostatic embedding   =      -0.04387204 Ry
     cavitation energy         =       0.03350764 Ry
     electrolyte free energy   =      -0.00641409 Ry
     correction to one-el term =     -12.19207665 Ry

     iteration #  5     ecut=    80.00 Ry     beta= 0.20
     Davidson diagonalization with overlap

---- Real-time Memory Report at c_bands before calling an iterative solver
           702 MiB given to the printing process from OS
             0 MiB allocation reported by mallinfo(arena+hblkhd)
        472058 MiB available memory on the node where the printing process lives
------------------
     ethr =  1.00E-05,  avg # of iterations = 12.2

     negative rho (up, down):  1.041E-03 0.000E+00

     add environment contribution to local potential

     total cpu time spent up to now is      449.4 secs

     total energy              =    -541.36176609 Ry
     estimated scf accuracy    <       0.00790130 Ry

     total charge of GC-SCF    =       1.42964921 e
     the Fermi energy          =      -3.24294230 eV
                        (error :       1.66105770 eV)
     electrostatic embedding   =      -0.11721326 Ry
     cavitation energy         =       0.03350764 Ry
     electrolyte free energy   =      -0.00612835 Ry
     correction to one-el term =     -24.46245515 Ry

     iteration #  6     ecut=    80.00 Ry     beta= 0.20
     Davidson diagonalization with overlap

---- Real-time Memory Report at c_bands before calling an iterative solver
           702 MiB given to the printing process from OS
             0 MiB allocation reported by mallinfo(arena+hblkhd)
        471951 MiB available memory on the node where the printing process lives
------------------
     ethr =  7.41E-06,  avg # of iterations = 20.7

     negative rho (up, down):  1.298E-02 0.000E+00

     add environment contribution to local potential

     total cpu time spent up to now is      504.4 secs

     total energy              =    -541.45634056 Ry
     estimated scf accuracy    <       0.00470570 Ry

     total charge of GC-SCF    =       2.13836489 e
     the Fermi energy          =      -2.95718221 eV
                        (error :       1.94681779 eV)
     electrostatic embedding   =      -0.28404932 Ry
     cavitation energy         =       0.03350764 Ry
     electrolyte free energy   =      -0.00605156 Ry
     correction to one-el term =     -38.75122679 Ry

     iteration #  7     ecut=    80.00 Ry     beta= 0.20
     Davidson diagonalization with overlap

---- Real-time Memory Report at c_bands before calling an iterative solver
           702 MiB given to the printing process from OS
             0 MiB allocation reported by mallinfo(arena+hblkhd)
        471909 MiB available memory on the node where the printing process lives
------------------
     ethr =  4.45E-06,  avg # of iterations = 13.8

     negative rho (up, down):  9.712E-03 0.000E+00

     add environment contribution to local potential

     total cpu time spent up to now is      547.1 secs

     total energy              =    -541.80047255 Ry
     estimated scf accuracy    <       0.00507925 Ry

     total charge of GC-SCF    =       2.00705759 e
     the Fermi energy          =      -3.06476132 eV
                        (error :       1.83923868 eV)
     electrostatic embedding   =      -0.61991433 Ry
     cavitation energy         =       0.03350764 Ry
     electrolyte free energy   =      -0.00986429 Ry
     correction to one-el term =     -57.92218635 Ry

     iteration #  8     ecut=    80.00 Ry     beta= 0.20
     Davidson diagonalization with overlap

---- Real-time Memory Report at c_bands before calling an iterative solver
           702 MiB given to the printing process from OS
             0 MiB allocation reported by mallinfo(arena+hblkhd)
        471858 MiB available memory on the node where the printing process lives
------------------
     ethr =  4.45E-06,  avg # of iterations = 13.5

     negative rho (up, down):  9.153E-03 0.000E+00

     add environment contribution to local potential

     total cpu time spent up to now is      584.1 secs

     total energy              =    -541.72533621 Ry
     estimated scf accuracy    <       0.00734176 Ry

     total charge of GC-SCF    =       2.02082076 e
     the Fermi energy          =      -2.95436578 eV
                        (error :       1.94963422 eV)
     electrostatic embedding   =      -0.55202129 Ry
     cavitation energy         =       0.03350764 Ry
     electrolyte free energy   =      -0.00871918 Ry
     correction to one-el term =     -53.85583587 Ry

     iteration #  9     ecut=    80.00 Ry     beta= 0.20
     Davidson diagonalization with overlap

---- Real-time Memory Report at c_bands before calling an iterative solver
           702 MiB given to the printing process from OS
             0 MiB allocation reported by mallinfo(arena+hblkhd)
        471723 MiB available memory on the node where the printing process lives
------------------
     ethr =  4.45E-06,  avg # of iterations =  2.9

     negative rho (up, down):  1.488E-03 0.000E+00

     add environment contribution to local potential

     total cpu time spent up to now is      609.1 secs

     total energy              =    -541.61150820 Ry
     estimated scf accuracy    <       0.00692048 Ry

     total charge of GC-SCF    =       2.21327133 e
     the Fermi energy          =      -2.97107121 eV
                        (error :       1.93292879 eV)
     electrostatic embedding   =      -0.55879667 Ry
     cavitation energy         =       0.03350764 Ry
     electrolyte free energy   =      -0.00885016 Ry
     correction to one-el term =     -54.35411676 Ry

     iteration # 10     ecut=    80.00 Ry     beta= 0.20
     Davidson diagonalization with overlap

---- Real-time Memory Report at c_bands before calling an iterative solver
           702 MiB given to the printing process from OS
             0 MiB allocation reported by mallinfo(arena+hblkhd)
        471661 MiB available memory on the node where the printing process lives
------------------
     ethr =  4.45E-06,  avg # of iterations = 13.5

     negative rho (up, down):  9.655E-03 0.000E+00

     add environment contribution to local potential

     total cpu time spent up to now is      649.2 secs

     total energy              =    -541.83595819 Ry
     estimated scf accuracy    <       0.00389696 Ry

     total charge of GC-SCF    =       1.94340670 e
     the Fermi energy          =      -3.18666776 eV
                        (error :       1.71733224 eV)
     electrostatic embedding   =      -0.66275936 Ry
     cavitation energy         =       0.03350764 Ry
     electrolyte free energy   =      -0.01148310 Ry
     correction to one-el term =     -61.33511741 Ry

     iteration # 11     ecut=    80.00 Ry     beta= 0.20
     Davidson diagonalization with overlap

---- Real-time Memory Report at c_bands before calling an iterative solver
           702 MiB given to the printing process from OS
             0 MiB allocation reported by mallinfo(arena+hblkhd)
        471619 MiB available memory on the node where the printing process lives
------------------
     ethr =  3.67E-06,  avg # of iterations = 10.6

     negative rho (up, down):  1.437E-03 0.000E+00

     add environment contribution to local potential

     total cpu time spent up to now is      686.3 secs

     total energy              =    -541.56904410 Ry
     estimated scf accuracy    <       0.00293428 Ry

     total charge of GC-SCF    =       2.17975163 e
     the Fermi energy          =      -3.13211401 eV
                        (error :       1.77188599 eV)
     electrostatic embedding   =      -0.50814390 Ry
     cavitation energy         =       0.03350764 Ry
     electrolyte free energy   =      -0.00883699 Ry
     correction to one-el term =     -52.19164016 Ry

     iteration # 12     ecut=    80.00 Ry     beta= 0.20
     Davidson diagonalization with overlap

---- Real-time Memory Report at c_bands before calling an iterative solver
           702 MiB given to the printing process from OS
             0 MiB allocation reported by mallinfo(arena+hblkhd)
        471641 MiB available memory on the node where the printing process lives
------------------
     ethr =  2.77E-06,  avg # of iterations = 19.5

     negative rho (up, down):  6.693E-04 0.000E+00

     add environment contribution to local potential

     total cpu time spent up to now is      734.2 secs

     total energy              =    -541.61678795 Ry
     estimated scf accuracy    <       0.00411774 Ry

     total charge of GC-SCF    =       2.32800526 e
     the Fermi energy          =      -3.48872795 eV
                        (error :       1.41527205 eV)
     electrostatic embedding   =      -0.62837292 Ry
     cavitation energy         =       0.03350764 Ry
     electrolyte free energy   =      -0.01290491 Ry
     correction to one-el term =     -59.93691216 Ry

     iteration # 13     ecut=    80.00 Ry     beta= 0.20
     Davidson diagonalization with overlap

---- Real-time Memory Report at c_bands before calling an iterative solver
           702 MiB given to the printing process from OS
             0 MiB allocation reported by mallinfo(arena+hblkhd)
        471686 MiB available memory on the node where the printing process lives
------------------
     ethr =  2.77E-06,  avg # of iterations = 30.5

     negative rho (up, down):  3.453E-03 0.000E+00

     add environment contribution to local potential

     total cpu time spent up to now is      797.3 secs

     total energy              =    -541.63173755 Ry
     estimated scf accuracy    <       0.01813816 Ry

     total charge of GC-SCF    =       2.69587771 e
     the Fermi energy          =      -3.06694745 eV
                        (error :       1.83705255 eV)
     electrostatic embedding   =      -0.74479323 Ry
     cavitation energy         =       0.03350764 Ry
     electrolyte free energy   =      -0.01313986 Ry
     correction to one-el term =     -65.21274897 Ry

     iteration # 14     ecut=    80.00 Ry     beta= 0.20
     Davidson diagonalization with overlap

---- Real-time Memory Report at c_bands before calling an iterative solver
           702 MiB given to the printing process from OS
             0 MiB allocation reported by mallinfo(arena+hblkhd)
        471650 MiB available memory on the node where the printing process lives
------------------
     ethr =  2.77E-06,  avg # of iterations = 13.9

     negative rho (up, down):  4.621E-03 0.000E+00

     add environment contribution to local potential

     total cpu time spent up to now is      842.5 secs

     total energy              =    -541.59379055 Ry
     estimated scf accuracy    <       0.01627306 Ry

     total charge of GC-SCF    =       3.18675977 e
     the Fermi energy          =      -3.29710247 eV
                        (error :       1.60689753 eV)
     electrostatic embedding   =      -0.99583814 Ry
     cavitation energy         =       0.03350764 Ry
     electrolyte free energy   =      -0.01834962 Ry
     correction to one-el term =     -76.61966051 Ry

     iteration # 15     ecut=    80.00 Ry     beta= 0.20
     Davidson diagonalization with overlap

---- Real-time Memory Report at c_bands before calling an iterative solver
           702 MiB given to the printing process from OS
             0 MiB allocation reported by mallinfo(arena+hblkhd)
        471650 MiB available memory on the node where the printing process lives
------------------
     ethr =  2.77E-06,  avg # of iterations = 29.3

     negative rho (up, down):  4.607E-03 0.000E+00

     add environment contribution to local potential

     total cpu time spent up to now is      904.3 secs

     total energy              =    -541.71525893 Ry
     estimated scf accuracy    <       0.00272897 Ry

     total charge of GC-SCF    =       3.22986021 e
     the Fermi energy          =      -3.69644948 eV
                        (error :       1.20755052 eV)
     electrostatic embedding   =      -1.38709384 Ry
     cavitation energy         =       0.03350764 Ry
     electrolyte free energy   =      -0.02620835 Ry
     correction to one-el term =     -90.31796842 Ry

     iteration # 16     ecut=    80.00 Ry     beta= 0.20
     Davidson diagonalization with overlap

---- Real-time Memory Report at c_bands before calling an iterative solver
           702 MiB given to the printing process from OS
             0 MiB allocation reported by mallinfo(arena+hblkhd)
        471622 MiB available memory on the node where the printing process lives
------------------
     ethr =  2.60E-06,  avg # of iterations = 12.0

     negative rho (up, down):  5.398E-03 0.000E+00

     add environment contribution to local potential

     total cpu time spent up to now is      942.7 secs

     total energy              =    -541.62417244 Ry
     estimated scf accuracy    <       0.00141166 Ry

     total charge of GC-SCF    =       3.59850413 e
     the Fermi energy          =      -3.79393620 eV
                        (error :       1.11006380 eV)
     electrostatic embedding   =      -1.42379140 Ry
     cavitation energy         =       0.03350764 Ry
     electrolyte free energy   =      -0.02727753 Ry
     correction to one-el term =     -91.56407771 Ry

     iteration # 17     ecut=    80.00 Ry     beta= 0.20
     Davidson diagonalization with overlap

---- Real-time Memory Report at c_bands before calling an iterative solver
           702 MiB given to the printing process from OS
             0 MiB allocation reported by mallinfo(arena+hblkhd)
        471631 MiB available memory on the node where the printing process lives
------------------
     ethr =  1.35E-06,  avg # of iterations = 31.3

     negative rho (up, down):  1.903E-02 0.000E+00

     add environment contribution to local potential

     total cpu time spent up to now is     1010.3 secs

     total energy              =    -541.65212523 Ry
     estimated scf accuracy    <       0.00324693 Ry

     total charge of GC-SCF    =       4.05073550 e
     the Fermi energy          =      -4.33187939 eV
                        (error :       0.57212061 eV)
     electrostatic embedding   =      -1.77137548 Ry
     cavitation energy         =       0.03350764 Ry
     electrolyte free energy   =      -0.03408377 Ry
     correction to one-el term =    -102.32187186 Ry

     iteration # 18     ecut=    80.00 Ry     beta= 0.20
     Davidson diagonalization with overlap

---- Real-time Memory Report at c_bands before calling an iterative solver
           702 MiB given to the printing process from OS
             0 MiB allocation reported by mallinfo(arena+hblkhd)
        471567 MiB available memory on the node where the printing process lives
------------------
     ethr =  1.35E-06,  avg # of iterations = 16.4

     negative rho (up, down):  1.155E-02 0.000E+00

     add environment contribution to local potential

     total cpu time spent up to now is     1063.6 secs

     total energy              =    -541.69345323 Ry
     estimated scf accuracy    <       0.00053586 Ry

     total charge of GC-SCF    =       4.20065600 e
     the Fermi energy          =      -4.54374622 eV
                        (error :       0.36025378 eV)
     electrostatic embedding   =      -2.26626176 Ry
     cavitation energy         =       0.03350764 Ry
     electrolyte free energy   =      -0.04243398 Ry
     correction to one-el term =    -115.47035992 Ry

     iteration # 19     ecut=    80.00 Ry     beta= 0.20
     Davidson diagonalization with overlap

---- Real-time Memory Report at c_bands before calling an iterative solver
           702 MiB given to the printing process from OS
             0 MiB allocation reported by mallinfo(arena+hblkhd)
        471555 MiB available memory on the node where the printing process lives
------------------
     ethr =  5.16E-07,  avg # of iterations = 13.7

     negative rho (up, down):  1.431E-03 0.000E+00

     add environment contribution to local potential

     total cpu time spent up to now is     1111.9 secs

     total energy              =    -541.69452712 Ry
     estimated scf accuracy    <       0.00053644 Ry

     total charge of GC-SCF    =       4.46786289 e
     the Fermi energy          =      -4.65125999 eV
                        (error :       0.25274001 eV)
     electrostatic embedding   =      -2.45078959 Ry
     cavitation energy         =       0.03350764 Ry
     electrolyte free energy   =      -0.04557288 Ry
     correction to one-el term =    -119.99634830 Ry

     iteration # 20     ecut=    80.00 Ry     beta= 0.20
     Davidson diagonalization with overlap

---- Real-time Memory Report at c_bands before calling an iterative solver
           702 MiB given to the printing process from OS
             0 MiB allocation reported by mallinfo(arena+hblkhd)
        471535 MiB available memory on the node where the printing process lives
------------------
     ethr =  5.16E-07,  avg # of iterations = 16.8

     negative rho (up, down):  5.353E-04 0.000E+00

     add environment contribution to local potential

     total cpu time spent up to now is     1162.9 secs

     total energy              =    -541.70044668 Ry
     estimated scf accuracy    <       0.00033228 Ry

     total charge of GC-SCF    =       4.53356153 e
     the Fermi energy          =      -4.79543888 eV
                        (error :       0.10856112 eV)
     electrostatic embedding   =      -2.80542528 Ry
     cavitation energy         =       0.03350764 Ry
     electrolyte free energy   =      -0.05164943 Ry
     correction to one-el term =    -128.22055799 Ry

     iteration # 21     ecut=    80.00 Ry     beta= 0.20
     Davidson diagonalization with overlap

---- Real-time Memory Report at c_bands before calling an iterative solver
           702 MiB given to the printing process from OS
             0 MiB allocation reported by mallinfo(arena+hblkhd)
        471552 MiB available memory on the node where the printing process lives
------------------
     ethr =  3.21E-07,  avg # of iterations =  9.3

     negative rho (up, down):  5.135E-04 0.000E+00

     add environment contribution to local potential

     total cpu time spent up to now is     1202.2 secs

     total energy              =    -541.71100476 Ry
     estimated scf accuracy    <       0.00010127 Ry

     total charge of GC-SCF    =       4.28786594 e
     the Fermi energy          =      -4.87279041 eV
                        (error :       0.03120959 eV)
     electrostatic embedding   =      -2.89828588 Ry
     cavitation energy         =       0.03350764 Ry
     electrolyte free energy   =      -0.05328951 Ry
     correction to one-el term =    -130.40443495 Ry

     iteration # 22     ecut=    80.00 Ry     beta= 0.20
     Davidson diagonalization with overlap

---- Real-time Memory Report at c_bands before calling an iterative solver
           702 MiB given to the printing process from OS
             0 MiB allocation reported by mallinfo(arena+hblkhd)
        471558 MiB available memory on the node where the printing process lives
------------------
     ethr =  9.76E-08,  avg # of iterations = 26.1

     negative rho (up, down):  8.856E-04 0.000E+00

     add environment contribution to local potential

     total cpu time spent up to now is     1270.5 secs

     total energy              =    -541.70015306 Ry
     estimated scf accuracy    <       0.00021800 Ry

     total charge of GC-SCF    =       4.43939520 e
     the Fermi energy          =      -4.75930395 eV
                        (error :       0.14469605 eV)
     electrostatic embedding   =      -2.58058899 Ry
     cavitation energy         =       0.03350764 Ry
     electrolyte free energy   =      -0.04767976 Ry
     correction to one-el term =    -123.32946154 Ry

     iteration # 23     ecut=    80.00 Ry     beta= 0.20
     Davidson diagonalization with overlap

---- Real-time Memory Report at c_bands before calling an iterative solver
           702 MiB given to the printing process from OS
             0 MiB allocation reported by mallinfo(arena+hblkhd)
        471499 MiB available memory on the node where the printing process lives
------------------
     ethr =  9.76E-08,  avg # of iterations = 20.1

     negative rho (up, down):  5.866E-04 0.000E+00

     add environment contribution to local potential

     total cpu time spent up to now is     1324.7 secs

     total energy              =    -541.70240006 Ry
     estimated scf accuracy    <       0.00004332 Ry

     total charge of GC-SCF    =       4.38903070 e
     the Fermi energy          =      -4.84562335 eV
                        (error :       0.05837665 eV)
     electrostatic embedding   =      -2.76863967 Ry
     cavitation energy         =       0.03350764 Ry
     electrolyte free energy   =      -0.05104350 Ry
     correction to one-el term =    -127.48527404 Ry

     iteration # 24     ecut=    80.00 Ry     beta= 0.20
     Davidson diagonalization with overlap

---- Real-time Memory Report at c_bands before calling an iterative solver
           702 MiB given to the printing process from OS
             0 MiB allocation reported by mallinfo(arena+hblkhd)
        471515 MiB available memory on the node where the printing process lives
------------------
     ethr =  4.18E-08,  avg # of iterations = 12.9

     negative rho (up, down):  2.205E-03 0.000E+00

     add environment contribution to local potential

     total cpu time spent up to now is     1372.3 secs

     total energy              =    -541.70214697 Ry
     estimated scf accuracy    <       0.00004132 Ry

     total charge of GC-SCF    =       4.55030112 e
     the Fermi energy          =      -4.81975101 eV
                        (error :       0.08424899 eV)
     electrostatic embedding   =      -2.70152798 Ry
     cavitation energy         =       0.03350764 Ry
     electrolyte free energy   =      -0.04987625 Ry
     correction to one-el term =    -125.97113541 Ry

     iteration # 25     ecut=    80.00 Ry     beta= 0.20
     Davidson diagonalization with overlap

---- Real-time Memory Report at c_bands before calling an iterative solver
           702 MiB given to the printing process from OS
             0 MiB allocation reported by mallinfo(arena+hblkhd)
        471517 MiB available memory on the node where the printing process lives
------------------
     ethr =  3.99E-08,  avg # of iterations = 23.2

     negative rho (up, down):  1.240E-03 0.000E+00

     add environment contribution to local potential

     total cpu time spent up to now is     1432.7 secs

     total energy              =    -541.70061651 Ry
     estimated scf accuracy    <       0.00000851 Ry

     total charge of GC-SCF    =       4.54418258 e
     the Fermi energy          =      -4.91224532 eV
                        (error :       0.00824532 eV)
     electrostatic embedding   =      -2.90659817 Ry
     cavitation energy         =       0.03350764 Ry
     electrolyte free energy   =      -0.05363415 Ry
     correction to one-el term =    -130.46259273 Ry

     iteration # 26     ecut=    80.00 Ry     beta= 0.20
     Davidson diagonalization with overlap

---- Real-time Memory Report at c_bands before calling an iterative solver
           702 MiB given to the printing process from OS
             0 MiB allocation reported by mallinfo(arena+hblkhd)
        471518 MiB available memory on the node where the printing process lives
------------------
     ethr =  8.22E-09,  avg # of iterations = 12.6

     negative rho (up, down):  6.216E-04 0.000E+00

     add environment contribution to local potential

     total cpu time spent up to now is     1478.4 secs

     total energy              =    -541.70072457 Ry
     estimated scf accuracy    <       0.00000596 Ry

     total charge of GC-SCF    =       4.55467456 e
     the Fermi energy          =      -4.90543678 eV
                        (error :       0.00143678 eV)
     electrostatic embedding   =      -2.89937883 Ry
     cavitation energy         =       0.03350764 Ry
     electrolyte free energy   =      -0.05348895 Ry
     correction to one-el term =    -130.30389206 Ry

     iteration # 27     ecut=    80.00 Ry     beta= 0.20
     Davidson diagonalization with overlap

---- Real-time Memory Report at c_bands before calling an iterative solver
           702 MiB given to the printing process from OS
             0 MiB allocation reported by mallinfo(arena+hblkhd)
        471499 MiB available memory on the node where the printing process lives
------------------
     ethr =  5.76E-09,  avg # of iterations = 11.4

     negative rho (up, down):  5.622E-04 0.000E+00

     add environment contribution to local potential

     total cpu time spent up to now is     1523.0 secs

     total energy              =    -541.70055747 Ry
     estimated scf accuracy    <       0.00000148 Ry

     total charge of GC-SCF    =       4.54764183 e
     the Fermi energy          =      -4.91346902 eV
                        (error :       0.00946902 eV)
     electrostatic embedding   =      -2.91562554 Ry
     cavitation energy         =       0.03350764 Ry
     electrolyte free energy   =      -0.05375544 Ry
     correction to one-el term =    -130.68411260 Ry

     iteration # 28     ecut=    80.00 Ry     beta= 0.20
     Davidson diagonalization with overlap

---- Real-time Memory Report at c_bands before calling an iterative solver
           702 MiB given to the printing process from OS
             0 MiB allocation reported by mallinfo(arena+hblkhd)
        471520 MiB available memory on the node where the printing process lives
------------------
     ethr =  1.43E-09,  avg # of iterations = 12.1

     negative rho (up, down):  4.598E-04 0.000E+00

     add environment contribution to local potential

     total cpu time spent up to now is     1568.3 secs

     total energy              =    -541.70063784 Ry
     estimated scf accuracy    <       0.00000108 Ry

     total charge of GC-SCF    =       4.54218835 e
     the Fermi energy          =      -4.90826986 eV
                        (error :       0.00426986 eV)
     electrostatic embedding   =      -2.90656354 Ry
     cavitation energy         =       0.03350764 Ry
     electrolyte free energy   =      -0.05358569 Ry
     correction to one-el term =    -130.48850275 Ry

     iteration # 29     ecut=    80.00 Ry     beta= 0.20
     Davidson diagonalization with overlap

---- Real-time Memory Report at c_bands before calling an iterative solver
           702 MiB given to the printing process from OS
             0 MiB allocation reported by mallinfo(arena+hblkhd)
        471427 MiB available memory on the node where the printing process lives
------------------
     ethr =  1.04E-09,  avg # of iterations = 11.9

     negative rho (up, down):  4.460E-04 0.000E+00

     add environment contribution to local potential

     total cpu time spent up to now is     1613.8 secs

     total energy              =    -541.70070947 Ry
     estimated scf accuracy    <       0.00000064 Ry

     total charge of GC-SCF    =       4.54117910 e
     the Fermi energy          =      -4.90312533 eV
                        (error :       0.00087467 eV)
     electrostatic embedding   =      -2.89967110 Ry
     cavitation energy         =       0.03350764 Ry
     electrolyte free energy   =      -0.05345452 Ry
     correction to one-el term =    -130.33636852 Ry

     iteration # 30     ecut=    80.00 Ry     beta= 0.20
     Davidson diagonalization with overlap

---- Real-time Memory Report at c_bands before calling an iterative solver
           702 MiB given to the printing process from OS
             0 MiB allocation reported by mallinfo(arena+hblkhd)
        471429 MiB available memory on the node where the printing process lives
------------------
     ethr =  6.15E-10,  avg # of iterations = 10.2

     negative rho (up, down):  4.433E-04 0.000E+00

     add environment contribution to local potential

     total cpu time spent up to now is     1653.2 secs

     total energy              =    -541.70072667 Ry
     estimated scf accuracy    <       0.00000041 Ry

     total charge of GC-SCF    =       4.54535711 e
     the Fermi energy          =      -4.90177096 eV
                        (error :       0.00222904 eV)
     electrostatic embedding   =      -2.89826448 Ry
     cavitation energy         =       0.03350764 Ry
     electrolyte free energy   =      -0.05342950 Ry
     correction to one-el term =    -130.30504348 Ry

     iteration # 31     ecut=    80.00 Ry     beta= 0.20
     Davidson diagonalization with overlap

---- Real-time Memory Report at c_bands before calling an iterative solver
           702 MiB given to the printing process from OS
             0 MiB allocation reported by mallinfo(arena+hblkhd)
        471438 MiB available memory on the node where the printing process lives
------------------
     ethr =  3.97E-10,  avg # of iterations = 14.0

     negative rho (up, down):  4.512E-04 0.000E+00

     add environment contribution to local potential

     total cpu time spent up to now is     1701.3 secs

     total energy              =    -541.70069312 Ry
     estimated scf accuracy    <       0.00000018 Ry

     total charge of GC-SCF    =       4.54632205 e
     the Fermi energy          =      -4.90441384 eV
                        (error :       0.00041384 eV)
     electrostatic embedding   =      -2.90336278 Ry
     cavitation energy         =       0.03350764 Ry
     electrolyte free energy   =      -0.05352811 Ry
     correction to one-el term =    -130.41175820 Ry

     iteration # 32     ecut=    80.00 Ry     beta= 0.20
     Davidson diagonalization with overlap

---- Real-time Memory Report at c_bands before calling an iterative solver
           702 MiB given to the printing process from OS
             0 MiB allocation reported by mallinfo(arena+hblkhd)
        471419 MiB available memory on the node where the printing process lives
------------------
     ethr =  1.72E-10,  avg # of iterations = 12.7

     negative rho (up, down):  5.026E-04 0.000E+00

     add environment contribution to local potential

     total cpu time spent up to now is     1743.4 secs

     total energy              =    -541.70068444 Ry
     estimated scf accuracy    <       0.00000012 Ry

     total charge of GC-SCF    =       4.54643999 e
     the Fermi energy          =      -4.90507481 eV
                        (error :       0.00107481 eV)
     electrostatic embedding   =      -2.90452451 Ry
     cavitation energy         =       0.03350764 Ry
     electrolyte free energy   =      -0.05355094 Ry
     correction to one-el term =    -130.43638037 Ry

     iteration # 33     ecut=    80.00 Ry     beta= 0.20
     Davidson diagonalization with overlap

---- Real-time Memory Report at c_bands before calling an iterative solver
           702 MiB given to the printing process from OS
             0 MiB allocation reported by mallinfo(arena+hblkhd)
        471457 MiB available memory on the node where the printing process lives
------------------
     ethr =  1.18E-10,  avg # of iterations = 13.4

     negative rho (up, down):  5.151E-04 0.000E+00

     add environment contribution to local potential

     total cpu time spent up to now is     1789.4 secs

     total energy              =    -541.70068005 Ry
     estimated scf accuracy    <       0.00000003 Ry

     total charge of GC-SCF    =       4.54459681 e
     the Fermi energy          =      -4.90538075 eV
                        (error :       0.00138075 eV)
     electrostatic embedding   =      -2.90453297 Ry
     cavitation energy         =       0.03350764 Ry
     electrolyte free energy   =      -0.05355342 Ry
     correction to one-el term =    -130.43808527 Ry

     iteration # 34     ecut=    80.00 Ry     beta= 0.20
     Davidson diagonalization with overlap

---- Real-time Memory Report at c_bands before calling an iterative solver
           702 MiB given to the printing process from OS
             0 MiB allocation reported by mallinfo(arena+hblkhd)
        471406 MiB available memory on the node where the printing process lives
------------------
     ethr =  2.73E-11,  avg # of iterations = 19.0

     negative rho (up, down):  5.127E-04 0.000E+00

     add environment contribution to local potential

     total cpu time spent up to now is     1843.2 secs

     total energy              =    -541.70069862 Ry
     estimated scf accuracy    <          8.6E-09 Ry

     total charge of GC-SCF    =       4.54454974 e
     the Fermi energy          =      -4.90421796 eV
                        (error :       0.00021796 eV)
     electrostatic embedding   =      -2.90207620 Ry
     cavitation energy         =       0.03350764 Ry
     electrolyte free energy   =      -0.05350873 Ry
     correction to one-el term =    -130.38497764 Ry

     iteration # 35     ecut=    80.00 Ry     beta= 0.20
     Davidson diagonalization with overlap

---- Real-time Memory Report at c_bands before calling an iterative solver
           702 MiB given to the printing process from OS
             0 MiB allocation reported by mallinfo(arena+hblkhd)
        471415 MiB available memory on the node where the printing process lives
------------------
     ethr =  8.31E-12,  avg # of iterations = 12.8

     negative rho (up, down):  5.096E-04 0.000E+00

     add environment contribution to local potential

     total cpu time spent up to now is     1887.4 secs

     total energy              =    -541.70069889 Ry
     estimated scf accuracy    <          5.6E-09 Ry

     total charge of GC-SCF    =       4.54479834 e
     the Fermi energy          =      -4.90422974 eV
                        (error :       0.00022974 eV)
     electrostatic embedding   =      -2.90202993 Ry
     cavitation energy         =       0.03350764 Ry
     electrolyte free energy   =      -0.05350767 Ry
     correction to one-el term =    -130.38386107 Ry

     iteration # 36     ecut=    80.00 Ry     beta= 0.20
     Davidson diagonalization with overlap

---- Real-time Memory Report at c_bands before calling an iterative solver
           702 MiB given to the printing process from OS
             0 MiB allocation reported by mallinfo(arena+hblkhd)
        471415 MiB available memory on the node where the printing process lives
------------------
     ethr =  5.40E-12,  avg # of iterations = 10.9

     negative rho (up, down):  4.953E-04 0.000E+00

     add environment contribution to local potential

     total cpu time spent up to now is     1927.8 secs

     total energy              =    -541.70069626 Ry
     estimated scf accuracy    <          4.1E-09 Ry

     total charge of GC-SCF    =       4.54422970 e
     the Fermi energy          =      -4.90439337 eV
                        (error :       0.00039337 eV)
     electrostatic embedding   =      -2.90237694 Ry
     cavitation energy         =       0.03350764 Ry
     electrolyte free energy   =      -0.05351378 Ry
     correction to one-el term =    -130.39138581 Ry

     iteration # 37     ecut=    80.00 Ry     beta= 0.20
     Davidson diagonalization with overlap

---- Real-time Memory Report at c_bands before calling an iterative solver
           702 MiB given to the printing process from OS
             0 MiB allocation reported by mallinfo(arena+hblkhd)
        471394 MiB available memory on the node where the printing process lives
------------------
     ethr =  3.95E-12,  avg # of iterations = 19.2

     negative rho (up, down):  4.932E-04 0.000E+00

     add environment contribution to local potential

     total cpu time spent up to now is     1982.5 secs

     total energy              =    -541.70070170 Ry
     estimated scf accuracy    <          1.5E-09 Ry

     total charge of GC-SCF    =       4.54391265 e
     the Fermi energy          =      -4.90400509 eV
                        (error :       0.00000509 eV)
     electrostatic embedding   =      -2.90170688 Ry
     cavitation energy         =       0.03350764 Ry
     electrolyte free energy   =      -0.05350038 Ry
     correction to one-el term =    -130.37732078 Ry

     iteration # 38     ecut=    80.00 Ry     beta= 0.20
     Davidson diagonalization with overlap

---- Real-time Memory Report at c_bands before calling an iterative solver
           702 MiB given to the printing process from OS
             0 MiB allocation reported by mallinfo(arena+hblkhd)
        471414 MiB available memory on the node where the printing process lives
------------------
     ethr =  1.46E-12,  avg # of iterations = 21.4

     negative rho (up, down):  4.947E-04 0.000E+00

     add environment contribution to local potential

     total cpu time spent up to now is     2039.5 secs

     total energy              =    -541.70070484 Ry
     estimated scf accuracy    <          5.5E-10 Ry

     total charge of GC-SCF    =       4.54413755 e
     the Fermi energy          =      -4.90380027 eV
                        (error :       0.00019973 eV)
     electrostatic embedding   =      -2.90130848 Ry
     cavitation energy         =       0.03350764 Ry
     electrolyte free energy   =      -0.05349280 Ry
     correction to one-el term =    -130.36887218 Ry

     iteration # 39     ecut=    80.00 Ry     beta= 0.20
     Davidson diagonalization with overlap

---- Real-time Memory Report at c_bands before calling an iterative solver
           702 MiB given to the printing process from OS
             0 MiB allocation reported by mallinfo(arena+hblkhd)
        471463 MiB available memory on the node where the printing process lives
------------------
     ethr =  5.33E-13,  avg # of iterations = 16.4

     negative rho (up, down):  4.958E-04 0.000E+00

     add environment contribution to local potential

     total cpu time spent up to now is     2088.5 secs

     total energy              =    -541.70070285 Ry
     estimated scf accuracy    <          2.1E-10 Ry

     total charge of GC-SCF    =       4.54428581 e
     the Fermi energy          =      -4.90392993 eV
                        (error :       0.00007007 eV)
     electrostatic embedding   =      -2.90158514 Ry
     cavitation energy         =       0.03350764 Ry
     electrolyte free energy   =      -0.05349814 Ry
     correction to one-el term =    -130.37472193 Ry

     iteration # 40     ecut=    80.00 Ry     beta= 0.20
     Davidson diagonalization with overlap

---- Real-time Memory Report at c_bands before calling an iterative solver
           702 MiB given to the printing process from OS
             0 MiB allocation reported by mallinfo(arena+hblkhd)
        471466 MiB available memory on the node where the printing process lives
------------------
     ethr =  2.02E-13,  avg # of iterations = 24.5

     negative rho (up, down):  4.963E-04 0.000E+00

     add environment contribution to local potential

     total cpu time spent up to now is     2150.7 secs

     total energy              =    -541.70070141 Ry
     estimated scf accuracy    <          8.0E-11 Ry

     total charge of GC-SCF    =       4.54424710 e
     the Fermi energy          =      -4.90402105 eV
                        (error :       0.00002105 eV)
     electrostatic embedding   =      -2.90176815 Ry
     cavitation energy         =       0.03350764 Ry
     electrolyte free energy   =      -0.05350167 Ry
     correction to one-el term =    -130.37858991 Ry

     iteration # 41     ecut=    80.00 Ry     beta= 0.20
     Davidson diagonalization with overlap

---- Real-time Memory Report at c_bands before calling an iterative solver
           702 MiB given to the printing process from OS
             0 MiB allocation reported by mallinfo(arena+hblkhd)
        471448 MiB available memory on the node where the printing process lives
------------------
     ethr =  1.00E-13,  avg # of iterations = 13.1

     negative rho (up, down):  4.968E-04 0.000E+00

     add environment contribution to local potential

     total cpu time spent up to now is     2196.0 secs

     total energy              =    -541.70070175 Ry
     estimated scf accuracy    <          5.1E-11 Ry

     total charge of GC-SCF    =       4.54424161 e
     the Fermi energy          =      -4.90400152 eV
                        (error :       0.00000152 eV)
     electrostatic embedding   =      -2.90171210 Ry
     cavitation energy         =       0.03350764 Ry
     electrolyte free energy   =      -0.05350071 Ry
     correction to one-el term =    -130.37735763 Ry

     iteration # 42     ecut=    80.00 Ry     beta= 0.20
     Davidson diagonalization with overlap

---- Real-time Memory Report at c_bands before calling an iterative solver
           702 MiB given to the printing process from OS
             0 MiB allocation reported by mallinfo(arena+hblkhd)
        471457 MiB available memory on the node where the printing process lives
------------------
     ethr =  1.00E-13,  avg # of iterations = 11.8

     negative rho (up, down):  4.972E-04 0.000E+00

     add environment contribution to local potential

     total cpu time spent up to now is     2236.9 secs

     total energy              =    -541.70070181 Ry
     estimated scf accuracy    <          3.3E-11 Ry

     total charge of GC-SCF    =       4.54423179 e
     the Fermi energy          =      -4.90399790 eV
                        (error :       0.00000210 eV)
     electrostatic embedding   =      -2.90170217 Ry
     cavitation energy         =       0.03350764 Ry
     electrolyte free energy   =      -0.05350057 Ry
     correction to one-el term =    -130.37713259 Ry

     iteration # 43     ecut=    80.00 Ry     beta= 0.20
     Davidson diagonalization with overlap

---- Real-time Memory Report at c_bands before calling an iterative solver
           702 MiB given to the printing process from OS
             0 MiB allocation reported by mallinfo(arena+hblkhd)
        471445 MiB available memory on the node where the printing process lives
------------------
     ethr =  1.00E-13,  avg # of iterations = 13.5

     negative rho (up, down):  4.971E-04 0.000E+00

     add environment contribution to local potential

     total cpu time spent up to now is     2280.7 secs

     total energy              =    -541.70070190 Ry
     estimated scf accuracy    <          1.1E-11 Ry

     total charge of GC-SCF    =       4.54424938 e
     the Fermi energy          =      -4.90399198 eV
                        (error :       0.00000802 eV)
     electrostatic embedding   =      -2.90168593 Ry
     cavitation energy         =       0.03350764 Ry
     electrolyte free energy   =      -0.05350031 Ry
     correction to one-el term =    -130.37676359 Ry

     iteration # 44     ecut=    80.00 Ry     beta= 0.20
     Davidson diagonalization with overlap

---- Real-time Memory Report at c_bands before calling an iterative solver
           702 MiB given to the printing process from OS
             0 MiB allocation reported by mallinfo(arena+hblkhd)
        471427 MiB available memory on the node where the printing process lives
------------------
     ethr =  1.00E-13,  avg # of iterations =  7.5

     negative rho (up, down):  4.970E-04 0.000E+00

     add environment contribution to local potential

     total cpu time spent up to now is     2315.8 secs

     total energy              =    -541.70070175 Ry
     estimated scf accuracy    <          5.9E-12 Ry

     total charge of GC-SCF    =       4.54425683 e
     the Fermi energy          =      -4.90400088 eV
                        (error :       0.00000088 eV)
     electrostatic embedding   =      -2.90170967 Ry
     cavitation energy         =       0.03350764 Ry
     electrolyte free energy   =      -0.05350074 Ry
     correction to one-el term =    -130.37728394 Ry

     iteration # 45     ecut=    80.00 Ry     beta= 0.20
     Davidson diagonalization with overlap

---- Real-time Memory Report at c_bands before calling an iterative solver
           702 MiB given to the printing process from OS
             0 MiB allocation reported by mallinfo(arena+hblkhd)
        471425 MiB available memory on the node where the printing process lives
------------------
     ethr =  1.00E-13,  avg # of iterations =  8.3

     negative rho (up, down):  4.966E-04 0.000E+00

     add environment contribution to local potential

     total cpu time spent up to now is     2350.8 secs

     total energy              =    -541.70070168 Ry
     estimated scf accuracy    <          3.7E-12 Ry

     total charge of GC-SCF    =       4.54425908 e
     the Fermi energy          =      -4.90400558 eV
                        (error :       0.00000558 eV)
     electrostatic embedding   =      -2.90172066 Ry
     cavitation energy         =       0.03350764 Ry
     electrolyte free energy   =      -0.05350093 Ry
     correction to one-el term =    -130.37753127 Ry

     iteration # 46     ecut=    80.00 Ry     beta= 0.20
     Davidson diagonalization with overlap

---- Real-time Memory Report at c_bands before calling an iterative solver
           702 MiB given to the printing process from OS
             0 MiB allocation reported by mallinfo(arena+hblkhd)
        471409 MiB available memory on the node where the printing process lives
------------------
     ethr =  1.00E-13,  avg # of iterations = 10.4

     negative rho (up, down):  4.965E-04 0.000E+00

     add environment contribution to local potential

     total cpu time spent up to now is     2388.4 secs

     total energy              =    -541.70070164 Ry
     estimated scf accuracy    <          1.8E-12 Ry

     total charge of GC-SCF    =       4.54425477 e
     the Fermi energy          =      -4.90400775 eV
                        (error :       0.00000775 eV)
     electrostatic embedding   =      -2.90172586 Ry
     cavitation energy         =       0.03350764 Ry
     electrolyte free energy   =      -0.05350099 Ry
     correction to one-el term =    -130.37765515 Ry

     iteration # 47     ecut=    80.00 Ry     beta= 0.20
     Davidson diagonalization with overlap

---- Real-time Memory Report at c_bands before calling an iterative solver
           702 MiB given to the printing process from OS
             0 MiB allocation reported by mallinfo(arena+hblkhd)
        471385 MiB available memory on the node where the printing process lives
------------------
     ethr =  1.00E-13,  avg # of iterations =  5.1

     negative rho (up, down):  4.965E-04 0.000E+00

     add environment contribution to local potential

     total cpu time spent up to now is     2419.3 secs

     total energy              =    -541.70070168 Ry
     estimated scf accuracy    <          8.8E-13 Ry

     total charge of GC-SCF    =       4.54425283 e
     the Fermi energy          =      -4.90400484 eV
                        (error :       0.00000484 eV)
     electrostatic embedding   =      -2.90172053 Ry
     cavitation energy         =       0.03350764 Ry
     electrolyte free energy   =      -0.05350089 Ry
     correction to one-el term =    -130.37754027 Ry

     iteration # 48     ecut=    80.00 Ry     beta= 0.20
     Davidson diagonalization with overlap

---- Real-time Memory Report at c_bands before calling an iterative solver
           702 MiB given to the printing process from OS
             0 MiB allocation reported by mallinfo(arena+hblkhd)
        471363 MiB available memory on the node where the printing process lives
------------------
     ethr =  1.00E-13,  avg # of iterations =  3.3

     negative rho (up, down):  4.967E-04 0.000E+00

     add environment contribution to local potential

     total cpu time spent up to now is     2448.2 secs

     total energy              =    -541.70070170 Ry
     estimated scf accuracy    <          5.4E-13 Ry

     total charge of GC-SCF    =       4.54425245 e
     the Fermi energy          =      -4.90400364 eV
                        (error :       0.00000364 eV)
     electrostatic embedding   =      -2.90171757 Ry
     cavitation energy         =       0.03350764 Ry
     electrolyte free energy   =      -0.05350084 Ry
     correction to one-el term =    -130.37747366 Ry

     iteration # 49     ecut=    80.00 Ry     beta= 0.20
     Davidson diagonalization with overlap

---- Real-time Memory Report at c_bands before calling an iterative solver
           702 MiB given to the printing process from OS
             0 MiB allocation reported by mallinfo(arena+hblkhd)
        471350 MiB available memory on the node where the printing process lives
------------------
     ethr =  1.00E-13,  avg # of iterations =  5.7

     negative rho (up, down):  4.967E-04 0.000E+00

     add environment contribution to local potential

     total cpu time spent up to now is     2479.6 secs

     total energy              =    -541.70070171 Ry
     estimated scf accuracy    <          2.2E-13 Ry

     total charge of GC-SCF    =       4.54425261 e
     the Fermi energy          =      -4.90400307 eV
                        (error :       0.00000307 eV)
     electrostatic embedding   =      -2.90171614 Ry
     cavitation energy         =       0.03350764 Ry
     electrolyte free energy   =      -0.05350083 Ry
     correction to one-el term =    -130.37743757 Ry

     iteration # 50     ecut=    80.00 Ry     beta= 0.20
     Davidson diagonalization with overlap

---- Real-time Memory Report at c_bands before calling an iterative solver
           702 MiB given to the printing process from OS
             0 MiB allocation reported by mallinfo(arena+hblkhd)
        471405 MiB available memory on the node where the printing process lives
------------------
     ethr =  1.00E-13,  avg # of iterations =  1.8

     negative rho (up, down):  4.967E-04 0.000E+00

     add environment contribution to local potential

     total cpu time spent up to now is     2507.1 secs

     total energy              =    -541.70070172 Ry
     estimated scf accuracy    <          1.2E-13 Ry

     total charge of GC-SCF    =       4.54425011 e
     the Fermi energy          =      -4.90400318 eV
                        (error :       0.00000318 eV)
     electrostatic embedding   =      -2.90171627 Ry
     cavitation energy         =       0.03350764 Ry
     electrolyte free energy   =      -0.05350083 Ry
     correction to one-el term =    -130.37743945 Ry

     iteration # 51     ecut=    80.00 Ry     beta= 0.20
     Davidson diagonalization with overlap

---- Real-time Memory Report at c_bands before calling an iterative solver
           702 MiB given to the printing process from OS
             0 MiB allocation reported by mallinfo(arena+hblkhd)
        471404 MiB available memory on the node where the printing process lives
------------------
     ethr =  1.00E-13,  avg # of iterations =  1.8

     negative rho (up, down):  4.966E-04 0.000E+00

     add environment contribution to local potential

     total cpu time spent up to now is     2534.8 secs

     total energy              =    -541.70070174 Ry
     estimated scf accuracy    <          6.3E-14 Ry

     total charge of GC-SCF    =       4.54424932 e
     the Fermi energy          =      -4.90400187 eV
                        (error :       0.00000187 eV)
     electrostatic embedding   =      -2.90171297 Ry
     cavitation energy         =       0.03350764 Ry
     electrolyte free energy   =      -0.05350077 Ry
     correction to one-el term =    -130.37736813 Ry

     iteration # 52     ecut=    80.00 Ry     beta= 0.20
     Davidson diagonalization with overlap

---- Real-time Memory Report at c_bands before calling an iterative solver
           702 MiB given to the printing process from OS
             0 MiB allocation reported by mallinfo(arena+hblkhd)
        471404 MiB available memory on the node where the printing process lives
------------------
     ethr =  1.00E-13,  avg # of iterations =  2.2

     negative rho (up, down):  4.966E-04 0.000E+00

     add environment contribution to local potential

     total cpu time spent up to now is     2562.7 secs

     total energy              =    -541.70070174 Ry
     estimated scf accuracy    <          4.2E-14 Ry

     total charge of GC-SCF    =       4.54424878 e
     the Fermi energy          =      -4.90400148 eV
                        (error :       0.00000148 eV)
     electrostatic embedding   =      -2.90171208 Ry
     cavitation energy         =       0.03350764 Ry
     electrolyte free energy   =      -0.05350075 Ry
     correction to one-el term =    -130.37734980 Ry

     iteration # 53     ecut=    80.00 Ry     beta= 0.20
     Davidson diagonalization with overlap

---- Real-time Memory Report at c_bands before calling an iterative solver
           702 MiB given to the printing process from OS
             0 MiB allocation reported by mallinfo(arena+hblkhd)
        471371 MiB available memory on the node where the printing process lives
------------------
     ethr =  1.00E-13,  avg # of iterations =  3.3

     negative rho (up, down):  4.965E-04 0.000E+00

     add environment contribution to local potential

     total cpu time spent up to now is     2591.8 secs

     total energy              =    -541.70070175 Ry
     estimated scf accuracy    <          2.3E-14 Ry

     total charge of GC-SCF    =       4.54424856 e
     the Fermi energy          =      -4.90400108 eV
                        (error :       0.00000108 eV)
     electrostatic embedding   =      -2.90171162 Ry
     cavitation energy         =       0.03350764 Ry
     electrolyte free energy   =      -0.05350074 Ry
     correction to one-el term =    -130.37734089 Ry

     iteration # 54     ecut=    80.00 Ry     beta= 0.20
     Davidson diagonalization with overlap

---- Real-time Memory Report at c_bands before calling an iterative solver
           702 MiB given to the printing process from OS
             0 MiB allocation reported by mallinfo(arena+hblkhd)
        471390 MiB available memory on the node where the printing process lives
------------------
     ethr =  1.00E-13,  avg # of iterations =  1.0

     negative rho (up, down):  4.965E-04 0.000E+00

     add environment contribution to local potential

     total cpu time spent up to now is     2618.8 secs

     total energy              =    -541.70070175 Ry
     estimated scf accuracy    <          1.7E-14 Ry

     total charge of GC-SCF    =       4.54424813 e
     the Fermi energy          =      -4.90400091 eV
                        (error :       0.00000091 eV)
     electrostatic embedding   =      -2.90171144 Ry
     cavitation energy         =       0.03350764 Ry
     electrolyte free energy   =      -0.05350073 Ry
     correction to one-el term =    -130.37733748 Ry

     iteration # 55     ecut=    80.00 Ry     beta= 0.20
     Davidson diagonalization with overlap

---- Real-time Memory Report at c_bands before calling an iterative solver
           702 MiB given to the printing process from OS
             0 MiB allocation reported by mallinfo(arena+hblkhd)
        471385 MiB available memory on the node where the printing process lives
------------------
     ethr =  1.00E-13,  avg # of iterations =  1.0

     negative rho (up, down):  4.965E-04 0.000E+00

     add environment contribution to local potential

     total cpu time spent up to now is     2645.9 secs

     total energy              =    -541.70070175 Ry
     estimated scf accuracy    <          9.7E-15 Ry

[...]
     atom    5 type  1   force =    -0.00008098    0.01300847    0.01203755
     atom    6 type  1   force =    -0.00007352    0.00447469    0.00308585
     atom    7 type  1   force =    -0.00000030    0.00415344   -0.00559410
     atom    8 type  1   force =     0.00006004    0.00176042    0.02163500
     atom    9 type  1   force =     0.00001578   -0.00807070    0.07222765
     atom   10 type  1   force =    -0.00006093   -0.00175663   -0.02165401
     atom   11 type  1   force =    -0.00000059   -0.00415216    0.00559630
     atom   12 type  1   force =     0.00007222   -0.00447355   -0.00308900
     atom   13 type  1   force =     0.00008115   -0.01300858   -0.01203685
     atom   14 type  1   force =    -0.00004984    0.00991618    0.01143524
     atom   15 type  1   force =    -0.00001992   -0.01026852   -0.00228076
     atom   16 type  1   force =     0.00005172    0.00505328    0.07820081
     atom   17 type  1   force =    -0.00000059    0.00105274   -0.05760348
     atom   18 type  1   force =    -0.00001589    0.00807025   -0.07222877
     atom   19 type  1   force =     0.00000097   -0.00105304    0.05760197
     atom   20 type  1   force =    -0.00005157   -0.00505251   -0.07820274
     atom   21 type  1   force =     0.00001978    0.01026837    0.00228345
     atom   22 type  1   force =     0.00005096   -0.00991750   -0.01143473
     atom   23 type  1   force =    -0.00008205    0.01300799    0.01203629
     atom   24 type  1   force =    -0.00007217    0.00447416    0.00308978
     atom   25 type  1   force =     0.00000039    0.00415200   -0.00559503
     atom   26 type  1   force =     0.00006130    0.00175559    0.02165497
     atom   27 type  1   force =     0.00002091   -0.00806498    0.07223398
     atom   28 type  1   force =    -0.00006048   -0.00175996   -0.02163649
     atom   29 type  1   force =     0.00000049   -0.00415435    0.00559579
     atom   30 type  1   force =     0.00007345   -0.00447437   -0.00308610
     atom   31 type  1   force =     0.00008186   -0.01300765   -0.01203655
     atom   32 type  1   force =    -0.00005029    0.00991656    0.01143606
     atom   33 type  1   force =    -0.00001514   -0.01026654   -0.00228285
     atom   34 type  1   force =     0.00005390    0.00504449    0.07819919
     atom   35 type  1   force =     0.00000984    0.00105307   -0.05760254
     atom   36 type  1   force =    -0.00002079    0.00806572   -0.07223435
     The ionic contribution  to forces
     atom    1 type  1   force =    -0.00014224   -0.03214004   10.95521428
     atom    2 type  1   force =    -0.00016946   -0.09463092  -10.30779612
     atom    3 type  1   force =     0.00017175    0.11767510   -6.28611338
     atom    4 type  1   force =     0.00021638   -0.16618077   -5.75207878
     atom    5 type  1   force =    -0.00034485    0.17741119   -1.62907901
     atom    6 type  1   force =    -0.00087176   -0.09243260   -0.25759489
     atom    7 type  1   force =     0.00007164    0.02424151    3.72824585
     atom    8 type  1   force =     0.00017206    0.04513410    7.07658383
     atom    9 type  1   force =    -0.00009636   -0.11204799    8.73417452
     atom   10 type  1   force =    -0.00023128   -0.04510219   -7.07671402
     atom   11 type  1   force =    -0.00012932   -0.02419341   -3.72849710
     atom   12 type  1   force =     0.00080462    0.09245235    0.25754980
     atom   13 type  1   force =     0.00034633   -0.17741377    1.62907915
     atom   14 type  1   force =    -0.00022650    0.16618609    5.75206300
     atom   15 type  1   force =    -0.00031161   -0.11768254    6.28615222
     atom   16 type  1   force =     0.00010351    0.09475435   10.30767278
     atom   17 type  1   force =    -0.00002190    0.03213251  -10.95525345
     atom   18 type  1   force =     0.00009205    0.11204318   -8.73421960
     atom   19 type  1   force =     0.00002683   -0.03214012   10.95524089
     atom   20 type  1   force =    -0.00010409   -0.09473576  -10.30768850
     atom   21 type  1   force =     0.00031042    0.11767769   -6.28608721
     atom   22 type  1   force =     0.00030784   -0.16619282   -5.75199679
     atom   23 type  1   force =    -0.00037794    0.17739908   -1.62916001
     atom   24 type  1   force =    -0.00080030   -0.09244071   -0.25756615
     atom   25 type  1   force =     0.00012571    0.02420705    3.72848861
     atom   26 type  1   force =     0.00023853    0.04508905    7.07674454
     atom   27 type  1   force =    -0.00003870   -0.11197372    8.73423830
     atom   28 type  1   force =    -0.00018050   -0.04513055   -7.07659936
     atom   29 type  1   force =    -0.00006833   -0.02425457   -3.72828156
     atom   30 type  1   force =     0.00086727    0.09243579    0.25765888
     atom   31 type  1   force =     0.00037642   -0.17739537    1.62917766
     atom   32 type  1   force =    -0.00029673    0.16618601    5.75200025
     atom   33 type  1   force =    -0.00016972   -0.11769434    6.28611842
     atom   34 type  1   force =     0.00016974    0.09464827   10.30781809
     atom   35 type  1   force =     0.00013748    0.03212968  -10.95522782
     atom   36 type  1   force =     0.00004301    0.11197914   -8.73426733
     The local contribution  to forces
     atom    1 type  1   force =     0.00016498    0.03448316  -10.94918391
     atom    2 type  1   force =     0.00023389    0.10454862   10.40988535
     atom    3 type  1   force =    -0.00019225   -0.13172893    6.34739048
     atom    4 type  1   force =    -0.00027542    0.17970138    5.82352716
     atom    5 type  1   force =     0.00041792   -0.19124786    1.63450403
     atom    6 type  1   force =     0.00091420    0.08845633    0.25684634
     atom    7 type  1   force =    -0.00007590   -0.02938257   -3.76113316
     atom    8 type  1   force =    -0.00024455   -0.04381127   -7.16901995
     atom    9 type  1   force =     0.00008577    0.12068616   -8.89141811
     atom   10 type  1   force =     0.00030722    0.04377183    7.16917581
     atom   11 type  1   force =     0.00013706    0.02933166    3.76137976
     atom   12 type  1   force =    -0.00084414   -0.08847696   -0.25680296
     atom   13 type  1   force =    -0.00041946    0.19125064   -1.63450997
     atom   14 type  1   force =     0.00028575   -0.17970628   -5.82351746
     atom   15 type  1   force =     0.00034563    0.13173810   -6.34744042
     atom   16 type  1   force =    -0.00016106   -0.10469284  -10.40977525
     atom   17 type  1   force =     0.00002345   -0.03447453   10.94922776
     atom   18 type  1   force =    -0.00008086   -0.12068044    8.89145812
     atom   19 type  1   force =    -0.00002918    0.03448286  -10.94921458
     atom   20 type  1   force =     0.00016159    0.10467283   10.40978844
     atom   21 type  1   force =    -0.00034383   -0.13173301    6.34736667
     atom   22 type  1   force =    -0.00037246    0.17971483    5.82344615
     atom   23 type  1   force =     0.00045276   -0.19123493    1.63458823
     atom   24 type  1   force =     0.00084010    0.08846574    0.25681357
     atom   25 type  1   force =    -0.00013336   -0.02934426   -3.76137715
     atom   26 type  1   force =    -0.00031469   -0.04375779   -7.16921294
     atom   27 type  1   force =     0.00001844    0.12059895   -8.89149191
     atom   28 type  1   force =     0.00025321    0.04380680    7.16903211
     atom   29 type  1   force =     0.00007250    0.02939579    3.76116218
     atom   30 type  1   force =    -0.00091000   -0.08845959   -0.25691703
     atom   31 type  1   force =    -0.00045116    0.19123124   -1.63461154
     atom   32 type  1   force =     0.00036111   -0.17970761   -5.82345657
     atom   33 type  1   force =     0.00018963    0.13174704   -6.34740226
     atom   34 type  1   force =    -0.00023410   -0.10456670  -10.40990650
     atom   35 type  1   force =    -0.00015944   -0.03447196   10.94920170
     atom   36 type  1   force =    -0.00002336   -0.12060547    8.89151494
     The core correction contribution to forces
     atom    1 type  1   force =     0.00000000    0.00000000    0.00000000
     atom    2 type  1   force =     0.00000000    0.00000000    0.00000000
     atom    3 type  1   force =     0.00000000    0.00000000    0.00000000
     atom    4 type  1   force =     0.00000000    0.00000000    0.00000000
     atom    5 type  1   force =     0.00000000    0.00000000    0.00000000
     atom    6 type  1   force =     0.00000000    0.00000000    0.00000000
     atom    7 type  1   force =     0.00000000    0.00000000    0.00000000
     atom    8 type  1   force =     0.00000000    0.00000000    0.00000000
     atom    9 type  1   force =     0.00000000    0.00000000    0.00000000
     atom   10 type  1   force =     0.00000000    0.00000000    0.00000000
     atom   11 type  1   force =     0.00000000    0.00000000    0.00000000
     atom   12 type  1   force =     0.00000000    0.00000000    0.00000000
     atom   13 type  1   force =     0.00000000    0.00000000    0.00000000
     atom   14 type  1   force =     0.00000000    0.00000000    0.00000000
     atom   15 type  1   force =     0.00000000    0.00000000    0.00000000
     atom   16 type  1   force =     0.00000000    0.00000000    0.00000000
     atom   17 type  1   force =     0.00000000    0.00000000    0.00000000
     atom   18 type  1   force =     0.00000000    0.00000000    0.00000000
     atom   19 type  1   force =     0.00000000    0.00000000    0.00000000
     atom   20 type  1   force =     0.00000000    0.00000000    0.00000000
     atom   21 type  1   force =     0.00000000    0.00000000    0.00000000
     atom   22 type  1   force =     0.00000000    0.00000000    0.00000000
     atom   23 type  1   force =     0.00000000    0.00000000    0.00000000
     atom   24 type  1   force =     0.00000000    0.00000000    0.00000000
     atom   25 type  1   force =     0.00000000    0.00000000    0.00000000
     atom   26 type  1   force =     0.00000000    0.00000000    0.00000000
     atom   27 type  1   force =     0.00000000    0.00000000    0.00000000
     atom   28 type  1   force =     0.00000000    0.00000000    0.00000000
     atom   29 type  1   force =     0.00000000    0.00000000    0.00000000
     atom   30 type  1   force =     0.00000000    0.00000000    0.00000000
     atom   31 type  1   force =     0.00000000    0.00000000    0.00000000
     atom   32 type  1   force =     0.00000000    0.00000000    0.00000000
     atom   33 type  1   force =     0.00000000    0.00000000    0.00000000
     atom   34 type  1   force =     0.00000000    0.00000000    0.00000000
     atom   35 type  1   force =     0.00000000    0.00000000    0.00000000
     atom   36 type  1   force =     0.00000000    0.00000000    0.00000000
     The Hubbard contrib.    to forces
     atom    1 type  1   force =     0.00000000    0.00000000    0.00000000
     atom    2 type  1   force =     0.00000000    0.00000000    0.00000000
     atom    3 type  1   force =     0.00000000    0.00000000    0.00000000
     atom    4 type  1   force =     0.00000000    0.00000000    0.00000000
     atom    5 type  1   force =     0.00000000    0.00000000    0.00000000
     atom    6 type  1   force =     0.00000000    0.00000000    0.00000000
     atom    7 type  1   force =     0.00000000    0.00000000    0.00000000
     atom    8 type  1   force =     0.00000000    0.00000000    0.00000000
     atom    9 type  1   force =     0.00000000    0.00000000    0.00000000
     atom   10 type  1   force =     0.00000000    0.00000000    0.00000000
     atom   11 type  1   force =     0.00000000    0.00000000    0.00000000
     atom   12 type  1   force =     0.00000000    0.00000000    0.00000000
     atom   13 type  1   force =     0.00000000    0.00000000    0.00000000
     atom   14 type  1   force =     0.00000000    0.00000000    0.00000000
     atom   15 type  1   force =     0.00000000    0.00000000    0.00000000
     atom   16 type  1   force =     0.00000000    0.00000000    0.00000000
     atom   17 type  1   force =     0.00000000    0.00000000    0.00000000
     atom   18 type  1   force =     0.00000000    0.00000000    0.00000000
     atom   19 type  1   force =     0.00000000    0.00000000    0.00000000
     atom   20 type  1   force =     0.00000000    0.00000000    0.00000000
     atom   21 type  1   force =     0.00000000    0.00000000    0.00000000
     atom   22 type  1   force =     0.00000000    0.00000000    0.00000000
     atom   23 type  1   force =     0.00000000    0.00000000    0.00000000
     atom   24 type  1   force =     0.00000000    0.00000000    0.00000000
     atom   25 type  1   force =     0.00000000    0.00000000    0.00000000
     atom   26 type  1   force =     0.00000000    0.00000000    0.00000000
     atom   27 type  1   force =     0.00000000    0.00000000    0.00000000
     atom   28 type  1   force =     0.00000000    0.00000000    0.00000000
     atom   29 type  1   force =     0.00000000    0.00000000    0.00000000
     atom   30 type  1   force =     0.00000000    0.00000000    0.00000000
     atom   31 type  1   force =     0.00000000    0.00000000    0.00000000
     atom   32 type  1   force =     0.00000000    0.00000000    0.00000000
     atom   33 type  1   force =     0.00000000    0.00000000    0.00000000
     atom   34 type  1   force =     0.00000000    0.00000000    0.00000000
     atom   35 type  1   force =     0.00000000    0.00000000    0.00000000
     atom   36 type  1   force =     0.00000000    0.00000000    0.00000000
     The SCF correction term to forces
     atom    1 type  1   force =     0.00000000    0.00000000   -0.00000000
     atom    2 type  1   force =     0.00000000    0.00000000    0.00000000
     atom    3 type  1   force =     0.00000000   -0.00000000    0.00000000
     atom    4 type  1   force =    -0.00000000    0.00000000    0.00000000
     atom    5 type  1   force =     0.00000000    0.00000000    0.00000000
     atom    6 type  1   force =    -0.00000000    0.00000000    0.00000000
     atom    7 type  1   force =    -0.00000000   -0.00000000    0.00000000
     atom    8 type  1   force =     0.00000000    0.00000000   -0.00000000
     atom    9 type  1   force =     0.00000000    0.00000000   -0.00000000
     atom   10 type  1   force =    -0.00000000   -0.00000000    0.00000000
     atom   11 type  1   force =    -0.00000000    0.00000000    0.00000000
     atom   12 type  1   force =    -0.00000000   -0.00000000    0.00000000
     atom   13 type  1   force =     0.00000000    0.00000000    0.00000000
     atom   14 type  1   force =     0.00000000   -0.00000000    0.00000000
     atom   15 type  1   force =    -0.00000000    0.00000000    0.00000000
     atom   16 type  1   force =    -0.00000000   -0.00000000   -0.00000000
     atom   17 type  1   force =    -0.00000000   -0.00000000    0.00000000
     atom   18 type  1   force =     0.00000000   -0.00000000    0.00000000
     atom   19 type  1   force =     0.00000000    0.00000000   -0.00000001
     atom   20 type  1   force =     0.00000000    0.00000000    0.00000000
     atom   21 type  1   force =     0.00000000   -0.00000000    0.00000000
     atom   22 type  1   force =    -0.00000000    0.00000000    0.00000000
     atom   23 type  1   force =    -0.00000000   -0.00000000    0.00000000
     atom   24 type  1   force =     0.00000000    0.00000000    0.00000000
     atom   25 type  1   force =     0.00000000   -0.00000000    0.00000000
     atom   26 type  1   force =    -0.00000000    0.00000000   -0.00000000
     atom   27 type  1   force =    -0.00000000    0.00000000   -0.00000000
     atom   28 type  1   force =     0.00000000   -0.00000000    0.00000000
     atom   29 type  1   force =     0.00000000    0.00000000    0.00000000
     atom   30 type  1   force =     0.00000000   -0.00000000    0.00000000
     atom   31 type  1   force =    -0.00000000    0.00000000    0.00000000
     atom   32 type  1   force =    -0.00000000   -0.00000000    0.00000000
     atom   33 type  1   force =     0.00000000    0.00000000    0.00000000
     atom   34 type  1   force =    -0.00000000   -0.00000000   -0.00000000
     atom   35 type  1   force =     0.00000000   -0.00000000    0.00000000
     atom   36 type  1   force =    -0.00000000   -0.00000000    0.00000000

     Total force =     0.009501     Total SCF correction =     0.000000

     Writing all to output data dir ./Li/Lithium.save/ :
     XML data file
     init_run     :     21.85s CPU     29.85s WALL (       1 calls)
     electrons    :   2770.39s CPU   3385.15s WALL (       1 calls)
     forces       :     28.80s CPU     30.08s WALL (       1 calls)

     Called by init_run:
     wfcinit      :      3.14s CPU      4.02s WALL (       1 calls)
     wfcinit:wfcr :      2.81s CPU      3.69s WALL (      16 calls)
     potinit      :      0.95s CPU      1.03s WALL (       1 calls)
     hinit0       :      9.17s CPU     15.82s WALL (       1 calls)

     Called by electrons:
     c_bands      :   1519.31s CPU   1894.38s WALL (      84 calls)
     sum_band     :    123.76s CPU    162.30s WALL (      84 calls)
     v_of_rho     :      9.96s CPU     12.96s WALL (      85 calls)
     v_h          :      0.90s CPU      1.08s WALL (      85 calls)
     v_xc         :      9.05s CPU     11.88s WALL (      85 calls)
     newd         :      4.57s CPU      7.17s WALL (      85 calls)
     PAW_pot      :      0.84s CPU      1.13s WALL (      85 calls)
     mix_rho      :     27.84s CPU     34.88s WALL (      84 calls)

     Called by c_bands:
     init_us_2    :     30.73s CPU     30.99s WALL (    2720 calls)
     cegterg      :   1442.15s CPU   1737.63s WALL (    1603 calls)

     Called by sum_band:
     sum_band:wei :      0.15s CPU      0.16s WALL (      84 calls)
     sum_band:loo :    117.49s CPU    153.67s WALL (      84 calls)
     sum_band:buf :      2.54s CPU      2.70s WALL (    1344 calls)
     sum_band:ini :     15.27s CPU     15.32s WALL (    1344 calls)
     sum_band:cal :     19.48s CPU     21.65s WALL (    1344 calls)
     sum_band:bec :      0.18s CPU      0.20s WALL (    1344 calls)
     addusdens    :      3.97s CPU      4.40s WALL (      84 calls)
                                        0.00s GPU  (      84 calls)
     addusd:skk   :      0.70s CPU      0.81s WALL (      84 calls)
                                        0.00s GPU  (      84 calls)

     Called by *egterg:
     cdiaghg      :    321.48s CPU    334.18s WALL (   15794 calls)
     cegterg:over :    103.91s CPU    115.25s WALL (   14289 calls)
     cegterg:upda :     76.76s CPU     78.13s WALL (   14289 calls)
     cegterg:last :     31.52s CPU     31.69s WALL (    2013 calls)
     h_psi        :    785.47s CPU   1049.26s WALL (   15908 calls)
     s_psi        :     83.44s CPU     84.14s WALL (   15908 calls)
     g_psi        :      1.31s CPU      1.37s WALL (   14289 calls)

     Called by h_psi:
     h_psi:calbec :    107.12s CPU    120.68s WALL (   15908 calls)
     vloc_psi     :    588.25s CPU    836.30s WALL (   15908 calls)
                                        0.00s GPU  (   15908 calls)
     add_vuspsi   :     85.80s CPU     87.11s WALL (   15908 calls)

     General routines
     calbec       :    127.34s CPU    143.17s WALL (   17316 calls)
     fft          :     12.82s CPU     22.24s WALL (    1105 calls)
     ffts         :     15.13s CPU     19.76s WALL (   10378 calls)
     fftw         :    632.50s CPU    901.69s WALL (  921256 calls)
     interpolate  :      1.55s CPU      1.75s WALL (      85 calls)

     Parallel routines

     PAW routines
     PAW_pot      :      0.84s CPU      1.13s WALL (      85 calls)

     Environ routines

     PWSCF        :  47m 1.21s CPU  57m25.56s WALL


   This run was terminated on:   5:21: 8  20Jan2025            

=------------------------------------------------------------------------------=
   JOB DONE.
=------------------------------------------------------------------------------=
