
     Program PWSCF v.7.4 starts on  3Jan2025 at 11:39:35 

     This program is part of the open-source Quantum ESPRESSO suite
     for quantum simulation of materials; please cite
         "P. Giannozzi et al., J. Phys.:Condens. Matter 21 395502 (2009);
         "P. Giannozzi et al., J. Phys.:Condens. Matter 29 465901 (2017);
         "P. Giannozzi et al., J. Chem. Phys. 152 154105 (2020);
          URL http://www.quantum-espresso.org", 
     in publications or presentations arising from this work. More details at
     http://www.quantum-espresso.org/quote

     Parallel version (MPI & OpenMP), running on     512 processor cores
     Number of MPI processes:               512
     Threads/MPI process:                     1

     MPI processes distributed on     4 nodes
     486520 MiB available memory on the printing compute node when the environment starts

     Reading input from espresso.pwi
Warning: card &CELL ignored
Warning: card    PRESS_CONV_THR   = 0.1 ignored
Warning: card    CELL_DOFREE      = 'ALL' ignored
Warning: card / ignored
Warning: card &FCP ignored
Warning: card / ignored
Warning: card &RISM ignored
Warning: card / ignored

     Current dimensions of program PWSCF are:
     Max number of different atomic species (ntypx) = 10
     Max number of k-points (npk) =  40000
     Max angular momentum in pseudopotentials (lmaxx) =  4

     IMPORTANT: XC functional enforced from input :
     Exchange-correlation= PBE
                           (   1   4   3   4   0   0   0)
     Any further DFT definition will be discarded
     Please, verify this is what you really want


     Reading input from environ.in:
     * using ionic solvent mode
     * setting boundary derivatives method to SSCS default
     * setting electrolyte-boundary derivatives method to SSCS default

Environ Warning (1001): card EOF ignored

     

     K-points division:     npool     =       2
     R & G space division:  proc/nbgrp/npool/nimage =     256
     Subspace diagonalization in iterative solution of the eigenvalue problem:
     one sub-group per band group will be used
     ELPA distributed-memory algorithm (size of sub-group:  2*  2 procs)


     Parallelization info
     --------------------
     sticks:   dense  smooth     PW     G-vecs:    dense   smooth      PW
     Min          86      34      9                52542    13274    1767
     Max          87      35     10                52593    13321    1811
     Sum       22119    8865   2329             13455463  3404289  459339

     Using Slab Decomposition



     bravais-lattice index     =           12
     lattice parameter (alat)  =      18.3607  a.u.
     unit-cell volume          =   35212.2554 (a.u.)^3
     number of atoms/cell      =           68
     number of atomic types    =            1
     number of electrons       =       204.00
     number of Kohn-Sham states=          153
     kinetic-energy cutoff     =      80.0000  Ry
     charge density cutoff     =     800.0000  Ry
     scf convergence threshold =      1.0E-06
     mixing beta               =       0.2000
     number of iterations used =            8  local-TF  mixing
     energy convergence thresh.=      1.0E-05
     force convergence thresh. =      3.9E-04
     Exchange-correlation= PBE
                           (   1   4   3   4   0   0   0)
     nstep                     =          999


     ================================================================================

                                  Environ Setup Summary

     ================================================================================

     Please cite

          O. Andreussi, I. Dabo and N. Marzari, J. Chem. Phys. 136, 064102 (2012)
          F. Nattino, M. Truscott, N. Marzari, and O. Andreussi, J. Chem. Phys. 150, 041722 (2019)

     in publications or presentations arising from this work.

     ================================================================================

     Parameters
     ==========

     compensation onset threshold      =               0.1000E+00
     static permittivity               =                    89.90
     surface tension in input (dyn/cm) =                    37.30
     surface tension in internal units =               0.4792E-04

     Solvent Boundary
     ================

     solvent mode                      =                    ionic
     derivatives method                =                   lowmem
     electrolyte derivatives method    =                   lowmem
     numerical core for derivatives    =                      fft
     switching function adopted        =                     SCCS
     density limit for vacuum region   =               0.5000E-02
     density limit for bulk solvent    =               0.1000E-03
     soft-sphere radius mode           =                    bondi
     soft-sphere softness              =                     0.50
     alpha                             =                     1.32

     Electrostatic Setup
     ===================

     electrostatic problem to solve    =                    modpb
     numerical solver adopted          =                   newton
     type of auxiliary density adopted =                     none
     numerical core for poisson        =                      fft
     adopting a nested solver scheme
     inner solver                      =                       cg
     inner core                        =                      fft
     type of pbc corrections           =                parabolic
     numerical core for corrections    =                      1da

     ================================================================================


     >>>>> Grand-Canonical SCF is activated <<<<<
     Initial Total Charge  =     0.000000 e
     Target Fermi Energy   =    -3.404000 eV
     Thr. of Fermi Energy  =     0.001000 eV
     Wave-shift of Kerker  =     0.400000 bohr^-1
     Wave-shift of Hartree =     1.500000 bohr^-1
     Mixing Rate of Fermi  =     0.050000

     celldm(1)=  18.360747  celldm(2)=   1.060660  celldm(3)=   5.518976
     celldm(4)=  -0.235702  celldm(5)=   0.000000  celldm(6)=   0.000000

     crystal axes: (cart. coord. in units of alat)
               a(1) = (   1.000000   0.000000   0.000000 )  
               a(2) = (  -0.250000   1.030776   0.000000 )  
               a(3) = (   0.000000   0.000000   5.518976 )  

     reciprocal axes: (cart. coord. in units 2 pi/alat)
               b(1) = (  1.000000  0.242536 -0.000000 )  
               b(2) = (  0.000000  0.970143  0.000000 )  
               b(3) = (  0.000000 -0.000000  0.181193 )  


     PseudoPot. # 1 for Li read from file:
     /work/e89/e89/ba3g18/Repos/Pseudopotentials/Pslibrary/Li.pbe-sl-kjpaw_psl.1.0.0.UPF
     MD5 check sum: 3f4d2cafebb47c6c3aa8ed472e6f074d
     Pseudo is Projector augmented-wave, Zval =  3.0
     Generated using 'atomic' code by A. Dal Corso  v.7.4
     Shape of augmentation charge: PSQ
     Using radial grid of 1017 points,  4 beta functions with: 
                l(1) =   0
                l(2) =   0
                l(3) =   1
                l(4) =   1
     Q(r) pseudized with 0 coefficients 


     atomic species   valence    mass     pseudopotential
     Li                3.00     6.94000     Li( 1.00)

     No symmetry found


                                    s                        frac. trans.

      isym =  1     identity                                     

 cryst.   s( 1) = (     1          0          0      )
                  (     0          1          0      )
                  (     0          0          1      )

 cart.    s( 1) = (  1.0000000  0.0000000  0.0000000 )
                  (  0.0000000  1.0000000  0.0000000 )
                  (  0.0000000  0.0000000  1.0000000 )


     point group C_1 (1)    
     there are  1 classes
     the character table:

       E    
A      1.00

     the symmetry operations in each class and the name of the first element:

     E        1
          identity                                               

   Cartesian axes

     site n.     atom                  positions (alat units)
         1        Li     tau(   1) = (  -0.0003230   0.0592509   2.0458048  )
         2        Li     tau(   2) = (   0.0002647   0.6014000   3.4433152  )
         3        Li     tau(   3) = (   0.2502167   0.7943693   3.2643922  )
         4        Li     tau(   4) = (   0.2503462   0.1958770   3.2880654  )
         5        Li     tau(   5) = (   0.0002648   0.3647060   3.1749072  )
         6        Li     tau(   6) = (   0.2500997   0.5537930   2.9931219  )
         7        Li     tau(   7) = (   0.2499539   0.9090223   2.6495224  )
         8        Li     tau(   8) = (   0.0002495   0.9657697   3.1013866  )
         9        Li     tau(   9) = (   0.0001293   0.1221121   2.9084060  )
        10        Li     tau(  10) = (   0.2499304   0.3088486   2.7183358  )
        11        Li     tau(  11) = (  -0.0001628   0.4817552   2.5623076  )
        12        Li     tau(  12) = (   0.2498343   0.6661409   2.3749754  )
        13        Li     tau(  13) = (   0.0000485   0.7237585   2.8333156  )
        14        Li     tau(  14) = (   0.2498227   0.0514809   2.5081486  )
        15        Li     tau(  15) = (  -0.0003380   0.2413124   2.3131323  )
        16        Li     tau(  16) = (   0.2498105   0.3846870   2.1052649  )
        17        Li     tau(  17) = (  -0.0002557   0.8461988   2.2326432  )
        18        Li     tau(  18) = (   0.0003276   0.0618591   3.2058438  )
        19        Li     tau(  19) = (   0.0001662   0.6678053   3.1440008  )
        20        Li     tau(  20) = (   0.2501621   0.8521899   2.9566690  )
        21        Li     tau(  21) = (   0.2501771   0.2516851   3.0108373  )
        22        Li     tau(  22) = (   0.0000451   0.4249231   2.8694540  )
        23        Li     tau(  23) = (   0.2499518   0.6101871   2.6856596  )
        24        Li     tau(  24) = (   0.2497345   0.9692398   2.3440696  )
        25        Li     tau(  25) = (   0.0000694   1.0250957   2.8006472  )
        26        Li     tau(  26) = (  -0.0001320   0.1810568   2.6105689  )
        27        Li     tau(  27) = (   0.2497509   0.3681757   2.4175936  )
        28        Li     tau(  28) = (  -0.0002153   0.5395783   2.2545847  )
        29        Li     tau(  29) = (   0.2497361   0.7325419   2.0756593  )
        30        Li     tau(  30) = (  -0.0001000   0.7801515   2.5258520  )
        31        Li     tau(  31) = (   0.2496537   0.1072959   2.2309292  )
        32        Li     tau(  32) = (   0.0003877   0.2439245   3.4731717  )
        33        Li     tau(  33) = (   0.2502572   0.4877508   3.2863293  )
        34        Li     tau(  34) = (   0.0001877   0.9492523   3.4137132  )
        35        Li     tau(  35) = (   0.4995884   0.0592430   2.0458052  )
        36        Li     tau(  36) = (   0.5002752   0.6013937   3.4433210  )
        37        Li     tau(  37) = (   0.7502238   0.7943713   3.2643917  )
        38        Li     tau(  38) = (   0.7503463   0.1958838   3.2880937  )
        39        Li     tau(  39) = (   0.5002620   0.3647070   3.1749056  )
        40        Li     tau(  40) = (   0.7500966   0.5537931   2.9931137  )
        41        Li     tau(  41) = (   0.7499570   0.9090230   2.6495243  )
        42        Li     tau(  42) = (   0.5002492   0.9657742   3.1013802  )
        43        Li     tau(  43) = (   0.5001318   0.1221129   2.9084071  )
        44        Li     tau(  44) = (   0.7499318   0.3088486   2.7183408  )
        45        Li     tau(  45) = (   0.4998368   0.4817561   2.5623059  )
        46        Li     tau(  46) = (   0.7498318   0.6661349   2.3749670  )
        47        Li     tau(  47) = (   0.5000500   0.7237590   2.8333231  )
        48        Li     tau(  48) = (   0.7498214   0.0514888   2.5081148  )
        49        Li     tau(  49) = (   0.4996768   0.2413099   2.3131323  )
        50        Li     tau(  50) = (   0.7498145   0.3847142   2.1052694  )
        51        Li     tau(  51) = (   0.4997416   0.8461851   2.2326630  )
        52        Li     tau(  52) = (   0.5003345   0.0618581   3.2058438  )
        53        Li     tau(  53) = (   0.5001673   0.6678108   3.1440091  )
        54        Li     tau(  54) = (   0.7501641   0.8521901   2.9566698  )
        55        Li     tau(  55) = (   0.7501782   0.2516844   3.0108515  )
        56        Li     tau(  56) = (   0.5000435   0.4249231   2.8694516  )
        57        Li     tau(  57) = (   0.7499500   0.6101870   2.6856541  )
        58        Li     tau(  58) = (   0.7497386   0.9692391   2.3440696  )
        59        Li     tau(  59) = (   0.5000679   1.0250988   2.8006284  )
        60        Li     tau(  60) = (   0.4998703   0.1810583   2.6105702  )
        61        Li     tau(  61) = (   0.7497509   0.3681724   2.4175916  )
        62        Li     tau(  62) = (   0.4997746   0.5395727   2.2545835  )
        63        Li     tau(  63) = (   0.7497231   0.7325558   2.0756564  )
        64        Li     tau(  64) = (   0.4999033   0.7801537   2.5258647  )
        65        Li     tau(  65) = (   0.7496548   0.1072829   2.2308637  )
        66        Li     tau(  66) = (   0.5003479   0.2439207   3.4731704  )
        67        Li     tau(  67) = (   0.7502564   0.4877571   3.2863165  )
        68        Li     tau(  68) = (   0.5001872   0.9492381   3.4137044  )

   Crystallographic axes

     site n.     atom                  positions (cryst. coord.)
         1        Li     tau(   1) = (  0.0140474  0.0574818  0.3706856  )
         2        Li     tau(   2) = (  0.1461256  0.5834439  0.6239047  )
         3        Li     tau(   3) = (  0.4428796  0.7706517  0.5914851  )
         4        Li     tau(   4) = (  0.2978534  0.1900287  0.5957746  )
         5        Li     tau(   5) = (  0.0887191  0.3538169  0.5752711  )
         6        Li     tau(   6) = (  0.3844143  0.5372583  0.5423328  )
         7        Li     tau(   7) = (  0.4704243  0.8818815  0.4800750  )
         8        Li     tau(   8) = (  0.2344831  0.9369346  0.5619496  )
         9        Li     tau(   9) = (  0.0297459  0.1184662  0.5269829  )
        10        Li     tau(  10) = (  0.3248372  0.2996272  0.4925435  )
        11        Li     tau(  11) = (  0.1166801  0.4673714  0.4642723  )
        12        Li     tau(  12) = (  0.4113973  0.6462519  0.4303290  )
        13        Li     tau(  13) = (  0.1755858  0.7021491  0.5133770  )
        14        Li     tau(  14) = (  0.2623086  0.0499438  0.4544590  )
        15        Li     tau(  15) = (  0.0581889  0.2341075  0.4191235  )
        16        Li     tau(  16) = (  0.3431109  0.3732013  0.3814593  )
        17        Li     tau(  17) = (  0.2049777  0.8209337  0.4045394  )
        18        Li     tau(  18) = (  0.0153307  0.0600122  0.5808766  )
        19        Li     tau(  19) = (  0.1621328  0.6478665  0.5696710  )
        20        Li     tau(  20) = (  0.4568486  0.8267460  0.5357278  )
        21        Li     tau(  21) = (  0.3112197  0.2441705  0.5455427  )
        22        Li     tau(  22) = (  0.1031041  0.4122361  0.5199251  )
        23        Li     tau(  23) = (  0.3979440  0.5919687  0.4866228  )
        24        Li     tau(  24) = (  0.4848097  0.9403011  0.4247291  )
        25        Li     tau(  25) = (  0.2486917  0.9944893  0.5074578  )
        26        Li     tau(  26) = (  0.0437808  0.1756509  0.4730169  )
        27        Li     tau(  27) = (  0.3390467  0.3571830  0.4380511  )
        28        Li     tau(  28) = (  0.1306517  0.5234681  0.4085150  )
        29        Li     tau(  29) = (  0.4274037  0.7106703  0.3760950  )
        30        Li     tau(  30) = (  0.1891146  0.7568584  0.4576668  )
        31        Li     tau(  31) = (  0.2756768  0.1040924  0.4042288  )
        32        Li     tau(  32) = (  0.0595481  0.2366416  0.6293145  )
        33        Li     tau(  33) = (  0.3685542  0.4731880  0.5954600  )
        34        Li     tau(  34) = (  0.2304153  0.9209104  0.6185411  )
        35        Li     tau(  35) = (  0.5139569  0.0574742  0.3706857  )
        36        Li     tau(  36) = (  0.6461346  0.5834378  0.6239058  )
        37        Li     tau(  37) = (  0.9428872  0.7706537  0.5914850  )
        38        Li     tau(  38) = (  0.7978551  0.1900353  0.5957797  )
        39        Li     tau(  39) = (  0.5887164  0.3538179  0.5752708  )
        40        Li     tau(  40) = (  0.8844112  0.5372584  0.5423313  )
        41        Li     tau(  41) = (  0.9704276  0.8818822  0.4800753  )
        42        Li     tau(  42) = (  0.7344840  0.9369390  0.5619485  )
        43        Li     tau(  43) = (  0.5297486  0.1184670  0.5269831  )
        44        Li     tau(  44) = (  0.8248387  0.2996273  0.4925444  )
        45        Li     tau(  45) = (  0.6166798  0.4673723  0.4642720  )
        46        Li     tau(  46) = (  0.9113933  0.6462461  0.4303275  )
        47        Li     tau(  47) = (  0.6755874  0.7021497  0.5133784  )
        48        Li     tau(  48) = (  0.7623093  0.0499515  0.4544529  )
        49        Li     tau(  49) = (  0.5582031  0.2341051  0.4191234  )
        50        Li     tau(  50) = (  0.8431214  0.3732277  0.3814601  )
        51        Li     tau(  51) = (  0.7049717  0.8209205  0.4045430  )
        52        Li     tau(  52) = (  0.5153373  0.0600112  0.5808766  )
        53        Li     tau(  53) = (  0.6621353  0.6478719  0.5696725  )
        54        Li     tau(  54) = (  0.9568507  0.8267462  0.5357280  )
        55        Li     tau(  55) = (  0.8112206  0.2441698  0.5455453  )
        56        Li     tau(  56) = (  0.6031025  0.4122362  0.5199246  )
        57        Li     tau(  57) = (  0.8979421  0.5919686  0.4866218  )
        58        Li     tau(  58) = (  0.9848137  0.9403004  0.4247291  )
        59        Li     tau(  59) = (  0.7486909  0.9944923  0.5074543  )
        60        Li     tau(  60) = (  0.5437834  0.1756524  0.4730171  )
        61        Li     tau(  61) = (  0.8390459  0.3571798  0.4380508  )
        62        Li     tau(  62) = (  0.6306402  0.5234626  0.4085148  )
        63        Li     tau(  63) = (  0.9273941  0.7106838  0.3760945  )
        64        Li     tau(  64) = (  0.6891184  0.7568605  0.4576691  )
        65        Li     tau(  65) = (  0.7756747  0.1040798  0.4042170  )
        66        Li     tau(  66) = (  0.5595074  0.2366379  0.6293143  )
        67        Li     tau(  67) = (  0.8685549  0.4731941  0.5954576  )
        68        Li     tau(  68) = (  0.7304113  0.9208966  0.6185395  )

     number of k points=    25  Marzari-Vanderbilt smearing, width (Ry)=  0.0100
                       cart. coord. in units 2pi/alat
        k(    1) = (   0.0000000   0.0000000   0.0000000), wk =   0.0408163
        k(    2) = (   0.0000000   0.1385918   0.0000000), wk =   0.0816327
        k(    3) = (   0.0000000   0.2771837   0.0000000), wk =   0.0816327
        k(    4) = (   0.0000000   0.4157755   0.0000000), wk =   0.0816327
        k(    5) = (   0.1428571   0.0346480   0.0000000), wk =   0.0816327
        k(    6) = (   0.1428571   0.1732398   0.0000000), wk =   0.0816327
        k(    7) = (   0.1428571   0.3118316   0.0000000), wk =   0.0816327
        k(    8) = (   0.1428571   0.4504235   0.0000000), wk =   0.0816327
        k(    9) = (   0.1428571  -0.3811276   0.0000000), wk =   0.0816327
        k(   10) = (   0.1428571  -0.2425357   0.0000000), wk =   0.0816327
        k(   11) = (   0.1428571  -0.1039439   0.0000000), wk =   0.0816327
        k(   12) = (   0.2857143   0.0692959   0.0000000), wk =   0.0816327
        k(   13) = (   0.2857143   0.2078878   0.0000000), wk =   0.0816327
        k(   14) = (   0.2857143   0.3464796   0.0000000), wk =   0.0816327
        k(   15) = (   0.2857143   0.4850714   0.0000000), wk =   0.0816327
        k(   16) = (   0.2857143  -0.3464796   0.0000000), wk =   0.0816327
        k(   17) = (   0.2857143  -0.2078878   0.0000000), wk =   0.0816327
        k(   18) = (   0.2857143  -0.0692959   0.0000000), wk =   0.0816327
        k(   19) = (   0.4285714   0.1039439   0.0000000), wk =   0.0816327
        k(   20) = (   0.4285714   0.2425357   0.0000000), wk =   0.0816327
        k(   21) = (   0.4285714   0.3811276   0.0000000), wk =   0.0816327
        k(   22) = (   0.4285714   0.5197194   0.0000000), wk =   0.0816327
        k(   23) = (   0.4285714  -0.3118316   0.0000000), wk =   0.0816327
        k(   24) = (   0.4285714  -0.1732398   0.0000000), wk =   0.0816327
        k(   25) = (   0.4285714  -0.0346480   0.0000000), wk =   0.0816327

                       cryst. coord.
        k(    1) = (   0.0000000   0.0000000   0.0000000), wk =   0.0408163
        k(    2) = (   0.0000000   0.1428571   0.0000000), wk =   0.0816327
        k(    3) = (   0.0000000   0.2857143   0.0000000), wk =   0.0816327
        k(    4) = (   0.0000000   0.4285714   0.0000000), wk =   0.0816327
        k(    5) = (   0.1428571   0.0000000   0.0000000), wk =   0.0816327
        k(    6) = (   0.1428571   0.1428571   0.0000000), wk =   0.0816327
        k(    7) = (   0.1428571   0.2857143   0.0000000), wk =   0.0816327
        k(    8) = (   0.1428571   0.4285714   0.0000000), wk =   0.0816327
        k(    9) = (   0.1428571  -0.4285714   0.0000000), wk =   0.0816327
        k(   10) = (   0.1428571  -0.2857143   0.0000000), wk =   0.0816327
        k(   11) = (   0.1428571  -0.1428571   0.0000000), wk =   0.0816327
        k(   12) = (   0.2857143   0.0000000   0.0000000), wk =   0.0816327
        k(   13) = (   0.2857143   0.1428571   0.0000000), wk =   0.0816327
        k(   14) = (   0.2857143   0.2857143   0.0000000), wk =   0.0816327
        k(   15) = (   0.2857143   0.4285714   0.0000000), wk =   0.0816327
        k(   16) = (   0.2857143  -0.4285714   0.0000000), wk =   0.0816327
        k(   17) = (   0.2857143  -0.2857143   0.0000000), wk =   0.0816327
        k(   18) = (   0.2857143  -0.1428571   0.0000000), wk =   0.0816327
        k(   19) = (   0.4285714   0.0000000   0.0000000), wk =   0.0816327
        k(   20) = (   0.4285714   0.1428571   0.0000000), wk =   0.0816327
        k(   21) = (   0.4285714   0.2857143   0.0000000), wk =   0.0816327
        k(   22) = (   0.4285714   0.4285714   0.0000000), wk =   0.0816327
        k(   23) = (   0.4285714  -0.4285714   0.0000000), wk =   0.0816327
        k(   24) = (   0.4285714  -0.2857143   0.0000000), wk =   0.0816327
        k(   25) = (   0.4285714  -0.1428571   0.0000000), wk =   0.0816327

     Dense  grid: 13455463 G-vectors     FFT dimensions: ( 180, 180, 960)

     Smooth grid:  3404289 G-vectors     FFT dimensions: ( 108, 120, 600)

     Dynamical RAM for                 wfc:       3.88 MB

     Dynamical RAM for     wfc (w. buffer):      54.32 MB

     Dynamical RAM for           str. fact:       0.80 MB

     Dynamical RAM for           local pot:       0.00 MB

     Dynamical RAM for          nlocal pot:      13.80 MB

     Dynamical RAM for                qrad:       0.65 MB

     Dynamical RAM for          rho,v,vnew:       5.37 MB

     Dynamical RAM for               rhoin:       1.79 MB

     Dynamical RAM for            rho*nmix:      12.84 MB

     Dynamical RAM for           G-vectors:       3.11 MB

     Dynamical RAM for          h,s,v(r/c):       4.29 MB

     Dynamical RAM for          <psi|beta>:       1.27 MB

     Dynamical RAM for                 psi:      15.52 MB

     Dynamical RAM for                hpsi:      15.52 MB

     Dynamical RAM for                spsi:      15.52 MB

     Dynamical RAM for      wfcinit/wfcrot:       8.30 MB

     Dynamical RAM for           addusdens:      44.93 MB

     Dynamical RAM for          addusforce:      98.75 MB

     Estimated static dynamical RAM per process >      86.39 MB

     Estimated max dynamical RAM per process >     205.31 MB

     Estimated total dynamical RAM >      95.78 GB

     Initial potential from superposition of free atoms

     starting charge     203.6866, renormalised to     204.0000

     negative rho (up, down):  5.721E-03 0.000E+00
     Starting wfcs are random
     Checking if some PAW data can be deallocated... 

     total cpu time spent up to now is       47.5 secs

     Self-consistent Calculation

     iteration #  1     ecut=    80.00 Ry     beta= 0.20
     Davidson diagonalization with overlap

---- Real-time Memory Report at c_bands before calling an iterative solver
          1219 MiB given to the printing process from OS
             0 MiB allocation reported by mallinfo(arena+hblkhd)
        465246 MiB available memory on the node where the printing process lives
------------------
     c_bands:  2 eigenvalues not converged
     c_bands:  1 eigenvalues not converged
     ethr =  1.00E-12,  avg # of iterations =137.7

     negative rho (up, down):  4.262E-03 0.000E+00

     total cpu time spent up to now is      757.6 secs

     total energy              =   -1022.28618978 Ry
     estimated scf accuracy    <       0.19806902 Ry

     total charge of GC-SCF    =       0.07294656 e
     the Fermi energy          =      -4.33497439 eV
                        (error :       0.93097439 eV)
     electrostatic embedding   =       0.00000000 Ry
     cavitation energy         =       0.04418152 Ry
     electrolyte free energy   =       0.01515579 Ry
     correction to one-el term =      -0.00000000 Ry

     iteration #  2     ecut=    80.00 Ry     beta= 0.20
     Davidson diagonalization with overlap

---- Real-time Memory Report at c_bands before calling an iterative solver
          1219 MiB given to the printing process from OS
             0 MiB allocation reported by mallinfo(arena+hblkhd)
        459163 MiB available memory on the node where the printing process lives
------------------
     ethr =  1.00E-05,  avg # of iterations = 12.3

     negative rho (up, down):  3.317E-03 0.000E+00

     add environment contribution to local potential

     total cpu time spent up to now is      841.4 secs

     total energy              =   -1022.61079449 Ry
     estimated scf accuracy    <       0.09926926 Ry

     total charge of GC-SCF    =       0.13507731 e
     the Fermi energy          =      -3.32225645 eV
                        (error :       0.08174355 eV)
     electrostatic embedding   =       0.00066384 Ry
     cavitation energy         =       0.04418152 Ry
     electrolyte free energy   =       0.01515579 Ry
     correction to one-el term =      -0.00000000 Ry

     iteration #  3     ecut=    80.00 Ry     beta= 0.20
     Davidson diagonalization with overlap

---- Real-time Memory Report at c_bands before calling an iterative solver
          1219 MiB given to the printing process from OS
             0 MiB allocation reported by mallinfo(arena+hblkhd)
        458926 MiB available memory on the node where the printing process lives
------------------
     ethr =  1.00E-05,  avg # of iterations = 33.9

     negative rho (up, down):  2.640E-03 0.000E+00

     add environment contribution to local potential

     total cpu time spent up to now is      984.7 secs

     total energy              =   -1022.44106742 Ry
     estimated scf accuracy    <       0.06096040 Ry

     total charge of GC-SCF    =       0.19941067 e
     the Fermi energy          =      -3.07891364 eV
                        (error :       0.32508636 eV)
     electrostatic embedding   =      -0.04266169 Ry
     cavitation energy         =       0.04418152 Ry
     electrolyte free energy   =      -0.00701807 Ry
     correction to one-el term =      -3.00876817 Ry

     iteration #  4     ecut=    80.00 Ry     beta= 0.20
     Davidson diagonalization with overlap

---- Real-time Memory Report at c_bands before calling an iterative solver
          1219 MiB given to the printing process from OS
             0 MiB allocation reported by mallinfo(arena+hblkhd)
        458717 MiB available memory on the node where the printing process lives
------------------
     ethr =  1.00E-05,  avg # of iterations = 18.3

     negative rho (up, down):  2.132E-03 0.000E+00

     add environment contribution to local potential

     total cpu time spent up to now is     1091.0 secs

     total energy              =   -1022.52597613 Ry
     estimated scf accuracy    <       0.03885197 Ry

     total charge of GC-SCF    =       0.26824806 e
     the Fermi energy          =      -3.47519482 eV
                        (error :       0.07119482 eV)
     electrostatic embedding   =      -0.03689536 Ry
     cavitation energy         =       0.04418152 Ry
     electrolyte free energy   =      -0.00884725 Ry
     correction to one-el term =      -1.72603022 Ry

     iteration #  5     ecut=    80.00 Ry     beta= 0.20
     Davidson diagonalization with overlap

---- Real-time Memory Report at c_bands before calling an iterative solver
          1219 MiB given to the printing process from OS
             0 MiB allocation reported by mallinfo(arena+hblkhd)
        458838 MiB available memory on the node where the printing process lives
------------------
     ethr =  1.00E-05,  avg # of iterations = 20.2

     negative rho (up, down):  1.719E-03 0.000E+00

     add environment contribution to local potential

     total cpu time spent up to now is     1194.4 secs

     total energy              =   -1022.40465631 Ry
     estimated scf accuracy    <       0.01866213 Ry

     total charge of GC-SCF    =       0.66892004 e
     the Fermi energy          =      -3.18811999 eV
                        (error :       0.21588001 eV)
     electrostatic embedding   =      -0.03541784 Ry
     cavitation energy         =       0.04418152 Ry
     electrolyte free energy   =      -0.00696221 Ry
     correction to one-el term =      -3.80256819 Ry

     iteration #  6     ecut=    80.00 Ry     beta= 0.20
     Davidson diagonalization with overlap

---- Real-time Memory Report at c_bands before calling an iterative solver
          1219 MiB given to the printing process from OS
             0 MiB allocation reported by mallinfo(arena+hblkhd)
        458444 MiB available memory on the node where the printing process lives
------------------
     ethr =  9.18E-06,  avg # of iterations = 22.6

     negative rho (up, down):  1.488E-03 0.000E+00

     add environment contribution to local potential

     total cpu time spent up to now is     1324.9 secs

     total energy              =   -1022.57421823 Ry
     estimated scf accuracy    <       0.00540753 Ry

     total charge of GC-SCF    =       1.01213580 e
     the Fermi energy          =      -2.69444902 eV
                        (error :       0.70955098 eV)
     electrostatic embedding   =      -0.05563372 Ry
     cavitation energy         =       0.04418152 Ry
     electrolyte free energy   =      -0.00243725 Ry
     correction to one-el term =     -12.62803258 Ry

     iteration #  7     ecut=    80.00 Ry     beta= 0.20
     Davidson diagonalization with overlap

---- Real-time Memory Report at c_bands before calling an iterative solver
          1219 MiB given to the printing process from OS
             0 MiB allocation reported by mallinfo(arena+hblkhd)
        458678 MiB available memory on the node where the printing process lives
------------------
     ethr =  2.66E-06,  avg # of iterations = 14.2

     negative rho (up, down):  1.457E-03 0.000E+00

     add environment contribution to local potential

     total cpu time spent up to now is     1416.0 secs

     total energy              =   -1022.53385445 Ry
     estimated scf accuracy    <       0.00205135 Ry

     total charge of GC-SCF    =       1.45112169 e
     the Fermi energy          =      -2.73827712 eV
                        (error :       0.66572288 eV)
     electrostatic embedding   =      -0.09495649 Ry
     cavitation energy         =       0.04418152 Ry
     electrolyte free energy   =      -0.00307522 Ry
     correction to one-el term =     -21.48135771 Ry

     iteration #  8     ecut=    80.00 Ry     beta= 0.20
     Davidson diagonalization with overlap

---- Real-time Memory Report at c_bands before calling an iterative solver
          1219 MiB given to the printing process from OS
             0 MiB allocation reported by mallinfo(arena+hblkhd)
        458506 MiB available memory on the node where the printing process lives
------------------
     ethr =  1.01E-06,  avg # of iterations = 31.7

     negative rho (up, down):  3.280E-03 0.000E+00

     add environment contribution to local potential

     total cpu time spent up to now is     1557.8 secs

     total energy              =   -1022.67550624 Ry
     estimated scf accuracy    <       0.01606883 Ry

     total charge of GC-SCF    =       1.48263260 e
     the Fermi energy          =      -3.16237086 eV
                        (error :       0.24162914 eV)
     electrostatic embedding   =      -0.15656337 Ry
     cavitation energy         =       0.04418152 Ry
     electrolyte free energy   =      -0.00706602 Ry
     correction to one-el term =     -34.15621436 Ry

     iteration #  9     ecut=    80.00 Ry     beta= 0.20
     Davidson diagonalization with overlap

---- Real-time Memory Report at c_bands before calling an iterative solver
          1219 MiB given to the printing process from OS
             0 MiB allocation reported by mallinfo(arena+hblkhd)
        458179 MiB available memory on the node where the printing process lives
------------------
     ethr =  1.01E-06,  avg # of iterations = 15.2

     negative rho (up, down):  4.910E-03 0.000E+00

     add environment contribution to local potential

     total cpu time spent up to now is     1660.0 secs

     total energy              =   -1022.66458034 Ry
     estimated scf accuracy    <       0.04426624 Ry

     total charge of GC-SCF    =       1.67138462 e
     the Fermi energy          =      -3.36487306 eV
                        (error :       0.03912694 eV)
     electrostatic embedding   =      -0.15801059 Ry
     cavitation energy         =       0.04418152 Ry
     electrolyte free energy   =      -0.00813880 Ry
     correction to one-el term =     -33.85180893 Ry

     iteration # 10     ecut=    80.00 Ry     beta= 0.20
     Davidson diagonalization with overlap

---- Real-time Memory Report at c_bands before calling an iterative solver
          1219 MiB given to the printing process from OS
             0 MiB allocation reported by mallinfo(arena+hblkhd)
        458464 MiB available memory on the node where the printing process lives
------------------
     ethr =  1.01E-06,  avg # of iterations = 16.3

     negative rho (up, down):  7.985E-03 0.000E+00

     add environment contribution to local potential

     total cpu time spent up to now is     1748.7 secs

     total energy              =   -1022.64820576 Ry
     estimated scf accuracy    <       0.04382606 Ry

     total charge of GC-SCF    =       1.94933252 e
     the Fermi energy          =      -3.40616564 eV
                        (error :       0.00216564 eV)
     electrostatic embedding   =      -0.19891310 Ry
     cavitation energy         =       0.04418152 Ry
     electrolyte free energy   =      -0.00887442 Ry
     correction to one-el term =     -39.97862821 Ry

     iteration # 11     ecut=    80.00 Ry     beta= 0.20
     Davidson diagonalization with overlap

---- Real-time Memory Report at c_bands before calling an iterative solver
          1219 MiB given to the printing process from OS
             0 MiB allocation reported by mallinfo(arena+hblkhd)
        458175 MiB available memory on the node where the printing process lives
------------------
     ethr =  1.01E-06,  avg # of iterations = 11.1

     negative rho (up, down):  2.664E-03 0.000E+00

     add environment contribution to local potential

     total cpu time spent up to now is     1824.3 secs

     total energy              =   -1022.54521437 Ry
     estimated scf accuracy    <       0.03709182 Ry

     total charge of GC-SCF    =       2.30414033 e
     the Fermi energy          =      -3.42357190 eV
                        (error :       0.01957190 eV)
     electrostatic embedding   =      -0.27359968 Ry
     cavitation energy         =       0.04418152 Ry
     electrolyte free energy   =      -0.01001391 Ry
     correction to one-el term =     -49.62346194 Ry

     iteration # 12     ecut=    80.00 Ry     beta= 0.20
     Davidson diagonalization with overlap

---- Real-time Memory Report at c_bands before calling an iterative solver
          1219 MiB given to the printing process from OS
             0 MiB allocation reported by mallinfo(arena+hblkhd)
        458178 MiB available memory on the node where the printing process lives
------------------
     ethr =  1.01E-06,  avg # of iterations = 41.1

     negative rho (up, down):  3.700E-03 0.000E+00

     add environment contribution to local potential

     total cpu time spent up to now is     1986.3 secs

     total energy              =   -1022.60780134 Ry
     estimated scf accuracy    <       0.00349094 Ry

     total charge of GC-SCF    =       2.51458287 e
     the Fermi energy          =      -3.14980360 eV
                        (error :       0.25419640 eV)
     electrostatic embedding   =      -0.41307584 Ry
     cavitation energy         =       0.04418152 Ry
     electrolyte free energy   =      -0.01041165 Ry
     correction to one-el term =     -65.10005475 Ry

     iteration # 13     ecut=    80.00 Ry     beta= 0.20
     Davidson diagonalization with overlap

---- Real-time Memory Report at c_bands before calling an iterative solver
          1219 MiB given to the printing process from OS
             0 MiB allocation reported by mallinfo(arena+hblkhd)
        458133 MiB available memory on the node where the printing process lives
------------------
     ethr =  1.01E-06,  avg # of iterations = 10.9

     negative rho (up, down):  1.081E-03 0.000E+00

     add environment contribution to local potential

     total cpu time spent up to now is     2061.0 secs

     total energy              =   -1022.61272350 Ry
     estimated scf accuracy    <       0.00124616 Ry

     total charge of GC-SCF    =       2.73724846 e
     the Fermi energy          =      -3.16236990 eV
                        (error :       0.24163010 eV)
     electrostatic embedding   =      -0.49863831 Ry
     cavitation energy         =       0.04418152 Ry
     electrolyte free energy   =      -0.01171116 Ry
     correction to one-el term =     -72.53957851 Ry

     iteration # 14     ecut=    80.00 Ry     beta= 0.20
     Davidson diagonalization with overlap

---- Real-time Memory Report at c_bands before calling an iterative solver
          1219 MiB given to the printing process from OS
             0 MiB allocation reported by mallinfo(arena+hblkhd)
        457997 MiB available memory on the node where the printing process lives
------------------
     ethr =  6.19E-07,  avg # of iterations = 15.7

     negative rho (up, down):  8.752E-04 0.000E+00

     add environment contribution to local potential

     total cpu time spent up to now is     2159.7 secs

     total energy              =   -1022.62174077 Ry
     estimated scf accuracy    <       0.00028551 Ry

     total charge of GC-SCF    =       2.94690446 e
     the Fermi energy          =      -3.21516159 eV
                        (error :       0.18883841 eV)
     electrostatic embedding   =      -0.60304450 Ry
     cavitation energy         =       0.04418152 Ry
     electrolyte free energy   =      -0.01388181 Ry
     correction to one-el term =     -81.33772076 Ry

     iteration # 15     ecut=    80.00 Ry     beta= 0.20
     Davidson diagonalization with overlap

---- Real-time Memory Report at c_bands before calling an iterative solver
          1219 MiB given to the printing process from OS
             0 MiB allocation reported by mallinfo(arena+hblkhd)
        458288 MiB available memory on the node where the printing process lives
------------------
     ethr =  1.42E-07,  avg # of iterations = 47.4

     negative rho (up, down):  7.690E-04 0.000E+00

     add environment contribution to local potential

     total cpu time spent up to now is     2355.0 secs

     total energy              =   -1022.62887837 Ry
     estimated scf accuracy    <       0.00016245 Ry

     total charge of GC-SCF    =       3.02131890 e
     the Fermi energy          =      -3.30495130 eV
                        (error :       0.09904870 eV)
     electrostatic embedding   =      -0.70775268 Ry
     cavitation energy         =       0.04418152 Ry
     electrolyte free energy   =      -0.01631790 Ry
     correction to one-el term =     -88.98366403 Ry

     iteration # 16     ecut=    80.00 Ry     beta= 0.20
     Davidson diagonalization with overlap

---- Real-time Memory Report at c_bands before calling an iterative solver
          1219 MiB given to the printing process from OS
             0 MiB allocation reported by mallinfo(arena+hblkhd)
        458162 MiB available memory on the node where the printing process lives
------------------
     ethr =  8.08E-08,  avg # of iterations = 18.2

     negative rho (up, down):  7.471E-04 0.000E+00

     add environment contribution to local potential

     total cpu time spent up to now is     2467.6 secs

     total energy              =   -1022.63025894 Ry
     estimated scf accuracy    <       0.00003060 Ry

     total charge of GC-SCF    =       3.08745456 e
     the Fermi energy          =      -3.31219798 eV
                        (error :       0.09180202 eV)
     electrostatic embedding   =      -0.75030482 Ry
     cavitation energy         =       0.04418152 Ry
     electrolyte free energy   =      -0.01705052 Ry
     correction to one-el term =     -91.90380068 Ry

     iteration # 17     ecut=    80.00 Ry     beta= 0.20
     Davidson diagonalization with overlap

---- Real-time Memory Report at c_bands before calling an iterative solver
          1219 MiB given to the printing process from OS
             0 MiB allocation reported by mallinfo(arena+hblkhd)
        458288 MiB available memory on the node where the printing process lives
------------------
     ethr =  1.52E-08,  avg # of iterations = 44.2

     negative rho (up, down):  8.020E-04 0.000E+00

     add environment contribution to local potential

     total cpu time spent up to now is     2651.7 secs

     total energy              =   -1022.63079253 Ry
     estimated scf accuracy    <       0.00002892 Ry

     total charge of GC-SCF    =       3.13477094 e
     the Fermi energy          =      -3.34398347 eV
                        (error :       0.06001653 eV)
     electrostatic embedding   =      -0.78577467 Ry
     cavitation energy         =       0.04418152 Ry
     electrolyte free energy   =      -0.01780939 Ry
     correction to one-el term =     -94.12880267 Ry

     iteration # 18     ecut=    80.00 Ry     beta= 0.20
     Davidson diagonalization with overlap

---- Real-time Memory Report at c_bands before calling an iterative solver
          1219 MiB given to the printing process from OS
             0 MiB allocation reported by mallinfo(arena+hblkhd)
        458145 MiB available memory on the node where the printing process lives
------------------
     ethr =  1.44E-08,  avg # of iterations = 18.4

     negative rho (up, down):  8.289E-04 0.000E+00

     add environment contribution to local potential

     total cpu time spent up to now is     2769.4 secs

     total energy              =   -1022.63098043 Ry
     estimated scf accuracy    <       0.00001086 Ry

     total charge of GC-SCF    =       3.20085949 e
     the Fermi energy          =      -3.35541207 eV
                        (error :       0.04858793 eV)
     electrostatic embedding   =      -0.81262208 Ry
     cavitation energy         =       0.04418152 Ry
     electrolyte free energy   =      -0.01830818 Ry
     correction to one-el term =     -95.81375831 Ry

     iteration # 19     ecut=    80.00 Ry     beta= 0.20
     Davidson diagonalization with overlap

---- Real-time Memory Report at c_bands before calling an iterative solver
          1219 MiB given to the printing process from OS
             0 MiB allocation reported by mallinfo(arena+hblkhd)
        458392 MiB available memory on the node where the printing process lives
------------------
     ethr =  5.41E-09,  avg # of iterations = 49.2

     negative rho (up, down):  8.667E-04 0.000E+00

     add environment contribution to local potential

     total cpu time spent up to now is     2972.7 secs

     total energy              =   -1022.63133825 Ry
     estimated scf accuracy    <       0.00000594 Ry

     total charge of GC-SCF    =       3.24163719 e
     the Fermi energy          =      -3.38427414 eV
                        (error :       0.01972586 eV)
     electrostatic embedding   =      -0.84956617 Ry
     cavitation energy         =       0.04418152 Ry
     electrolyte free energy   =      -0.01909429 Ry
     correction to one-el term =     -98.07677636 Ry

     iteration # 20     ecut=    80.00 Ry     beta= 0.20
     Davidson diagonalization with overlap

---- Real-time Memory Report at c_bands before calling an iterative solver
          1219 MiB given to the printing process from OS
             0 MiB allocation reported by mallinfo(arena+hblkhd)
        458077 MiB available memory on the node where the printing process lives
------------------
     ethr =  2.96E-09,  avg # of iterations = 26.9

     negative rho (up, down):  8.252E-04 0.000E+00

     add environment contribution to local potential

     total cpu time spent up to now is     3109.1 secs

     total energy              =   -1022.63139310 Ry
     estimated scf accuracy    <       0.00000229 Ry

     total charge of GC-SCF    =       3.26891620 e
     the Fermi energy          =      -3.39424960 eV
                        (error :       0.00975040 eV)
     electrostatic embedding   =      -0.87275535 Ry
     cavitation energy         =       0.04418152 Ry
     electrolyte free energy   =      -0.01949864 Ry
     correction to one-el term =     -99.40741128 Ry

     iteration # 21     ecut=    80.00 Ry     beta= 0.20
     Davidson diagonalization with overlap

---- Real-time Memory Report at c_bands before calling an iterative solver
          1219 MiB given to the printing process from OS
             0 MiB allocation reported by mallinfo(arena+hblkhd)
        458291 MiB available memory on the node where the printing process lives
------------------
     ethr =  1.14E-09,  avg # of iterations = 30.8

     negative rho (up, down):  8.083E-04 0.000E+00

     add environment contribution to local potential

     total cpu time spent up to now is     3249.3 secs

     total energy              =   -1022.63138573 Ry
     estimated scf accuracy    <       0.00000095 Ry

     total charge of GC-SCF    =       3.28215852 e
     the Fermi energy          =      -3.40060788 eV
                        (error :       0.00339212 eV)
     electrostatic embedding   =      -0.88854264 Ry
     cavitation energy         =       0.04418152 Ry
     electrolyte free energy   =      -0.01977019 Ry
     correction to one-el term =    -100.30770675 Ry

     iteration # 22     ecut=    80.00 Ry     beta= 0.20
     Davidson diagonalization with overlap

---- Real-time Memory Report at c_bands before calling an iterative solver
          1219 MiB given to the printing process from OS
             0 MiB allocation reported by mallinfo(arena+hblkhd)
        458026 MiB available memory on the node where the printing process lives
------------------
     ethr =  4.74E-10,  avg # of iterations = 17.0

     negative rho (up, down):  7.444E-04 0.000E+00

     total cpu time spent up to now is     3345.3 secs

     End of self-consistent calculation

          k = 0.0000 0.0000 0.0000 (425513 PWs)   bands (ev):

   -51.2655 -51.2655 -51.2654 -51.2653 -51.1709 -51.1709 -51.1708 -51.1707
   -51.0352 -51.0352 -51.0351 -51.0351 -50.2350 -50.2350 -50.2347 -50.2347
   -50.2039 -50.2038 -50.2036 -50.2035 -50.0907 -50.0903 -50.0902 -50.0900
   -49.9535 -49.9515 -49.9484 -49.9470 -49.9321 -49.9308 -49.9300 -49.9297
   -49.9217 -49.9213 -49.9205 -49.9190 -49.9170 -49.9167 -49.9164 -49.9145
   -49.9141 -49.9137 -49.9136 -49.9127 -49.9123 -49.9121 -49.9107 -49.9106
   -49.9095 -49.9093 -49.9085 -49.9055 -49.9052 -49.9051 -49.9047 -49.9045
   -49.8813 -49.8811 -49.8810 -49.8807 -49.8634 -49.8631 -49.8626 -49.8622
   -49.7856 -49.7855 -49.7853 -49.7851  -6.8472  -6.5139  -5.9361  -5.7290
    -5.7248  -5.5961  -5.5853  -5.4006  -5.3790  -5.2661  -5.2575  -5.1473
    -5.0235  -5.0233  -4.8147  -4.7864  -4.7506  -4.6977  -4.6728  -4.6151
    -4.2798  -4.1323  -4.1225  -4.0131  -3.9885  -3.9815  -3.9579  -3.8791
    -3.8487  -3.6310  -3.5971  -3.3663  -3.3653  -3.1920  -3.1712  -3.1063
    -3.0330  -2.9840  -2.9432  -2.9306  -2.9067  -2.6875  -2.6737  -2.6292
    -2.5794  -2.4900  -2.4368  -2.4282  -2.3063  -2.2698  -2.2384  -2.1780
    -2.1502  -2.1328  -2.0629  -2.0505  -2.0413  -1.9684  -1.8285  -1.5658
    -1.4794  -1.4041  -1.3919  -1.3651  -1.2939  -1.2712  -1.0823  -1.0245
    -0.8544  -0.7885  -0.6113  -0.5458  -0.4877  -0.4739  -0.3281  -0.1729
    -0.1698  -0.1539  -0.1197  -0.0740  -0.0697  -0.0653  -0.0645   0.0350
     0.0532

     occupation numbers 
     1.0000   1.0000   1.0000   1.0000   1.0000   1.0000   1.0000   1.0000
     1.0000   1.0000   1.0000   1.0000   1.0000   1.0000   1.0000   1.0000
     1.0000   1.0000   1.0000   1.0000   1.0000   1.0000   1.0000   1.0000
     1.0000   1.0000   1.0000   1.0000   1.0000   1.0000   1.0000   1.0000
     1.0000   1.0000   1.0000   1.0000   1.0000   1.0000   1.0000   1.0000
     1.0000   1.0000   1.0000   1.0000   1.0000   1.0000   1.0000   1.0000
     1.0000   1.0000   1.0000   1.0000   1.0000   1.0000   1.0000   1.0000
     1.0000   1.0000   1.0000   1.0000   1.0000   1.0000   1.0000   1.0000
     1.0000   1.0000   1.0000   1.0000   1.0000   1.0000   1.0000   1.0000
     1.0000   1.0000   1.0000   1.0000   1.0000   1.0000   1.0000   1.0000
     1.0000   1.0000   1.0000   1.0000   1.0000   1.0000   1.0000   1.0000
     1.0000   1.0000   1.0000   1.0000   1.0000   1.0000   1.0000   1.0001
     1.0004   1.0711   1.0833   0.2347   0.2311   0.0031   0.0015   0.0001
     0.0000   0.0000   0.0000   0.0000   0.0000   0.0000   0.0000   0.0000
     0.0000   0.0000   0.0000   0.0000   0.0000   0.0000   0.0000   0.0000
     0.0000   0.0000   0.0000   0.0000   0.0000   0.0000   0.0000   0.0000
     0.0000   0.0000   0.0000   0.0000   0.0000   0.0000   0.0000   0.0000
     0.0000   0.0000   0.0000   0.0000   0.0000   0.0000   0.0000   0.0000
     0.0000   0.0000   0.0000   0.0000   0.0000   0.0000   0.0000   0.0000
     0.0000

          k = 0.0000 0.1386 0.0000 (425461 PWs)   bands (ev):

   -51.2655 -51.2655 -51.2654 -51.2653 -51.1709 -51.1709 -51.1708 -51.1707
   -51.0352 -51.0352 -51.0351 -51.0351 -50.2350 -50.2350 -50.2347 -50.2347
   -50.2039 -50.2038 -50.2036 -50.2035 -50.0907 -50.0903 -50.0902 -50.0900
   -49.9535 -49.9515 -49.9484 -49.9470 -49.9322 -49.9308 -49.9300 -49.9297
   -49.9217 -49.9213 -49.9206 -49.9191 -49.9169 -49.9166 -49.9165 -49.9145
   -49.9141 -49.9137 -49.9137 -49.9126 -49.9123 -49.9120 -49.9107 -49.9106
   -49.9094 -49.9093 -49.9085 -49.9055 -49.9052 -49.9051 -49.9047 -49.9045
   -49.8813 -49.8811 -49.8810 -49.8807 -49.8634 -49.8631 -49.8626 -49.8622
   -49.7856 -49.7855 -49.7853 -49.7851  -6.8244  -6.4911  -6.0240  -5.9132
    -5.6851  -5.6489  -5.4874  -5.3854  -5.3201  -5.2402  -5.1567  -5.1415
    -5.0797  -5.0469  -4.9160  -4.7648  -4.7319  -4.5851  -4.4634  -4.4186
    -4.3313  -4.3160  -4.3065  -4.2304  -3.9833  -3.9408  -3.8691  -3.7393
    -3.6806  -3.6071  -3.5743  -3.4212  -3.3461  -3.2695  -3.1614  -3.1451
    -3.0387  -3.0381  -3.0130  -2.8557  -2.8291  -2.8199  -2.7884  -2.7740
    -2.7101  -2.6479  -2.4613  -2.4293  -2.3787  -2.3426  -2.2794  -2.1988
    -2.1848  -2.0153  -1.9795  -1.9007  -1.8492  -1.8275  -1.6700  -1.6169
    -1.5001  -1.4663  -1.3492  -1.2422  -1.2281  -1.1611  -1.0903  -1.0361
    -0.8668  -0.6544  -0.6381  -0.5978  -0.5380  -0.4455  -0.2989  -0.2520
    -0.1816  -0.1669  -0.1642  -0.1416  -0.1209  -0.0935  -0.0671  -0.0512
    -0.0277

     occupation numbers 
     1.0000   1.0000   1.0000   1.0000   1.0000   1.0000   1.0000   1.0000
     1.0000   1.0000   1.0000   1.0000   1.0000   1.0000   1.0000   1.0000
     1.0000   1.0000   1.0000   1.0000   1.0000   1.0000   1.0000   1.0000
     1.0000   1.0000   1.0000   1.0000   1.0000   1.0000   1.0000   1.0000
     1.0000   1.0000   1.0000   1.0000   1.0000   1.0000   1.0000   1.0000
     1.0000   1.0000   1.0000   1.0000   1.0000   1.0000   1.0000   1.0000
     1.0000   1.0000   1.0000   1.0000   1.0000   1.0000   1.0000   1.0000
     1.0000   1.0000   1.0000   1.0000   1.0000   1.0000   1.0000   1.0000
     1.0000   1.0000   1.0000   1.0000   1.0000   1.0000   1.0000   1.0000
     1.0000   1.0000   1.0000   1.0000   1.0000   1.0000   1.0000   1.0000
     1.0000   1.0000   1.0000   1.0000   1.0000   1.0000   1.0000   1.0000
     1.0000   1.0000   1.0000   1.0000   1.0000   1.0000   1.0002   1.0116
     1.0382   1.0819   1.0762   0.4924   0.1663   0.0310   0.0010   0.0006
     0.0000   0.0000   0.0000   0.0000   0.0000   0.0000   0.0000   0.0000
     0.0000   0.0000   0.0000   0.0000   0.0000   0.0000   0.0000   0.0000
     0.0000   0.0000   0.0000   0.0000   0.0000   0.0000   0.0000   0.0000
     0.0000   0.0000   0.0000   0.0000   0.0000   0.0000   0.0000   0.0000
     0.0000   0.0000   0.0000   0.0000   0.0000   0.0000   0.0000   0.0000
     0.0000   0.0000   0.0000   0.0000   0.0000   0.0000   0.0000   0.0000
     0.0000

          k = 0.0000 0.2772 0.0000 (425344 PWs)   bands (ev):

   -51.2655 -51.2655 -51.2654 -51.2653 -51.1709 -51.1709 -51.1708 -51.1707
   -51.0352 -51.0352 -51.0351 -51.0351 -50.2350 -50.2350 -50.2347 -50.2347
   -50.2039 -50.2038 -50.2036 -50.2035 -50.0907 -50.0903 -50.0902 -50.0900
   -49.9534 -49.9515 -49.9484 -49.9470 -49.9323 -49.9308 -49.9300 -49.9297
   -49.9217 -49.9212 -49.9207 -49.9191 -49.9167 -49.9166 -49.9165 -49.9145
   -49.9142 -49.9138 -49.9136 -49.9126 -49.9123 -49.9118 -49.9107 -49.9106
   -49.9094 -49.9093 -49.9085 -49.9056 -49.9052 -49.9051 -49.9047 -49.9045
   -49.8813 -49.8811 -49.8810 -49.8807 -49.8634 -49.8631 -49.8626 -49.8622
   -49.7856 -49.7855 -49.7853 -49.7851  -6.7562  -6.4232  -6.2744  -5.9424
    -5.8379  -5.6605  -5.4223  -5.3541  -5.3402  -5.3183  -5.0940  -5.0540
    -4.9993  -4.9914  -4.7465  -4.6642  -4.6200  -4.5518  -4.5185  -4.4670
    -4.4234  -4.2745  -4.1775  -4.1208  -4.0861  -3.9620  -3.7752  -3.6732
    -3.6592  -3.6393  -3.5739  -3.4985  -3.4231  -3.3512  -3.2778  -3.2567
    -3.1607  -3.0725  -2.9930  -2.9422  -2.9366  -2.9191  -2.8588  -2.8396
    -2.7495  -2.6362  -2.5353  -2.4712  -2.4587  -2.3534  -2.3044  -2.2716
    -2.0906  -1.9479  -1.9430  -1.8029  -1.7629  -1.6661  -1.5980  -1.5065
    -1.4732  -1.3340  -1.2171  -1.1607  -1.0866  -1.0484  -0.9551  -0.9209
    -0.8680  -0.8417  -0.6883  -0.6712  -0.5303  -0.4894  -0.4330  -0.4139
    -0.3942  -0.1803  -0.1593  -0.1142  -0.0938  -0.0741  -0.0453  -0.0016
     0.0074

     occupation numbers 
     1.0000   1.0000   1.0000   1.0000   1.0000   1.0000   1.0000   1.0000
     1.0000   1.0000   1.0000   1.0000   1.0000   1.0000   1.0000   1.0000
     1.0000   1.0000   1.0000   1.0000   1.0000   1.0000   1.0000   1.0000
     1.0000   1.0000   1.0000   1.0000   1.0000   1.0000   1.0000   1.0000
     1.0000   1.0000   1.0000   1.0000   1.0000   1.0000   1.0000   1.0000
     1.0000   1.0000   1.0000   1.0000   1.0000   1.0000   1.0000   1.0000
     1.0000   1.0000   1.0000   1.0000   1.0000   1.0000   1.0000   1.0000
     1.0000   1.0000   1.0000   1.0000   1.0000   1.0000   1.0000   1.0000
     1.0000   1.0000   1.0000   1.0000   1.0000   1.0000   1.0000   1.0000
     1.0000   1.0000   1.0000   1.0000   1.0000   1.0000   1.0000   1.0000
     1.0000   1.0000   1.0000   1.0000   1.0000   1.0000   1.0000   1.0000
     1.0000   1.0000   1.0000   1.0000   1.0000   1.0000   1.0045   1.0429
     1.0524   1.0659   1.0759   0.8934   0.5023   0.1819   0.0383   0.0221
     0.0010   0.0000   0.0000   0.0000   0.0000   0.0000   0.0000   0.0000
     0.0000   0.0000   0.0000   0.0000   0.0000   0.0000   0.0000   0.0000
     0.0000   0.0000   0.0000   0.0000   0.0000   0.0000   0.0000   0.0000
     0.0000   0.0000   0.0000   0.0000   0.0000   0.0000   0.0000   0.0000
     0.0000   0.0000   0.0000   0.0000   0.0000   0.0000   0.0000   0.0000
     0.0000   0.0000   0.0000   0.0000   0.0000   0.0000   0.0000   0.0000
     0.0000

          k = 0.0000 0.4158 0.0000 (425441 PWs)   bands (ev):

   -51.2655 -51.2655 -51.2654 -51.2653 -51.1709 -51.1709 -51.1708 -51.1707
   -51.0352 -51.0352 -51.0351 -51.0351 -50.2350 -50.2350 -50.2347 -50.2347
   -50.2039 -50.2038 -50.2036 -50.2035 -50.0907 -50.0903 -50.0902 -50.0900
   -49.9534 -49.9515 -49.9484 -49.9470 -49.9324 -49.9308 -49.9300 -49.9297
   -49.9217 -49.9211 -49.9208 -49.9191 -49.9167 -49.9165 -49.9164 -49.9145
   -49.9143 -49.9139 -49.9137 -49.9127 -49.9123 -49.9117 -49.9107 -49.9106
   -49.9094 -49.9093 -49.9085 -49.9056 -49.9052 -49.9051 -49.9047 -49.9046
   -49.8813 -49.8811 -49.8810 -49.8807 -49.8634 -49.8631 -49.8626 -49.8622
   -49.7856 -49.7855 -49.7853 -49.7851  -6.6437  -6.4791  -6.3107  -6.1423
    -5.7291  -5.6258  -5.5565  -5.5443  -5.2966  -5.2168  -5.1352  -4.9393
    -4.9013  -4.8190  -4.7542  -4.7066  -4.6468  -4.5640  -4.5404  -4.2393
    -4.2343  -4.1394  -4.0921  -4.0721  -4.0220  -3.9023  -3.8529  -3.8348
    -3.7857  -3.7672  -3.7643  -3.6690  -3.4753  -3.4355  -3.2777  -3.2740
    -3.1743  -3.0622  -3.0365  -2.9958  -2.9851  -2.9168  -2.8416  -2.8067
    -2.7035  -2.6835  -2.6508  -2.5930  -2.4371  -2.3950  -2.3097  -2.1059
    -1.9888  -1.8557  -1.8447  -1.8341  -1.7264  -1.6987  -1.5528  -1.4909
    -1.3808  -1.3322  -1.3103  -1.0866  -1.0486  -1.0265  -0.9105  -0.8922
    -0.8598  -0.7756  -0.7478  -0.7126  -0.6340  -0.5786  -0.3339  -0.3102
    -0.2955  -0.1727  -0.1636  -0.1465  -0.1284  -0.1006  -0.0848   0.0050
     0.0150

     occupation numbers 
     1.0000   1.0000   1.0000   1.0000   1.0000   1.0000   1.0000   1.0000
     1.0000   1.0000   1.0000   1.0000   1.0000   1.0000   1.0000   1.0000
     1.0000   1.0000   1.0000   1.0000   1.0000   1.0000   1.0000   1.0000
     1.0000   1.0000   1.0000   1.0000   1.0000   1.0000   1.0000   1.0000
     1.0000   1.0000   1.0000   1.0000   1.0000   1.0000   1.0000   1.0000
     1.0000   1.0000   1.0000   1.0000   1.0000   1.0000   1.0000   1.0000
     1.0000   1.0000   1.0000   1.0000   1.0000   1.0000   1.0000   1.0000
     1.0000   1.0000   1.0000   1.0000   1.0000   1.0000   1.0000   1.0000
     1.0000   1.0000   1.0000   1.0000   1.0000   1.0000   1.0000   1.0000
     1.0000   1.0000   1.0000   1.0000   1.0000   1.0000   1.0000   1.0000
     1.0000   1.0000   1.0000   1.0000   1.0000   1.0000   1.0000   1.0000
     1.0000   1.0000   1.0000   1.0000   1.0000   1.0000   1.0004   1.0007
     1.0034   1.0057   1.0061   1.0457   0.7856   0.5706   0.0382   0.0348
     0.0017   0.0000   0.0000   0.0000   0.0000   0.0000   0.0000   0.0000
     0.0000   0.0000   0.0000   0.0000   0.0000   0.0000   0.0000   0.0000
     0.0000   0.0000   0.0000   0.0000   0.0000   0.0000   0.0000   0.0000
     0.0000   0.0000   0.0000   0.0000   0.0000   0.0000   0.0000   0.0000
     0.0000   0.0000   0.0000   0.0000   0.0000   0.0000   0.0000   0.0000
     0.0000   0.0000   0.0000   0.0000   0.0000   0.0000   0.0000   0.0000
     0.0000

          k = 0.1429 0.0346 0.0000 (425499 PWs)   bands (ev):

   -51.2655 -51.2655 -51.2654 -51.2653 -51.1709 -51.1709 -51.1708 -51.1707
   -51.0352 -51.0352 -51.0351 -51.0351 -50.2350 -50.2350 -50.2347 -50.2347
   -50.2039 -50.2038 -50.2036 -50.2036 -50.0907 -50.0903 -50.0902 -50.0900
   -49.9534 -49.9516 -49.9483 -49.9471 -49.9320 -49.9308 -49.9302 -49.9298
   -49.9217 -49.9213 -49.9205 -49.9192 -49.9170 -49.9166 -49.9163 -49.9144
   -49.9142 -49.9136 -49.9136 -49.9127 -49.9123 -49.9121 -49.9111 -49.9105
   -49.9100 -49.9086 -49.9084 -49.9055 -49.9052 -49.9051 -49.9047 -49.9046
   -49.8813 -49.8811 -49.8810 -49.8807 -49.8634 -49.8630 -49.8626 -49.8623
   -49.7856 -49.7855 -49.7853 -49.7851  -6.8216  -6.4884  -5.9236  -5.9107
    -5.7811  -5.6217  -5.5928  -5.4445  -5.2841  -5.2799  -5.2079  -5.1221
    -5.0313  -4.9393  -4.8684  -4.8547  -4.7168  -4.6946  -4.4077  -4.3608
    -4.3444  -4.3240  -4.2565  -4.1837  -4.0517  -4.0143  -3.8978  -3.7786
    -3.6145  -3.5505  -3.5227  -3.4124  -3.3425  -3.2179  -3.1953  -3.1108
    -3.0141  -2.9351  -2.8843  -2.8711  -2.7895  -2.7344  -2.7084  -2.6541
    -2.6244  -2.5792  -2.5640  -2.4984  -2.3425  -2.3320  -2.3241  -2.2854
    -2.1876  -2.0715  -2.0667  -2.0437  -1.9382  -1.8820  -1.7978  -1.7587
    -1.6815  -1.6063  -1.4042  -1.3027  -1.2943  -1.1574  -1.1387  -1.0017
    -0.8571  -0.7795  -0.7146  -0.6280  -0.5594  -0.4476  -0.2627  -0.1752
    -0.1193  -0.1164  -0.0984  -0.0656  -0.0296   0.0295   0.0599   0.0705
     0.1009

     occupation numbers 
     1.0000   1.0000   1.0000   1.0000   1.0000   1.0000   1.0000   1.0000
     1.0000   1.0000   1.0000   1.0000   1.0000   1.0000   1.0000   1.0000
     1.0000   1.0000   1.0000   1.0000   1.0000   1.0000   1.0000   1.0000
     1.0000   1.0000   1.0000   1.0000   1.0000   1.0000   1.0000   1.0000
     1.0000   1.0000   1.0000   1.0000   1.0000   1.0000   1.0000   1.0000
     1.0000   1.0000   1.0000   1.0000   1.0000   1.0000   1.0000   1.0000
     1.0000   1.0000   1.0000   1.0000   1.0000   1.0000   1.0000   1.0000
     1.0000   1.0000   1.0000   1.0000   1.0000   1.0000   1.0000   1.0000
     1.0000   1.0000   1.0000   1.0000   1.0000   1.0000   1.0000   1.0000
     1.0000   1.0000   1.0000   1.0000   1.0000   1.0000   1.0000   1.0000
     1.0000   1.0000   1.0000   1.0000   1.0000   1.0000   1.0000   1.0000
     1.0000   1.0000   1.0000   1.0000   1.0000   1.0000   1.0001   1.0041
     1.0795   1.0479   0.9816   0.4453   0.1558   0.0071   0.0034   0.0001
     0.0000   0.0000   0.0000   0.0000   0.0000   0.0000   0.0000   0.0000
     0.0000   0.0000   0.0000   0.0000   0.0000   0.0000   0.0000   0.0000
     0.0000   0.0000   0.0000   0.0000   0.0000   0.0000   0.0000   0.0000
     0.0000   0.0000   0.0000   0.0000   0.0000   0.0000   0.0000   0.0000
     0.0000   0.0000   0.0000   0.0000   0.0000   0.0000   0.0000   0.0000
     0.0000   0.0000   0.0000   0.0000   0.0000   0.0000   0.0000   0.0000
     0.0000

          k = 0.1429 0.1732 0.0000 (425402 PWs)   bands (ev):

   -51.2655 -51.2655 -51.2654 -51.2653 -51.1709 -51.1709 -51.1708 -51.1707
   -51.0352 -51.0352 -51.0351 -51.0351 -50.2350 -50.2350 -50.2347 -50.2347
   -50.2039 -50.2038 -50.2036 -50.2036 -50.0907 -50.0903 -50.0902 -50.0900
   -49.9534 -49.9516 -49.9483 -49.9471 -49.9321 -49.9308 -49.9302 -49.9297
   -49.9217 -49.9213 -49.9206 -49.9190 -49.9168 -49.9166 -49.9164 -49.9145
   -49.9142 -49.9137 -49.9135 -49.9126 -49.9124 -49.9120 -49.9111 -49.9105
   -49.9100 -49.9086 -49.9084 -49.9056 -49.9052 -49.9051 -49.9047 -49.9046
   -49.8813 -49.8811 -49.8810 -49.8807 -49.8634 -49.8630 -49.8626 -49.8623
   -49.7856 -49.7855 -49.7853 -49.7851  -6.7874  -6.4542  -6.0667  -5.9697
    -5.8772  -5.7268  -5.6389  -5.2697  -5.1544  -5.0943  -5.0708  -5.0706
    -5.0082  -4.9320  -4.9240  -4.7629  -4.6976  -4.6704  -4.5831  -4.3676
    -4.3512  -4.3468  -4.3211  -4.2032  -4.1498  -4.0814  -3.9628  -3.7640
    -3.5734  -3.5675  -3.4600  -3.3501  -3.2873  -3.2195  -3.1461  -3.1116
    -3.0192  -3.0162  -2.9954  -2.9639  -2.8712  -2.8603  -2.7450  -2.7087
    -2.6619  -2.6328  -2.5064  -2.5053  -2.4012  -2.3085  -2.2492  -2.2312
    -2.1475  -2.1245  -2.0344  -2.0104  -1.9196  -1.7449  -1.5935  -1.5719
    -1.5053  -1.4664  -1.4512  -1.3206  -1.2471  -1.1392  -1.0924  -1.0301
    -1.0128  -0.8441  -0.6501  -0.6043  -0.5160  -0.4825  -0.2894  -0.2472
    -0.2285  -0.1920  -0.1547  -0.1274  -0.0658  -0.0522  -0.0190   0.0240
     0.0493

     occupation numbers 
     1.0000   1.0000   1.0000   1.0000   1.0000   1.0000   1.0000   1.0000
     1.0000   1.0000   1.0000   1.0000   1.0000   1.0000   1.0000   1.0000
     1.0000   1.0000   1.0000   1.0000   1.0000   1.0000   1.0000   1.0000
     1.0000   1.0000   1.0000   1.0000   1.0000   1.0000   1.0000   1.0000
     1.0000   1.0000   1.0000   1.0000   1.0000   1.0000   1.0000   1.0000
     1.0000   1.0000   1.0000   1.0000   1.0000   1.0000   1.0000   1.0000
     1.0000   1.0000   1.0000   1.0000   1.0000   1.0000   1.0000   1.0000
     1.0000   1.0000   1.0000   1.0000   1.0000   1.0000   1.0000   1.0000
     1.0000   1.0000   1.0000   1.0000   1.0000   1.0000   1.0000   1.0000
     1.0000   1.0000   1.0000   1.0000   1.0000   1.0000   1.0000   1.0000
     1.0000   1.0000   1.0000   1.0000   1.0000   1.0000   1.0000   1.0000
     1.0000   1.0000   1.0000   1.0000   1.0000   1.0000   1.0000   1.0062
     1.0755   1.0705   0.7056   0.1785   0.0483   0.0075   0.0006   0.0001
     0.0000   0.0000   0.0000   0.0000   0.0000   0.0000   0.0000   0.0000
     0.0000   0.0000   0.0000   0.0000   0.0000   0.0000   0.0000   0.0000
     0.0000   0.0000   0.0000   0.0000   0.0000   0.0000   0.0000   0.0000
     0.0000   0.0000   0.0000   0.0000   0.0000   0.0000   0.0000   0.0000
     0.0000   0.0000   0.0000   0.0000   0.0000   0.0000   0.0000   0.0000
     0.0000   0.0000   0.0000   0.0000   0.0000   0.0000   0.0000   0.0000
     0.0000

          k = 0.1429 0.3118 0.0000 (425381 PWs)   bands (ev):

   -51.2655 -51.2655 -51.2654 -51.2653 -51.1709 -51.1709 -51.1708 -51.1707
   -51.0352 -51.0352 -51.0351 -51.0351 -50.2350 -50.2350 -50.2347 -50.2347
   -50.2039 -50.2038 -50.2036 -50.2036 -50.0907 -50.0903 -50.0902 -50.0900
   -49.9534 -49.9516 -49.9483 -49.9471 -49.9322 -49.9308 -49.9302 -49.9297
   -49.9217 -49.9212 -49.9207 -49.9190 -49.9166 -49.9166 -49.9164 -49.9145
   -49.9143 -49.9139 -49.9135 -49.9126 -49.9123 -49.9118 -49.9111 -49.9105
   -49.9100 -49.9086 -49.9084 -49.9056 -49.9052 -49.9051 -49.9047 -49.9046
   -49.8813 -49.8811 -49.8810 -49.8807 -49.8634 -49.8630 -49.8626 -49.8623
   -49.7856 -49.7855 -49.7853 -49.7851  -6.7079  -6.3754  -6.3051  -5.9717
    -5.9697  -5.7914  -5.6388  -5.3850  -5.0943  -5.0706  -5.0083  -5.0029
    -4.9241  -4.8677  -4.7629  -4.6975  -4.6704  -4.5849  -4.5831  -4.5365
    -4.3674  -4.3210  -4.1501  -4.1306  -4.0813  -3.9638  -3.9626  -3.7639
    -3.6908  -3.6870  -3.5671  -3.3731  -3.3505  -3.2879  -3.2450  -3.2191
    -3.1164  -3.1111  -3.0170  -2.9638  -2.9073  -2.8813  -2.8711  -2.7269
    -2.7085  -2.6620  -2.5063  -2.5062  -2.4005  -2.3440  -2.2315  -2.2192
    -2.1470  -2.0484  -2.0340  -1.9141  -1.8310  -1.6147  -1.5934  -1.5314
    -1.4671  -1.4330  -1.3198  -1.2687  -1.1546  -1.1393  -1.0294  -1.0128
    -0.9814  -0.8853  -0.7526  -0.6303  -0.5173  -0.4814  -0.3859  -0.2861
    -0.2481  -0.1932  -0.1270  -0.1060  -0.0528  -0.0417   0.0316   0.0532
     0.0798

     occupation numbers 
     1.0000   1.0000   1.0000   1.0000   1.0000   1.0000   1.0000   1.0000
     1.0000   1.0000   1.0000   1.0000   1.0000   1.0000   1.0000   1.0000
     1.0000   1.0000   1.0000   1.0000   1.0000   1.0000   1.0000   1.0000
     1.0000   1.0000   1.0000   1.0000   1.0000   1.0000   1.0000   1.0000
     1.0000   1.0000   1.0000   1.0000   1.0000   1.0000   1.0000   1.0000
     1.0000   1.0000   1.0000   1.0000   1.0000   1.0000   1.0000   1.0000
     1.0000   1.0000   1.0000   1.0000   1.0000   1.0000   1.0000   1.0000
     1.0000   1.0000   1.0000   1.0000   1.0000   1.0000   1.0000   1.0000
     1.0000   1.0000   1.0000   1.0000   1.0000   1.0000   1.0000   1.0000
     1.0000   1.0000   1.0000   1.0000   1.0000   1.0000   1.0000   1.0000
     1.0000   1.0000   1.0000   1.0000   1.0000   1.0000   1.0000   1.0000
     1.0000   1.0000   1.0000   1.0000   1.0000   1.0000   1.0000   1.0062
     1.0321   1.0343   1.0702   0.2613   0.1799   0.0490   0.0160   0.0074
     0.0002   0.0001   0.0000   0.0000   0.0000   0.0000   0.0000   0.0000
     0.0000   0.0000   0.0000   0.0000   0.0000   0.0000   0.0000   0.0000
     0.0000   0.0000   0.0000   0.0000   0.0000   0.0000   0.0000   0.0000
     0.0000   0.0000   0.0000   0.0000   0.0000   0.0000   0.0000   0.0000
     0.0000   0.0000   0.0000   0.0000   0.0000   0.0000   0.0000   0.0000
     0.0000   0.0000   0.0000   0.0000   0.0000   0.0000   0.0000   0.0000
     0.0000

          k = 0.1429 0.4504 0.0000 (425406 PWs)   bands (ev):

   -51.2655 -51.2655 -51.2654 -51.2653 -51.1709 -51.1709 -51.1708 -51.1707
   -51.0352 -51.0352 -51.0351 -51.0351 -50.2350 -50.2350 -50.2347 -50.2347
   -50.2039 -50.2038 -50.2036 -50.2036 -50.0907 -50.0903 -50.0902 -50.0900
   -49.9533 -49.9516 -49.9483 -49.9471 -49.9323 -49.9308 -49.9302 -49.9298
   -49.9217 -49.9211 -49.9208 -49.9192 -49.9166 -49.9164 -49.9163 -49.9144
   -49.9143 -49.9140 -49.9136 -49.9126 -49.9123 -49.9117 -49.9111 -49.9105
   -49.9100 -49.9086 -49.9084 -49.9056 -49.9052 -49.9051 -49.9047 -49.9047
   -49.8813 -49.8811 -49.8810 -49.8807 -49.8634 -49.8630 -49.8626 -49.8623
   -49.7856 -49.7855 -49.7853 -49.7851  -6.5861  -6.4966  -6.2546  -6.1585
    -5.9235  -5.6736  -5.5928  -5.5722  -5.2800  -5.2078  -5.0312  -4.9393
    -4.8858  -4.8685  -4.7681  -4.7169  -4.4277  -4.4074  -4.3607  -4.3444
    -4.3242  -4.1914  -4.1838  -4.1082  -4.0267  -4.0142  -3.8847  -3.8343
    -3.7783  -3.6135  -3.5507  -3.5483  -3.5230  -3.4123  -3.3445  -3.3433
    -3.1952  -3.1593  -3.0149  -2.9348  -2.9299  -2.8139  -2.7895  -2.7626
    -2.7088  -2.6693  -2.6544  -2.6243  -2.5638  -2.3915  -2.3243  -2.0875
    -2.0711  -1.8870  -1.8811  -1.8058  -1.7585  -1.7495  -1.7091  -1.6066
    -1.5612  -1.4936  -1.3126  -1.2938  -1.1385  -1.1221  -1.0016  -0.8973
    -0.8561  -0.8355  -0.7911  -0.6935  -0.6273  -0.5489  -0.2103  -0.1751
    -0.1363  -0.1194  -0.0884  -0.0685  -0.0303   0.0121   0.0273   0.0533
     0.0882

     occupation numbers 
     1.0000   1.0000   1.0000   1.0000   1.0000   1.0000   1.0000   1.0000
     1.0000   1.0000   1.0000   1.0000   1.0000   1.0000   1.0000   1.0000
     1.0000   1.0000   1.0000   1.0000   1.0000   1.0000   1.0000   1.0000
     1.0000   1.0000   1.0000   1.0000   1.0000   1.0000   1.0000   1.0000
     1.0000   1.0000   1.0000   1.0000   1.0000   1.0000   1.0000   1.0000
     1.0000   1.0000   1.0000   1.0000   1.0000   1.0000   1.0000   1.0000
     1.0000   1.0000   1.0000   1.0000   1.0000   1.0000   1.0000   1.0000
     1.0000   1.0000   1.0000   1.0000   1.0000   1.0000   1.0000   1.0000
     1.0000   1.0000   1.0000   1.0000   1.0000   1.0000   1.0000   1.0000
     1.0000   1.0000   1.0000   1.0000   1.0000   1.0000   1.0000   1.0000
     1.0000   1.0000   1.0000   1.0000   1.0000   1.0000   1.0000   1.0000
     1.0000   1.0000   1.0000   1.0000   1.0000   1.0000   1.0001   1.0007
     1.0042   1.0798   1.0484   1.0440   0.9826   0.4450   0.1616   0.1581
     0.0034   0.0010   0.0000   0.0000   0.0000   0.0000   0.0000   0.0000
     0.0000   0.0000   0.0000   0.0000   0.0000   0.0000   0.0000   0.0000
     0.0000   0.0000   0.0000   0.0000   0.0000   0.0000   0.0000   0.0000
     0.0000   0.0000   0.0000   0.0000   0.0000   0.0000   0.0000   0.0000
     0.0000   0.0000   0.0000   0.0000   0.0000   0.0000   0.0000   0.0000
     0.0000   0.0000   0.0000   0.0000   0.0000   0.0000   0.0000   0.0000
     0.0000

          k = 0.1429-0.3811 0.0000 (425398 PWs)   bands (ev):

   -51.2655 -51.2655 -51.2654 -51.2653 -51.1709 -51.1709 -51.1708 -51.1707
   -51.0352 -51.0352 -51.0351 -51.0351 -50.2350 -50.2350 -50.2347 -50.2347
   -50.2039 -50.2038 -50.2036 -50.2036 -50.0907 -50.0903 -50.0902 -50.0900
   -49.9533 -49.9516 -49.9483 -49.9471 -49.9323 -49.9308 -49.9302 -49.9298
   -49.9217 -49.9211 -49.9208 -49.9194 -49.9165 -49.9165 -49.9163 -49.9143
   -49.9143 -49.9140 -49.9137 -49.9126 -49.9123 -49.9118 -49.9111 -49.9106
   -49.9099 -49.9086 -49.9085 -49.9056 -49.9052 -49.9051 -49.9047 -49.9047
   -49.8813 -49.8811 -49.8810 -49.8807 -49.8634 -49.8630 -49.8626 -49.8623
   -49.7856 -49.7855 -49.7853 -49.7851  -6.6515  -6.4088  -6.3177  -6.0724
    -5.8319  -5.7361  -5.5145  -5.4931  -5.4867  -5.2787  -5.1730  -4.9738
    -4.9458  -4.8957  -4.6860  -4.6528  -4.5850  -4.4709  -4.3935  -4.3256
    -4.1279  -4.1197  -4.0781  -3.9780  -3.9449  -3.8789  -3.7888  -3.7812
    -3.7625  -3.6515  -3.6381  -3.6137  -3.5232  -3.5031  -3.2828  -3.2407
    -3.1901  -3.1447  -3.0588  -2.9848  -2.9385  -2.9109  -2.8817  -2.8507
    -2.7822  -2.7537  -2.6902  -2.5982  -2.3770  -2.3601  -2.3028  -2.1870
    -2.0868  -2.0752  -2.0420  -1.8646  -1.7217  -1.7209  -1.6361  -1.6301
    -1.5669  -1.5261  -1.2196  -1.2039  -1.1655  -1.0480  -0.9931  -0.9167
    -0.8777  -0.8122  -0.7707  -0.6938  -0.6558  -0.5419  -0.3177  -0.2040
    -0.2032  -0.1292  -0.1063  -0.0625  -0.0081   0.0327   0.0648   0.0907
     0.1085

     occupation numbers 
     1.0000   1.0000   1.0000   1.0000   1.0000   1.0000   1.0000   1.0000
     1.0000   1.0000   1.0000   1.0000   1.0000   1.0000   1.0000   1.0000
     1.0000   1.0000   1.0000   1.0000   1.0000   1.0000   1.0000   1.0000
     1.0000   1.0000   1.0000   1.0000   1.0000   1.0000   1.0000   1.0000
     1.0000   1.0000   1.0000   1.0000   1.0000   1.0000   1.0000   1.0000
     1.0000   1.0000   1.0000   1.0000   1.0000   1.0000   1.0000   1.0000
     1.0000   1.0000   1.0000   1.0000   1.0000   1.0000   1.0000   1.0000
     1.0000   1.0000   1.0000   1.0000   1.0000   1.0000   1.0000   1.0000
     1.0000   1.0000   1.0000   1.0000   1.0000   1.0000   1.0000   1.0000
     1.0000   1.0000   1.0000   1.0000   1.0000   1.0000   1.0000   1.0000
     1.0000   1.0000   1.0000   1.0000   1.0000   1.0000   1.0000   1.0000
     1.0000   1.0000   1.0000   1.0000   1.0000   1.0001   1.0031   1.0038
     1.0064   1.0577   1.0667   1.0798   0.9831   0.9120   0.0434   0.0141
     0.0029   0.0006   0.0000   0.0000   0.0000   0.0000   0.0000   0.0000
     0.0000   0.0000   0.0000   0.0000   0.0000   0.0000   0.0000   0.0000
     0.0000   0.0000   0.0000   0.0000   0.0000   0.0000   0.0000   0.0000
     0.0000   0.0000   0.0000   0.0000   0.0000   0.0000   0.0000   0.0000
     0.0000   0.0000   0.0000   0.0000   0.0000   0.0000   0.0000   0.0000
     0.0000   0.0000   0.0000   0.0000   0.0000   0.0000   0.0000   0.0000
     0.0000

          k = 0.1429-0.2425 0.0000 (425377 PWs)   bands (ev):

   -51.2655 -51.2655 -51.2654 -51.2653 -51.1709 -51.1709 -51.1708 -51.1707
   -51.0352 -51.0352 -51.0351 -51.0351 -50.2350 -50.2350 -50.2347 -50.2347
   -50.2039 -50.2038 -50.2036 -50.2036 -50.0907 -50.0903 -50.0902 -50.0900
   -49.9534 -49.9516 -49.9483 -49.9471 -49.9322 -49.9308 -49.9302 -49.9298
   -49.9217 -49.9212 -49.9206 -49.9194 -49.9167 -49.9164 -49.9162 -49.9142
   -49.9142 -49.9138 -49.9137 -49.9126 -49.9123 -49.9119 -49.9111 -49.9106
   -49.9099 -49.9086 -49.9085 -49.9056 -49.9052 -49.9051 -49.9047 -49.9046
   -49.8813 -49.8811 -49.8810 -49.8807 -49.8634 -49.8630 -49.8626 -49.8623
   -49.7856 -49.7855 -49.7853 -49.7851  -6.7533  -6.4202  -6.1919  -5.8701
    -5.8249  -5.7151  -5.6691  -5.3877  -5.3358  -5.2962  -5.2722  -5.0827
    -5.0370  -4.9822  -4.8051  -4.7404  -4.7360  -4.4701  -4.4120  -4.1900
    -4.1874  -4.1794  -4.1546  -4.0123  -3.9403  -3.8530  -3.8277  -3.6595
    -3.5969  -3.5935  -3.5812  -3.4356  -3.3896  -3.3133  -3.2553  -3.2392
    -3.1969  -3.1635  -3.1147  -3.0739  -3.0426  -2.9490  -2.8157  -2.7678
    -2.6858  -2.6778  -2.6610  -2.4079  -2.4029  -2.3817  -2.3715  -2.3242
    -2.2778  -2.0532  -2.0400  -1.9643  -1.9348  -1.7109  -1.6585  -1.5816
    -1.5472  -1.4279  -1.3695  -1.2143  -1.1221  -1.0980  -1.0451  -0.9760
    -0.8721  -0.8325  -0.6970  -0.6358  -0.5551  -0.4766  -0.4110  -0.3896
    -0.2999  -0.1257  -0.1172  -0.0244   0.0148   0.0288   0.0582   0.0662
     0.0982

     occupation numbers 
     1.0000   1.0000   1.0000   1.0000   1.0000   1.0000   1.0000   1.0000
     1.0000   1.0000   1.0000   1.0000   1.0000   1.0000   1.0000   1.0000
     1.0000   1.0000   1.0000   1.0000   1.0000   1.0000   1.0000   1.0000
     1.0000   1.0000   1.0000   1.0000   1.0000   1.0000   1.0000   1.0000
     1.0000   1.0000   1.0000   1.0000   1.0000   1.0000   1.0000   1.0000
     1.0000   1.0000   1.0000   1.0000   1.0000   1.0000   1.0000   1.0000
     1.0000   1.0000   1.0000   1.0000   1.0000   1.0000   1.0000   1.0000
     1.0000   1.0000   1.0000   1.0000   1.0000   1.0000   1.0000   1.0000
     1.0000   1.0000   1.0000   1.0000   1.0000   1.0000   1.0000   1.0000
     1.0000   1.0000   1.0000   1.0000   1.0000   1.0000   1.0000   1.0000
     1.0000   1.0000   1.0000   1.0000   1.0000   1.0000   1.0000   1.0000
     1.0000   1.0000   1.0000   1.0000   1.0000   1.0004   1.0009   1.0522
     1.0833   1.0832   1.0801   0.5713   0.3327   0.0871   0.0213   0.0135
     0.0036   0.0011   0.0002   0.0000   0.0000   0.0000   0.0000   0.0000
     0.0000   0.0000   0.0000   0.0000   0.0000   0.0000   0.0000   0.0000
     0.0000   0.0000   0.0000   0.0000   0.0000   0.0000   0.0000   0.0000
     0.0000   0.0000   0.0000   0.0000   0.0000   0.0000   0.0000   0.0000
     0.0000   0.0000   0.0000   0.0000   0.0000   0.0000   0.0000   0.0000
     0.0000   0.0000   0.0000   0.0000   0.0000   0.0000   0.0000   0.0000
     0.0000

          k = 0.1429-0.1039 0.0000 (425464 PWs)   bands (ev):

   -51.2655 -51.2655 -51.2654 -51.2653 -51.1709 -51.1709 -51.1708 -51.1707
   -51.0352 -51.0352 -51.0351 -51.0351 -50.2350 -50.2350 -50.2347 -50.2347
   -50.2039 -50.2038 -50.2036 -50.2036 -50.0907 -50.0903 -50.0902 -50.0900
   -49.9534 -49.9516 -49.9483 -49.9471 -49.9321 -49.9308 -49.9302 -49.9298
   -49.9217 -49.9213 -49.9205 -49.9194 -49.9169 -49.9165 -49.9163 -49.9143
   -49.9142 -49.9137 -49.9137 -49.9126 -49.9124 -49.9121 -49.9111 -49.9105
   -49.9099 -49.9086 -49.9085 -49.9055 -49.9052 -49.9051 -49.9047 -49.9046
   -49.8813 -49.8811 -49.8810 -49.8807 -49.8634 -49.8630 -49.8626 -49.8623
   -49.7856 -49.7855 -49.7853 -49.7851  -6.8102  -6.4770  -5.9310  -5.8977
    -5.8319  -5.5916  -5.5145  -5.4931  -5.4510  -5.2787  -5.1729  -5.1230
    -5.1057  -4.9972  -4.9738  -4.8956  -4.5850  -4.5270  -4.4708  -4.3936
    -4.2598  -4.1808  -4.1281  -4.1193  -3.9782  -3.8791  -3.7813  -3.7378
    -3.6520  -3.6378  -3.5233  -3.5032  -3.3377  -3.2821  -3.2401  -3.0587
    -3.0429  -2.9491  -2.9382  -2.9115  -2.8813  -2.8682  -2.8243  -2.7824
    -2.6901  -2.6376  -2.5776  -2.5610  -2.3771  -2.3030  -2.2438  -2.2226
    -2.1868  -2.1342  -2.0753  -2.0339  -2.0041  -1.8599  -1.7452  -1.7229
    -1.6358  -1.5981  -1.4451  -1.2622  -1.2195  -1.1292  -1.0482  -0.9932
    -0.8192  -0.8128  -0.6946  -0.6587  -0.5612  -0.5173  -0.2384  -0.2025
    -0.1290  -0.1258  -0.1049  -0.0607  -0.0457  -0.0327  -0.0073   0.0877
     0.1074

     occupation numbers 
     1.0000   1.0000   1.0000   1.0000   1.0000   1.0000   1.0000   1.0000
     1.0000   1.0000   1.0000   1.0000   1.0000   1.0000   1.0000   1.0000
     1.0000   1.0000   1.0000   1.0000   1.0000   1.0000   1.0000   1.0000
     1.0000   1.0000   1.0000   1.0000   1.0000   1.0000   1.0000   1.0000
     1.0000   1.0000   1.0000   1.0000   1.0000   1.0000   1.0000   1.0000
     1.0000   1.0000   1.0000   1.0000   1.0000   1.0000   1.0000   1.0000
     1.0000   1.0000   1.0000   1.0000   1.0000   1.0000   1.0000   1.0000
     1.0000   1.0000   1.0000   1.0000   1.0000   1.0000   1.0000   1.0000
     1.0000   1.0000   1.0000   1.0000   1.0000   1.0000   1.0000   1.0000
     1.0000   1.0000   1.0000   1.0000   1.0000   1.0000   1.0000   1.0000
     1.0000   1.0000   1.0000   1.0000   1.0000   1.0000   1.0000   1.0000
     1.0000   1.0000   1.0000   1.0000   1.0000   1.0001   1.0038   1.0120
[...]
     atom   64 type  1   force =     0.00000000    0.00000000    0.00000000
     atom   65 type  1   force =     0.00000000    0.00000000    0.00000000
     atom   66 type  1   force =     0.00000000    0.00000000    0.00000000
     atom   67 type  1   force =     0.00000000    0.00000000    0.00000000
     atom   68 type  1   force =     0.00000000    0.00000000    0.00000000
     The Hubbard contrib.    to forces
     atom    1 type  1   force =     0.00000000    0.00000000    0.00000000
     atom    2 type  1   force =     0.00000000    0.00000000    0.00000000
     atom    3 type  1   force =     0.00000000    0.00000000    0.00000000
     atom    4 type  1   force =     0.00000000    0.00000000    0.00000000
     atom    5 type  1   force =     0.00000000    0.00000000    0.00000000
     atom    6 type  1   force =     0.00000000    0.00000000    0.00000000
     atom    7 type  1   force =     0.00000000    0.00000000    0.00000000
     atom    8 type  1   force =     0.00000000    0.00000000    0.00000000
     atom    9 type  1   force =     0.00000000    0.00000000    0.00000000
     atom   10 type  1   force =     0.00000000    0.00000000    0.00000000
     atom   11 type  1   force =     0.00000000    0.00000000    0.00000000
     atom   12 type  1   force =     0.00000000    0.00000000    0.00000000
     atom   13 type  1   force =     0.00000000    0.00000000    0.00000000
     atom   14 type  1   force =     0.00000000    0.00000000    0.00000000
     atom   15 type  1   force =     0.00000000    0.00000000    0.00000000
     atom   16 type  1   force =     0.00000000    0.00000000    0.00000000
     atom   17 type  1   force =     0.00000000    0.00000000    0.00000000
     atom   18 type  1   force =     0.00000000    0.00000000    0.00000000
     atom   19 type  1   force =     0.00000000    0.00000000    0.00000000
     atom   20 type  1   force =     0.00000000    0.00000000    0.00000000
     atom   21 type  1   force =     0.00000000    0.00000000    0.00000000
     atom   22 type  1   force =     0.00000000    0.00000000    0.00000000
     atom   23 type  1   force =     0.00000000    0.00000000    0.00000000
     atom   24 type  1   force =     0.00000000    0.00000000    0.00000000
     atom   25 type  1   force =     0.00000000    0.00000000    0.00000000
     atom   26 type  1   force =     0.00000000    0.00000000    0.00000000
     atom   27 type  1   force =     0.00000000    0.00000000    0.00000000
     atom   28 type  1   force =     0.00000000    0.00000000    0.00000000
     atom   29 type  1   force =     0.00000000    0.00000000    0.00000000
     atom   30 type  1   force =     0.00000000    0.00000000    0.00000000
     atom   31 type  1   force =     0.00000000    0.00000000    0.00000000
     atom   32 type  1   force =     0.00000000    0.00000000    0.00000000
     atom   33 type  1   force =     0.00000000    0.00000000    0.00000000
     atom   34 type  1   force =     0.00000000    0.00000000    0.00000000
     atom   35 type  1   force =     0.00000000    0.00000000    0.00000000
     atom   36 type  1   force =     0.00000000    0.00000000    0.00000000
     atom   37 type  1   force =     0.00000000    0.00000000    0.00000000
     atom   38 type  1   force =     0.00000000    0.00000000    0.00000000
     atom   39 type  1   force =     0.00000000    0.00000000    0.00000000
     atom   40 type  1   force =     0.00000000    0.00000000    0.00000000
     atom   41 type  1   force =     0.00000000    0.00000000    0.00000000
     atom   42 type  1   force =     0.00000000    0.00000000    0.00000000
     atom   43 type  1   force =     0.00000000    0.00000000    0.00000000
     atom   44 type  1   force =     0.00000000    0.00000000    0.00000000
     atom   45 type  1   force =     0.00000000    0.00000000    0.00000000
     atom   46 type  1   force =     0.00000000    0.00000000    0.00000000
     atom   47 type  1   force =     0.00000000    0.00000000    0.00000000
     atom   48 type  1   force =     0.00000000    0.00000000    0.00000000
     atom   49 type  1   force =     0.00000000    0.00000000    0.00000000
     atom   50 type  1   force =     0.00000000    0.00000000    0.00000000
     atom   51 type  1   force =     0.00000000    0.00000000    0.00000000
     atom   52 type  1   force =     0.00000000    0.00000000    0.00000000
     atom   53 type  1   force =     0.00000000    0.00000000    0.00000000
     atom   54 type  1   force =     0.00000000    0.00000000    0.00000000
     atom   55 type  1   force =     0.00000000    0.00000000    0.00000000
     atom   56 type  1   force =     0.00000000    0.00000000    0.00000000
     atom   57 type  1   force =     0.00000000    0.00000000    0.00000000
     atom   58 type  1   force =     0.00000000    0.00000000    0.00000000
     atom   59 type  1   force =     0.00000000    0.00000000    0.00000000
     atom   60 type  1   force =     0.00000000    0.00000000    0.00000000
     atom   61 type  1   force =     0.00000000    0.00000000    0.00000000
     atom   62 type  1   force =     0.00000000    0.00000000    0.00000000
     atom   63 type  1   force =     0.00000000    0.00000000    0.00000000
     atom   64 type  1   force =     0.00000000    0.00000000    0.00000000
     atom   65 type  1   force =     0.00000000    0.00000000    0.00000000
     atom   66 type  1   force =     0.00000000    0.00000000    0.00000000
     atom   67 type  1   force =     0.00000000    0.00000000    0.00000000
     atom   68 type  1   force =     0.00000000    0.00000000    0.00000000
     The SCF correction term to forces
     atom    1 type  1   force =    -0.00000002    0.00000054    0.00000111
     atom    2 type  1   force =    -0.00000003   -0.00000016   -0.00000061
     atom    3 type  1   force =     0.00000000    0.00000003    0.00000105
     atom    4 type  1   force =     0.00000001   -0.00000003   -0.00000294
     atom    5 type  1   force =     0.00000002   -0.00000006   -0.00000040
     atom    6 type  1   force =     0.00000001   -0.00000006    0.00000018
     atom    7 type  1   force =    -0.00000000   -0.00000000   -0.00000020
     atom    8 type  1   force =     0.00000001    0.00000002    0.00000040
     atom    9 type  1   force =     0.00000001    0.00000008    0.00000021
     atom   10 type  1   force =     0.00000000   -0.00000000   -0.00000012
     atom   11 type  1   force =    -0.00000000    0.00000002   -0.00000032
     atom   12 type  1   force =     0.00000000   -0.00000006   -0.00000076
     atom   13 type  1   force =     0.00000000   -0.00000006    0.00000001
     atom   14 type  1   force =     0.00000000    0.00000002   -0.00000044
     atom   15 type  1   force =    -0.00000002   -0.00000006    0.00000111
     atom   16 type  1   force =     0.00000010   -0.00000016    0.00000038
     atom   17 type  1   force =     0.00000002   -0.00000002   -0.00000062
     atom   18 type  1   force =     0.00000001    0.00000006   -0.00000128
     atom   19 type  1   force =    -0.00000001    0.00000003    0.00000065
     atom   20 type  1   force =    -0.00000000   -0.00000003    0.00000022
     atom   21 type  1   force =     0.00000001   -0.00000002    0.00000033
     atom   22 type  1   force =     0.00000001   -0.00000000    0.00000005
     atom   23 type  1   force =    -0.00000001    0.00000004   -0.00000016
     atom   24 type  1   force =     0.00000002    0.00000007    0.00000027
     atom   25 type  1   force =    -0.00000000    0.00000002   -0.00000001
     atom   26 type  1   force =     0.00000001   -0.00000005   -0.00000030
     atom   27 type  1   force =    -0.00000001   -0.00000001   -0.00000049
     atom   28 type  1   force =     0.00000001   -0.00000008   -0.00000127
     atom   29 type  1   force =     0.00000001    0.00000027    0.00000073
     atom   30 type  1   force =     0.00000000    0.00000005   -0.00000030
     atom   31 type  1   force =     0.00000001    0.00000004    0.00000275
     atom   32 type  1   force =    -0.00000001   -0.00000059   -0.00000103
     atom   33 type  1   force =    -0.00000004    0.00000006    0.00000029
     atom   34 type  1   force =     0.00000003    0.00000011   -0.00000028
     atom   35 type  1   force =     0.00000007    0.00000052    0.00000108
     atom   36 type  1   force =    -0.00000001   -0.00000020   -0.00000063
     atom   37 type  1   force =     0.00000001    0.00000002    0.00000107
     atom   38 type  1   force =     0.00000004    0.00000003   -0.00000290
     atom   39 type  1   force =     0.00000003   -0.00000007   -0.00000038
     atom   40 type  1   force =     0.00000001   -0.00000007    0.00000019
     atom   41 type  1   force =    -0.00000001   -0.00000000   -0.00000020
     atom   42 type  1   force =     0.00000000    0.00000002    0.00000039
     atom   43 type  1   force =    -0.00000000    0.00000008    0.00000023
     atom   44 type  1   force =    -0.00000000   -0.00000001   -0.00000010
     atom   45 type  1   force =    -0.00000001    0.00000001   -0.00000030
     atom   46 type  1   force =     0.00000001   -0.00000006   -0.00000074
     atom   47 type  1   force =     0.00000001   -0.00000005    0.00000001
     atom   48 type  1   force =     0.00000000    0.00000003   -0.00000046
     atom   49 type  1   force =    -0.00000000   -0.00000006    0.00000112
     atom   50 type  1   force =    -0.00000000   -0.00000019    0.00000029
     atom   51 type  1   force =    -0.00000002   -0.00000005   -0.00000066
     atom   52 type  1   force =     0.00000002    0.00000006   -0.00000132
     atom   53 type  1   force =    -0.00000000    0.00000002    0.00000064
     atom   54 type  1   force =    -0.00000000   -0.00000002    0.00000021
     atom   55 type  1   force =     0.00000001   -0.00000000    0.00000033
     atom   56 type  1   force =     0.00000000   -0.00000001    0.00000006
     atom   57 type  1   force =    -0.00000000    0.00000004   -0.00000014
     atom   58 type  1   force =     0.00000002    0.00000007    0.00000031
     atom   59 type  1   force =     0.00000001    0.00000003    0.00000001
     atom   60 type  1   force =    -0.00000001   -0.00000005   -0.00000033
     atom   61 type  1   force =    -0.00000000    0.00000001   -0.00000047
     atom   62 type  1   force =     0.00000001   -0.00000007   -0.00000126
     atom   63 type  1   force =     0.00000001    0.00000030    0.00000072
     atom   64 type  1   force =     0.00000001    0.00000005   -0.00000030
     atom   65 type  1   force =    -0.00000002    0.00000009    0.00000261
     atom   66 type  1   force =     0.00000002   -0.00000066   -0.00000103
     atom   67 type  1   force =    -0.00000002    0.00000004    0.00000036
     atom   68 type  1   force =     0.00000005    0.00000012   -0.00000029

     Total force =     0.001384     Total SCF correction =     0.000008
     Energy error            =      1.1E-06 Ry
     Gradient error          =      3.6E-04 Ry/Bohr

     bfgs converged in  12 scf cycles and   9 bfgs steps
     (criteria: energy <  1.0E-05 Ry, force <  3.9E-04 Ry/Bohr)

     End of BFGS Geometry Optimization

     Final energy             =   -1022.6314851269 Ry

     File ./Li/Lithium.bfgs deleted, as requested
Begin final coordinates

ATOMIC_POSITIONS (angstrom)
Li              -0.0030933265        0.5724616662       19.8665516844
Li               0.0025178633        5.8443365175       33.4591556380
Li               2.4310404669        7.7207338373       31.7202248423
Li               2.4322667513        1.9031063226       31.9365445631
Li               0.0028271333        3.5366864345       30.8468834169
Li               2.4297690702        5.3853005897       29.0783193520
Li               2.4284192770        8.8260198605       25.7567443113
Li               0.0024140215        9.3867295855       30.1366592125
Li               0.0013376367        1.1854998220       28.2560553079
Li               2.4282879910        2.9996616988       26.4089583740
Li              -0.0015677498        4.6799454645       24.9002805146
Li               2.4273180348        6.4711118222       23.0742054254
Li               0.0005663248        7.0354443908       27.5362827843
Li               2.4275046179        0.4999240993       24.3810705208
Li              -0.0033112038        2.3446704783       22.4799263185
Li               2.4272572775        3.7388571474       20.4527993915
Li              -0.0022773774        8.2198658697       21.6912932496
Li               0.0032058545        0.6010104125       31.1426733380
Li               0.0017175157        6.4896154907       30.5486351735
Li               2.4305771807        8.2807914741       28.7234977654
Li               2.4305312063        2.4456837227       29.2425362320
Li               0.0005875023        4.1347030191       27.8671847425
Li               2.4284588427        5.9252856426       26.0877379832
Li               2.4261957081        9.4240298746       22.7758603172
Li               0.0007265340        9.9610662832       27.2152024038
Li              -0.0013721064        1.7601605697       25.3678019531
Li               2.4266130588        3.5740256000       23.4865145793
Li              -0.0019982857        5.2399776238       21.9020200947
Li               2.4265153599        7.1163091966       20.1621796990
Li              -0.0007540727        7.5754063828       24.5452137413
Li               2.4257773856        1.0425683448       21.6858080157
Li               0.0037916852        2.3732763183       33.7546973785
Li               2.4313149615        4.7408438085       31.9307800016
Li               0.0017485156        9.2218342941       33.1686931413
Li               4.8540011801        0.5723758796       19.8665926329
Li               4.8606775823        5.8442853950       33.4592194842
Li               7.2891561808        7.7207510975       31.7202020750
Li               7.2903104212        1.9031861002       31.9368503747
Li               4.8608397957        3.5366936757       30.8468741626
Li               7.2877902170        5.3853032241       29.0782267724
Li               7.2865044383        8.8260183313       25.7567921033
Li               4.8604558026        9.3867653421       30.1365701560
Li               4.8594108996        1.1855080278       28.2560915638
Li               7.2863644488        2.9996764912       26.4090017157
Li               4.8564866970        4.6799652606       24.9002328008
Li               7.2853238551        6.4710437530       23.0741158505
Li               4.8586272925        7.0354588140       27.5363593120
Li               7.2855403554        0.5000113111       24.3806568638
Li               4.8548842302        2.3446313868       22.4799325031
Li               7.2853360830        3.7391487481       20.4528481073
Li               4.8557415059        8.2197256731       21.6915363135
Li               4.8613149962        0.6009945638       31.1426652670
Li               4.8597675364        6.4896573363       30.5487187039
Li               7.2886353713        8.2807970249       28.7234876509
Li               7.2885870046        2.4456669521       29.2426853076
Li               4.8586205317        4.1347062798       27.8672017727
Li               7.2864832418        5.9252733197       26.0876734073
Li               7.2842748885        9.4240161329       22.7758631431
Li               4.8587515117        9.9611157909       27.2150400971
Li               4.8566885000        1.7601657730       25.3678184338
Li               7.2846611436        3.5740038341       23.4864939415
Li               4.8559426671        5.2399130538       21.9020120469
Li               7.2844080402        7.1164420222       20.1621588391
Li               4.8573253943        7.5754305515       24.5453342203
Li               7.2838354369        1.0424094324       21.6851186023
Li               4.8614098701        2.3732412904       33.7546915117
Li               7.2893470396        4.7409038204       31.9306491168
Li               4.8597934876        9.2216802458       33.1686032525
End final coordinates



     Writing all to output data dir ./Li/Lithium.save/ :
     XML data file
     init_run     :     35.72s CPU     47.27s WALL (       1 calls)
     electrons    :  12897.72s CPU  16851.80s WALL (      12 calls)
     update_pot   :      2.06s CPU      2.47s WALL (      11 calls)
     forces       :   1294.77s CPU   1368.92s WALL (      12 calls)

     Called by init_run:
     wfcinit      :      7.67s CPU     10.77s WALL (       1 calls)
     wfcinit:wfcr :      7.09s CPU     10.16s WALL (      13 calls)
     potinit      :      1.20s CPU      1.26s WALL (       1 calls)
     hinit0       :     12.39s CPU     20.43s WALL (       1 calls)

     Called by electrons:
     c_bands      :  10492.47s CPU  13882.80s WALL (     172 calls)
     sum_band     :    612.76s CPU    867.03s WALL (     172 calls)
     v_of_rho     :     23.52s CPU     27.33s WALL (     173 calls)
     v_h          :      1.85s CPU      2.30s WALL (     173 calls)
     v_xc         :     21.66s CPU     25.01s WALL (     173 calls)
     newd         :     20.80s CPU     35.84s WALL (     173 calls)
     PAW_pot      :      1.92s CPU      2.61s WALL (     184 calls)
     mix_rho      :     65.14s CPU     76.67s WALL (     172 calls)

     Called by c_bands:
     init_us_2    :    114.37s CPU    114.77s WALL (    4784 calls)
     cegterg      :   9948.60s CPU  12582.35s WALL (    2820 calls)

     Called by sum_band:
     sum_band:wei :      0.44s CPU      0.48s WALL (     172 calls)
     sum_band:loo :    594.38s CPU    846.91s WALL (     172 calls)
     sum_band:buf :     12.09s CPU     12.41s WALL (    2236 calls)
     sum_band:ini :     54.11s CPU     54.21s WALL (    2236 calls)
     sum_band:cal :    121.47s CPU    129.62s WALL (    2379 calls)
     sum_band:bec :      0.97s CPU      1.15s WALL (    2379 calls)
     addusdens    :     13.90s CPU     14.17s WALL (     172 calls)
                                        0.00s GPU  (     172 calls)
     addusd:skk   :      3.86s CPU      3.88s WALL (     172 calls)
                                        0.00s GPU  (     172 calls)

     Called by *egterg:
     cdiaghg      :   2978.81s CPU   3404.91s WALL (   39466 calls)
     cegterg:over :    803.12s CPU    893.96s WALL (   37104 calls)
     cegterg:upda :    656.61s CPU    681.17s WALL (   37104 calls)
     cegterg:last :    191.32s CPU    206.03s WALL (    3180 calls)
     cdiaghg:chol :    144.08s CPU    275.71s WALL (   39466 calls)
     cdiaghg:inve :     64.26s CPU     71.73s WALL (   39466 calls)
     cdiaghg:para :    838.83s CPU    984.41s WALL (   78932 calls)
     h_psi        :   4610.29s CPU   6674.85s WALL (   39937 calls)
     s_psi        :    566.24s CPU    568.38s WALL (   39937 calls)
     g_psi        :      9.75s CPU     10.49s WALL (   37104 calls)

     Called by h_psi:
     h_psi:calbec :    675.85s CPU    737.88s WALL (   39937 calls)
     vloc_psi     :   3336.98s CPU   5333.19s WALL (   39937 calls)
                                        0.00s GPU  (   39937 calls)
     add_vuspsi   :    562.43s CPU    567.33s WALL (   39937 calls)

     General routines
     calbec       :    825.75s CPU    897.79s WALL (   42940 calls)
     fft          :     21.33s CPU     33.89s WALL (    2271 calls)
     ffts         :     32.74s CPU     40.05s WALL (   18672 calls)
     fftw         :   3609.69s CPU   5778.09s WALL ( 3167918 calls)
     interpolate  :      2.73s CPU      3.11s WALL (     173 calls)

     Parallel routines

     PAW routines
     PAW_pot      :      1.92s CPU      2.61s WALL (     184 calls)

     Environ routines

     PWSCF        :      4h 0m CPU      5h 8m WALL


   This run was terminated on:  16:48:27   3Jan2025            

=------------------------------------------------------------------------------=
   JOB DONE.
=------------------------------------------------------------------------------=
