
     Program PWSCF v.7.4 starts on 23Jan2025 at  0:35:53 

     This program is part of the open-source Quantum ESPRESSO suite
     for quantum simulation of materials; please cite
         "P. Giannozzi et al., J. Phys.:Condens. Matter 21 395502 (2009);
         "P. Giannozzi et al., J. Phys.:Condens. Matter 29 465901 (2017);
         "P. Giannozzi et al., J. Chem. Phys. 152 154105 (2020);
          URL http://www.quantum-espresso.org", 
     in publications or presentations arising from this work. More details at
     http://www.quantum-espresso.org/quote

     Parallel version (MPI & OpenMP), running on     384 processor cores
     Number of MPI processes:               384
     Threads/MPI process:                     1

     MPI processes distributed on     2 nodes
     660400 MiB available memory on the printing compute node when the environment starts
 
     Reading input from espresso.pwi
Warning: card &CELL ignored
Warning: card    PRESS_CONV_THR   = 0.1 ignored
Warning: card    CELL_DOFREE      = 'ALL' ignored
Warning: card / ignored
Warning: card &FCP ignored
Warning: card / ignored
Warning: card &RISM ignored
Warning: card / ignored

     Current dimensions of program PWSCF are:
     Max number of different atomic species (ntypx) = 10
     Max number of k-points (npk) =  40000
     Max angular momentum in pseudopotentials (lmaxx) =  4

     IMPORTANT: XC functional enforced from input :
     Exchange-correlation= PBE
                           (   1   4   3   4   0   0   0)
     Any further DFT definition will be discarded
     Please, verify this is what you really want

     Found identity + (  0.5000  0.0000  0.0000) symmetry
     This is a supercell, fractional translations are disabled
 
     K-points division:     npool     =       3
     R & G space division:  proc/nbgrp/npool/nimage =     128
     Subspace diagonalization in iterative solution of the eigenvalue problem:
     one sub-group per band group will be used
     ELPA distributed-memory algorithm (size of sub-group:  2*  2 procs)

 
     Parallelization info
     --------------------
     sticks:   dense  smooth     PW     G-vecs:    dense   smooth      PW
     Min         182      73     19                62046    15693    2117
     Max         183      74     20                62075    15706    2134
     Sum       23389    9361   2459              7943865  2009579  271967
 
     Using Slab Decomposition
 


     bravais-lattice index     =            0
     lattice parameter (alat)  =      18.3607  a.u.
     unit-cell volume          =   20789.7731 (a.u.)^3
     number of atoms/cell      =           76
     number of atomic types    =            1
     number of electrons       =       228.00
     number of Kohn-Sham states=          171
     kinetic-energy cutoff     =      80.0000  Ry
     charge density cutoff     =     800.0000  Ry
     scf convergence threshold =      1.0E-06
     mixing beta               =       0.2000
     number of iterations used =            8  local-TF  mixing
     energy convergence thresh.=      1.0E-05
     force convergence thresh. =      3.9E-04
     Exchange-correlation= PBE
                           (   1   4   3   4   0   0   0)
     nstep                     =           50


     celldm(1)=  18.360747  celldm(2)=   0.000000  celldm(3)=   0.000000
     celldm(4)=   0.000000  celldm(5)=   0.000000  celldm(6)=   0.000000

     crystal axes: (cart. coord. in units of alat)
               a(1) = (   1.000000   0.000000   0.000000 )  
               a(2) = (   0.250000   1.089725   0.000000 )  
               a(3) = (   0.000000   0.000000   3.082207 )  

     reciprocal axes: (cart. coord. in units 2 pi/alat)
               b(1) = (  1.000000 -0.229416  0.000000 )  
               b(2) = (  0.000000  0.917663  0.000000 )  
               b(3) = (  0.000000  0.000000  0.324443 )  


     PseudoPot. # 1 for Li read from file:
     /iridisfs/home/ba3g18/Repos/Pseudopotentials/pslibrary.1.0.0/pbe/PSEUDOPOTENTIALS/Li.pbe-sl-kjpaw_psl.1.0.0.UPF
     MD5 check sum: 3f4d2cafebb47c6c3aa8ed472e6f074d
     Pseudo is Projector augmented-wave, Zval =  3.0
     Generated using 'atomic' code by A. Dal Corso  v.7.4
     Shape of augmentation charge: PSQ
     Using radial grid of 1017 points,  4 beta functions with: 
                l(1) =   0
                l(2) =   0
                l(3) =   1
                l(4) =   1
     Q(r) pseudized with 0 coefficients 


     atomic species   valence    mass     pseudopotential
     Li                3.00     6.94000     Li( 1.00)

     No symmetry found



   Cartesian axes

     site n.     atom                  positions (alat units)
         1        Li     tau(   1) = (  -0.0001770  -0.0605738   2.2797070  )
         2        Li     tau(   2) = (   0.2501210   0.7571587   0.8353225  )
         3        Li     tau(   3) = (   0.2500504   0.3887273   0.9274000  )
         4        Li     tau(   4) = (   0.2501212   0.0710247   1.0344917  )
         5        Li     tau(   5) = (   0.5002994   0.8125211   1.0590048  )
         6        Li     tau(   6) = (   0.5006557   0.4369421   1.1373148  )
         7        Li     tau(   7) = (   0.5008674   0.1149169   1.2320127  )
         8        Li     tau(   8) = (   0.2511543   0.8620515   1.3060361  )
         9        Li     tau(   9) = (   0.2508665   0.5206355   1.4015414  )
        10        Li     tau(  10) = (   0.2504558   0.1655825   1.4902588  )
        11        Li     tau(  11) = (   0.4997668   0.9135336   1.5642636  )
        12        Li     tau(  12) = (   0.4993484   0.5750959   1.6402790  )
        13        Li     tau(  13) = (   0.4990461   0.2358241   1.7408240  )
        14        Li     tau(  14) = (   0.2488403   0.9823607   1.7937476  )
        15        Li     tau(  15) = (   0.2491682   0.6259267   1.8629251  )
        16        Li     tau(  16) = (   0.2494844   0.2901095   1.9728617  )
        17        Li     tau(  17) = (   0.4998102   1.0240535   2.0581352  )
        18        Li     tau(  18) = (   0.4999564   0.7212792   2.1641753  )
        19        Li     tau(  19) = (   0.4999368   0.3418649   2.2092018  )
        20        Li     tau(  20) = (   0.2501898   0.9833342   1.0240715  )
        21        Li     tau(  21) = (   0.2505156   0.6275534   1.1093455  )
        22        Li     tau(  22) = (   0.2508319   0.2917364   1.2192820  )
        23        Li     tau(  23) = (   0.5011598   1.0250274   1.2884593  )
        24        Li     tau(  24) = (   0.5009539   0.6818388   1.3413831  )
        25        Li     tau(  25) = (   0.5006518   0.3425667   1.4419278  )
        26        Li     tau(  26) = (   0.5002332   0.0041296   1.5179432  )
        27        Li     tau(  27) = (   0.2495442   0.7520805   1.5919482  )
        28        Li     tau(  28) = (   0.2491336   0.3970273   1.6806660  )
        29        Li     tau(  29) = (   0.2488457   0.0556116   1.7761707  )
        30        Li     tau(  30) = (   0.4991328   0.8027461   1.8501939  )
        31        Li     tau(  31) = (   0.4993443   0.4807211   1.9448920  )
        32        Li     tau(  32) = (   0.4997004   0.1051416   2.0232022  )
        33        Li     tau(  33) = (   0.2498789   0.8466385   2.0477154  )
        34        Li     tau(  34) = (   0.2499495   0.5289355   2.1548071  )
        35        Li     tau(  35) = (   0.2498789   0.1605039   2.2468845  )
        36        Li     tau(  36) = (   0.5001770   0.9782367   0.8025001  )
        37        Li     tau(  37) = (   0.5000630   0.5757978   0.8730048  )
        38        Li     tau(  38) = (   0.5000436   0.1963840   0.9180318  )
        39        Li     tau(  39) = (   0.4998230  -0.0605737   2.2797072  )
        40        Li     tau(  40) = (   0.7501209   0.7571587   0.8353224  )
        41        Li     tau(  41) = (   0.7500506   0.3887274   0.9273997  )
        42        Li     tau(  42) = (   0.7501211   0.0710245   1.0344917  )
        43        Li     tau(  43) = (   1.0002994   0.8125211   1.0590048  )
        44        Li     tau(  44) = (   1.0006557   0.4369421   1.1373149  )
        45        Li     tau(  45) = (   1.0008674   0.1149169   1.2320128  )
        46        Li     tau(  46) = (   0.7511544   0.8620515   1.3060361  )
        47        Li     tau(  47) = (   0.7508664   0.5206357   1.4015414  )
        48        Li     tau(  48) = (   0.7504560   0.1655825   1.4902588  )
        49        Li     tau(  49) = (   0.9997667   0.9135335   1.5642639  )
        50        Li     tau(  50) = (   0.9993483   0.5750959   1.6402792  )
        51        Li     tau(  51) = (   0.9990462   0.2358241   1.7408239  )
        52        Li     tau(  52) = (   0.7488403   0.9823607   1.7937477  )
        53        Li     tau(  53) = (   0.7491682   0.6259265   1.8629251  )
        54        Li     tau(  54) = (   0.7494842   0.2901094   1.9728617  )
        55        Li     tau(  55) = (   0.9998102   1.0240537   2.0581353  )
        56        Li     tau(  56) = (   0.9999567   0.7212792   2.1641753  )
        57        Li     tau(  57) = (   0.9999369   0.3418650   2.2092018  )
        58        Li     tau(  58) = (   0.7501897   0.9833343   1.0240715  )
        59        Li     tau(  59) = (   0.7505157   0.6275533   1.1093454  )
        60        Li     tau(  60) = (   0.7508318   0.2917365   1.2192819  )
        61        Li     tau(  61) = (   1.0011598   1.0250274   1.2884595  )
        62        Li     tau(  62) = (   1.0009539   0.6818387   1.3413832  )
        63        Li     tau(  63) = (   1.0006516   0.3425668   1.4419279  )
        64        Li     tau(  64) = (   1.0002332   0.0041294   1.5179432  )
        65        Li     tau(  65) = (   0.7495440   0.7520806   1.5919483  )
        66        Li     tau(  66) = (   0.7491336   0.3970271   1.6806660  )
        67        Li     tau(  67) = (   0.7488457   0.0556116   1.7761708  )
        68        Li     tau(  68) = (   0.9991326   0.8027460   1.8501942  )
        69        Li     tau(  69) = (   0.9993443   0.4807209   1.9448920  )
        70        Li     tau(  70) = (   0.9997006   0.1051418   2.0232021  )
        71        Li     tau(  71) = (   0.7498789   0.8466382   2.0477156  )
        72        Li     tau(  72) = (   0.7499495   0.5289356   2.1548072  )
        73        Li     tau(  73) = (   0.7498790   0.1605041   2.2468845  )
        74        Li     tau(  74) = (   1.0001769   0.9782366   0.8024999  )
        75        Li     tau(  75) = (   1.0000631   0.5757978   0.8730047  )
        76        Li     tau(  76) = (   1.0000434   0.1963838   0.9180319  )

     number of k points=    22  Marzari-Vanderbilt smearing, width (Ry)=  0.0100
                       cart. coord. in units 2pi/alat
        k(    1) = (   0.0000000   0.0000000   0.0000000), wk =   0.0476190
        k(    2) = (   0.0000000   0.1529438   0.0000000), wk =   0.0952381
        k(    3) = (   0.0000000   0.3058876   0.0000000), wk =   0.0952381
        k(    4) = (   0.0000000  -0.4588314   0.0000000), wk =   0.0476190
        k(    5) = (   0.1428571  -0.0327737   0.0000000), wk =   0.0952381
        k(    6) = (   0.1428571   0.1201701   0.0000000), wk =   0.0952381
        k(    7) = (   0.1428571   0.2731139   0.0000000), wk =   0.0952381
        k(    8) = (   0.1428571  -0.4916050   0.0000000), wk =   0.0952381
        k(    9) = (   0.1428571  -0.3386612   0.0000000), wk =   0.0952381
        k(   10) = (   0.1428571  -0.1857175   0.0000000), wk =   0.0952381
        k(   11) = (   0.2857143  -0.0655473   0.0000000), wk =   0.0952381
        k(   12) = (   0.2857143   0.0873964   0.0000000), wk =   0.0952381
        k(   13) = (   0.2857143   0.2403402   0.0000000), wk =   0.0952381
        k(   14) = (   0.2857143  -0.5243787   0.0000000), wk =   0.0952381
        k(   15) = (   0.2857143  -0.3714349   0.0000000), wk =   0.0952381
        k(   16) = (   0.2857143  -0.2184911   0.0000000), wk =   0.0952381
        k(   17) = (   0.4285714  -0.0983210   0.0000000), wk =   0.0952381
        k(   18) = (   0.4285714   0.0546228   0.0000000), wk =   0.0952381
        k(   19) = (   0.4285714   0.2075666   0.0000000), wk =   0.0952381
        k(   20) = (   0.4285714  -0.5571524   0.0000000), wk =   0.0952381
        k(   21) = (   0.4285714  -0.4042086   0.0000000), wk =   0.0952381
        k(   22) = (   0.4285714  -0.2512648   0.0000000), wk =   0.0952381

     Dense  grid:  7943865 G-vectors     FFT dimensions: ( 180, 192, 512)

     Smooth grid:  2009579 G-vectors     FFT dimensions: ( 108, 120, 324)

     Estimated max dynamical RAM per process >     185.33 MB

     Estimated total dynamical RAM >      65.71 GB

     Initial potential from superposition of free atoms

     starting charge     227.6497, renormalised to     228.0000

     negative rho (up, down):  2.437E-03 0.000E+00
     Starting wfcs are  380 randomized atomic wfcs
     Checking if some PAW data can be deallocated... 

     total cpu time spent up to now is       16.4 secs

     Self-consistent Calculation

     iteration #  1     ecut=    80.00 Ry     beta= 0.20
     Davidson diagonalization with overlap
     ethr =  1.00E-02,  avg # of iterations =  4.0

     negative rho (up, down):  2.955E-05 0.000E+00

     total cpu time spent up to now is       40.0 secs

     total energy              =   -1143.21379317 Ry
     estimated scf accuracy    <       9.33018701 Ry

     iteration #  2     ecut=    80.00 Ry     beta= 0.20
     Davidson diagonalization with overlap
     ethr =  4.09E-03,  avg # of iterations =  1.4

     total cpu time spent up to now is       53.8 secs

     total energy              =   -1142.45798075 Ry
     estimated scf accuracy    <       6.76071944 Ry

     iteration #  3     ecut=    80.00 Ry     beta= 0.20
     Davidson diagonalization with overlap
     ethr =  2.97E-03,  avg # of iterations =  1.1

     total cpu time spent up to now is       66.2 secs

     total energy              =   -1142.84016612 Ry
     estimated scf accuracy    <       0.59700741 Ry

     iteration #  4     ecut=    80.00 Ry     beta= 0.20
     Davidson diagonalization with overlap
     ethr =  2.62E-04,  avg # of iterations =  4.0

     total cpu time spent up to now is       83.5 secs

     total energy              =   -1142.88699395 Ry
     estimated scf accuracy    <       1.04823403 Ry

     iteration #  5     ecut=    80.00 Ry     beta= 0.20
     Davidson diagonalization with overlap
     ethr =  2.62E-04,  avg # of iterations =  2.1

     total cpu time spent up to now is       97.6 secs

     total energy              =   -1142.90048594 Ry
     estimated scf accuracy    <       0.26776000 Ry

     iteration #  6     ecut=    80.00 Ry     beta= 0.20
     Davidson diagonalization with overlap
     ethr =  1.17E-04,  avg # of iterations =  4.8

     total cpu time spent up to now is      113.2 secs

     total energy              =   -1142.87582351 Ry
     estimated scf accuracy    <       0.20855764 Ry

     iteration #  7     ecut=    80.00 Ry     beta= 0.20
     Davidson diagonalization with overlap
     ethr =  9.15E-05,  avg # of iterations =  6.5

     total cpu time spent up to now is      128.9 secs

     total energy              =   -1142.86964016 Ry
     estimated scf accuracy    <       0.12351185 Ry

     iteration #  8     ecut=    80.00 Ry     beta= 0.20
     Davidson diagonalization with overlap
     c_bands:  5 eigenvalues not converged
     ethr =  5.42E-05,  avg # of iterations = 12.2

     negative rho (up, down):  6.970E-02 0.000E+00

     total cpu time spent up to now is      150.1 secs

     total energy              =   -1142.86379507 Ry
     estimated scf accuracy    <       0.05810382 Ry

     iteration #  9     ecut=    80.00 Ry     beta= 0.20
     Davidson diagonalization with overlap
     c_bands:  1 eigenvalues not converged
     c_bands:  1 eigenvalues not converged
     ethr =  2.55E-05,  avg # of iterations = 15.6

     negative rho (up, down):  4.184E-02 0.000E+00

     total cpu time spent up to now is      175.5 secs

     total energy              =   -1142.86072020 Ry
     estimated scf accuracy    <       0.02357759 Ry

     iteration # 10     ecut=    80.00 Ry     beta= 0.20
     Davidson diagonalization with overlap
     c_bands:  1 eigenvalues not converged
     ethr =  1.03E-05,  avg # of iterations = 10.5

     negative rho (up, down):  1.259E-01 0.000E+00

     total cpu time spent up to now is      198.2 secs

     total energy              =   -1142.86280389 Ry
     estimated scf accuracy    <       0.00918609 Ry

     iteration # 11     ecut=    80.00 Ry     beta= 0.20
     Davidson diagonalization with overlap
     c_bands:  1 eigenvalues not converged
     ethr =  4.03E-06,  avg # of iterations = 16.2

     negative rho (up, down):  3.120E-03 0.000E+00

     total cpu time spent up to now is      230.2 secs

     total energy              =   -1142.86333140 Ry
     estimated scf accuracy    <       0.00327082 Ry

     iteration # 12     ecut=    80.00 Ry     beta= 0.20
     Davidson diagonalization with overlap
     c_bands:  1 eigenvalues not converged
     c_bands:  1 eigenvalues not converged
     c_bands:  1 eigenvalues not converged
     c_bands:  1 eigenvalues not converged
     c_bands:  1 eigenvalues not converged
     c_bands:  1 eigenvalues not converged
     c_bands:  1 eigenvalues not converged
     c_bands:  1 eigenvalues not converged
     ethr =  1.43E-06,  avg # of iterations = 20.0

     negative rho (up, down):  3.040E-02 0.000E+00

     total cpu time spent up to now is      262.7 secs

     total energy              =   -1142.86383977 Ry
     estimated scf accuracy    <       0.00551594 Ry

     iteration # 13     ecut=    80.00 Ry     beta= 0.20
     Davidson diagonalization with overlap
     c_bands:  1 eigenvalues not converged
     ethr =  1.43E-06,  avg # of iterations = 13.7

     negative rho (up, down):  1.992E-02 0.000E+00

     total cpu time spent up to now is      285.5 secs

     total energy              =   -1142.86440488 Ry
     estimated scf accuracy    <       0.00319897 Ry

     iteration # 14     ecut=    80.00 Ry     beta= 0.20
     Davidson diagonalization with overlap
     c_bands:  1 eigenvalues not converged
     ethr =  1.40E-06,  avg # of iterations =  2.7

     negative rho (up, down):  2.283E-03 0.000E+00

     total cpu time spent up to now is      298.9 secs

     total energy              =   -1142.86445409 Ry
     estimated scf accuracy    <       0.00013347 Ry

     iteration # 15     ecut=    80.00 Ry     beta= 0.20
     Davidson diagonalization with overlap
     c_bands:  1 eigenvalues not converged
     c_bands:  1 eigenvalues not converged
     ethr =  5.85E-08,  avg # of iterations = 16.2

     negative rho (up, down):  2.105E-03 0.000E+00

     total cpu time spent up to now is      324.2 secs

     total energy              =   -1142.86447187 Ry
     estimated scf accuracy    <       0.00003723 Ry

     iteration # 16     ecut=    80.00 Ry     beta= 0.20
     Davidson diagonalization with overlap
     ethr =  1.63E-08,  avg # of iterations =  3.3

     negative rho (up, down):  6.326E-04 0.000E+00

     total cpu time spent up to now is      338.5 secs

     total energy              =   -1142.86447895 Ry
     estimated scf accuracy    <       0.00000421 Ry

     iteration # 17     ecut=    80.00 Ry     beta= 0.20
     Davidson diagonalization with overlap
     c_bands:  1 eigenvalues not converged
     ethr =  1.85E-09,  avg # of iterations = 10.6

     negative rho (up, down):  3.020E-04 0.000E+00

     total cpu time spent up to now is      369.5 secs

     total energy              =   -1142.86448181 Ry
     estimated scf accuracy    <       0.00000156 Ry

     iteration # 18     ecut=    80.00 Ry     beta= 0.20
     Davidson diagonalization with overlap
     ethr =  6.86E-10,  avg # of iterations =  5.7

     negative rho (up, down):  1.416E-04 0.000E+00

     total cpu time spent up to now is      385.5 secs

     End of self-consistent calculation

          k = 0.0000 0.0000 0.0000 (251233 PWs)   bands (ev):

   -48.5000 -48.5000 -48.4999 -48.4999 -48.1284 -48.1284 -48.1282 -48.1282
   -48.0784 -48.0784 -48.0783 -48.0783 -48.0350 -48.0349 -48.0349 -48.0349
   -47.8808 -47.8808 -47.8807 -47.8807 -47.5038 -47.5031 -47.5015 -47.5014
   -47.5013 -47.5012 -47.5007 -47.5006 -47.4946 -47.4945 -47.4927 -47.4923
   -47.4878 -47.4878 -47.4857 -47.4853 -47.4814 -47.4808 -47.4778 -47.4771
   -47.4715 -47.4691 -47.4688 -47.4687 -47.4662 -47.4653 -47.4638 -47.4637
   -47.4563 -47.4563 -47.4562 -47.4562 -47.4541 -47.4541 -47.4534 -47.4530
   -47.4520 -47.4497 -47.4493 -47.4485 -47.4438 -47.4438 -47.4430 -47.4426
   -47.4386 -47.4386 -47.4361 -47.4360 -47.4333 -47.4333 -47.4300 -47.4300
   -47.4028 -47.4027 -47.4023 -47.4023  -4.4246  -4.1482  -3.6622  -3.4241
    -3.4198  -3.1756  -3.1731  -3.1430  -3.1427  -2.9969  -2.8926  -2.8920
    -2.6782  -2.6727  -2.6530  -2.6183  -2.4389  -2.4194  -2.3610  -2.3550
    -2.2304  -1.9783  -1.9434  -1.9116  -1.8851  -1.7407  -1.7233  -1.6455
    -1.6351  -1.4579  -1.4500  -1.4228  -1.2640  -1.2608  -1.1949  -1.0339
    -1.0274  -0.9934  -0.8830  -0.8338  -0.6825  -0.6347  -0.5866  -0.5079
    -0.4957  -0.4513  -0.4399  -0.3493  -0.3381  -0.3079  -0.2949  -0.2753
    -0.2378  -0.2150  -0.1331  -0.0783  -0.0781  -0.0065   0.0110   0.0590
     0.0646   0.1161   0.1231   0.3848   0.4439   0.5477   0.5551   0.6917
     0.7305   0.9027   0.9056   0.9543   0.9860   1.0444   1.1786   1.2696
     1.4425   1.4425   1.5778   1.6063   1.6830   1.6926   1.7051   1.8524
     1.9156   1.9398   2.0478   2.1252   2.1836   2.2416   2.2425   2.2756
     2.3107   2.3265   2.3400

          k = 0.0000 0.1529 0.0000 (251220 PWs)   bands (ev):

   -48.5000 -48.5000 -48.4999 -48.4999 -48.1284 -48.1284 -48.1282 -48.1282
   -48.0784 -48.0784 -48.0783 -48.0783 -48.0350 -48.0349 -48.0349 -48.0349
   -47.8808 -47.8808 -47.8807 -47.8807 -47.5037 -47.5031 -47.5015 -47.5014
   -47.5014 -47.5012 -47.5007 -47.5006 -47.4946 -47.4945 -47.4927 -47.4923
   -47.4878 -47.4878 -47.4857 -47.4853 -47.4814 -47.4808 -47.4778 -47.4771
   -47.4715 -47.4691 -47.4688 -47.4687 -47.4662 -47.4653 -47.4638 -47.4637
   -47.4563 -47.4563 -47.4562 -47.4562 -47.4541 -47.4540 -47.4534 -47.4530
   -47.4522 -47.4497 -47.4492 -47.4485 -47.4438 -47.4438 -47.4430 -47.4426
   -47.4386 -47.4386 -47.4361 -47.4360 -47.4333 -47.4333 -47.4300 -47.4300
   -47.4028 -47.4027 -47.4023 -47.4023  -4.3969  -4.1206  -3.7290  -3.6375
    -3.4450  -3.2301  -3.0753  -3.0633  -3.0063  -2.9470  -2.8964  -2.8835
    -2.7832  -2.7808  -2.6196  -2.4463  -2.4003  -2.3318  -2.2809  -2.2664
    -2.1440  -2.1067  -2.1049  -2.0779  -1.8120  -1.7766  -1.6268  -1.5931
    -1.5875  -1.5219  -1.4334  -1.3455  -1.2853  -1.2589  -1.0852  -1.0625
    -1.0224  -0.9152  -0.8820  -0.7957  -0.7948  -0.7505  -0.7179  -0.7129
    -0.6740  -0.6351  -0.6059  -0.4725  -0.4549  -0.4394  -0.3569  -0.2829
    -0.2344  -0.1037  -0.0566  -0.0371  -0.0172   0.0079   0.0645   0.1509
     0.2655   0.3150   0.3390   0.4249   0.5287   0.5357   0.5757   0.6565
     0.8334   0.9370   0.9557   0.9713   0.9815   1.1234   1.2794   1.3078
     1.3514   1.4180   1.5039   1.6189   1.6276   1.7189   1.7664   1.8362
     1.8474   1.9525   2.0046   2.0640   2.1096   2.1548   2.1582   2.2464
     2.2638   2.2805   2.3507

          k = 0.0000 0.3059 0.0000 (251082 PWs)   bands (ev):

   -48.5000 -48.5000 -48.4999 -48.4999 -48.1284 -48.1284 -48.1282 -48.1282
   -48.0784 -48.0784 -48.0783 -48.0783 -48.0350 -48.0349 -48.0349 -48.0349
   -47.8808 -47.8808 -47.8807 -47.8807 -47.5036 -47.5030 -47.5015 -47.5015
   -47.5014 -47.5013 -47.5007 -47.5006 -47.4946 -47.4945 -47.4927 -47.4923
   -47.4878 -47.4878 -47.4857 -47.4853 -47.4814 -47.4808 -47.4778 -47.4771
   -47.4715 -47.4691 -47.4688 -47.4687 -47.4661 -47.4654 -47.4638 -47.4637
   -47.4564 -47.4563 -47.4562 -47.4562 -47.4541 -47.4539 -47.4534 -47.4531
   -47.4524 -47.4497 -47.4491 -47.4485 -47.4438 -47.4438 -47.4430 -47.4426
   -47.4386 -47.4386 -47.4361 -47.4360 -47.4333 -47.4333 -47.4300 -47.4300
   -47.4028 -47.4027 -47.4023 -47.4023  -4.3137  -4.0379  -3.9798  -3.7097
    -3.5407  -3.2301  -3.2195  -3.0633  -2.9470  -2.8964  -2.8687  -2.7833
    -2.6210  -2.6195  -2.5376  -2.4463  -2.4004  -2.3696  -2.2808  -2.1440
    -2.1047  -2.0778  -2.0514  -1.8629  -1.8124  -1.7766  -1.7329  -1.6268
    -1.6081  -1.5875  -1.4334  -1.3451  -1.3422  -1.2844  -1.2572  -1.1212
    -1.0859  -1.0632  -0.9411  -0.9160  -0.8836  -0.7945  -0.7550  -0.7509
    -0.7182  -0.6721  -0.6055  -0.5487  -0.5014  -0.4529  -0.3579  -0.2826
    -0.2568  -0.2074  -0.1983  -0.0570  -0.0386  -0.0173   0.1506   0.2673
     0.3303   0.4026   0.4180   0.5280   0.6189   0.6663   0.6757   0.8326
     0.9361   0.9725   1.0576   1.1609   1.1743   1.2470   1.2492   1.2790
     1.3515   1.4038   1.5037   1.5183   1.5376   1.6188   1.7229   1.7432
     1.9073   2.0045   2.0783   2.1098   2.1175   2.1546   2.1795   2.2034
     2.2302   2.2454   2.2735

          k = 0.0000-0.4588 0.0000 (251042 PWs)   bands (ev):

   -48.5000 -48.5000 -48.4999 -48.4999 -48.1284 -48.1284 -48.1282 -48.1282
   -48.0784 -48.0784 -48.0783 -48.0783 -48.0350 -48.0349 -48.0349 -48.0349
   -47.8808 -47.8808 -47.8807 -47.8807 -47.5036 -47.5030 -47.5015 -47.5015
   -47.5014 -47.5014 -47.5007 -47.5006 -47.4946 -47.4945 -47.4927 -47.4923
   -47.4878 -47.4878 -47.4857 -47.4853 -47.4814 -47.4808 -47.4778 -47.4771
   -47.4715 -47.4691 -47.4688 -47.4687 -47.4661 -47.4654 -47.4638 -47.4637
   -47.4564 -47.4563 -47.4562 -47.4562 -47.4541 -47.4538 -47.4533 -47.4531
   -47.4525 -47.4497 -47.4490 -47.4485 -47.4438 -47.4438 -47.4430 -47.4426
   -47.4386 -47.4386 -47.4361 -47.4360 -47.4333 -47.4333 -47.4300 -47.4300
   -47.4028 -47.4027 -47.4023 -47.4023  -4.1790  -4.1705  -3.9082  -3.8911
    -3.4199  -3.3958  -3.1757  -3.1731  -2.8925  -2.8921  -2.7654  -2.6922
    -2.6783  -2.6726  -2.4390  -2.4191  -2.3611  -2.3548  -2.1474  -2.1441
    -2.0366  -1.9437  -1.9391  -1.9115  -1.8086  -1.7998  -1.7408  -1.7227
    -1.6457  -1.6348  -1.4568  -1.4521  -1.4403  -1.3647  -1.2641  -1.2605
    -1.1633  -1.0316  -1.0303  -0.9376  -0.8837  -0.8332  -0.7918  -0.6836
    -0.6389  -0.5853  -0.5852  -0.5835  -0.4505  -0.4361  -0.4299  -0.3070
    -0.2434  -0.2147  -0.1384  -0.0779  -0.0772   0.0105   0.1228   0.1288
     0.2330   0.3827   0.5019   0.5543   0.7256   0.7352   0.8978   0.9009
     0.9059   0.9656   0.9872   1.0648   1.0756   1.2464   1.2688   1.2725
     1.4419   1.4430   1.6387   1.6851   1.6920   1.7091   1.7523   1.8083
     1.9161   1.9562   1.9586   2.0736   2.0787   2.1017   2.1252   2.1847
     2.2405   2.2412   2.2421

          k = 0.1429-0.0328 0.0000 (251185 PWs)   bands (ev):

   -48.5000 -48.5000 -48.4999 -48.4999 -48.1284 -48.1283 -48.1282 -48.1282
   -48.0783 -48.0783 -48.0783 -48.0783 -48.0350 -48.0349 -48.0349 -48.0349
   -47.8808 -47.8808 -47.8807 -47.8807 -47.5037 -47.5030 -47.5016 -47.5015
   -47.5013 -47.5012 -47.5007 -47.5006 -47.4945 -47.4945 -47.4928 -47.4925
   -47.4877 -47.4876 -47.4857 -47.4854 -47.4813 -47.4808 -47.4778 -47.4771
   -47.4714 -47.4691 -47.4691 -47.4686 -47.4661 -47.4653 -47.4640 -47.4638
   -47.4563 -47.4563 -47.4562 -47.4562 -47.4541 -47.4541 -47.4535 -47.4526
   -47.4521 -47.4497 -47.4493 -47.4486 -47.4438 -47.4437 -47.4431 -47.4427
   -47.4385 -47.4385 -47.4363 -47.4363 -47.4330 -47.4330 -47.4301 -47.4301
   -47.4027 -47.4027 -47.4024 -47.4023  -4.3991  -4.1226  -3.6364  -3.5055
    -3.4684  -3.3255  -3.2249  -3.1889  -3.0471  -2.9711  -2.9364  -2.7941
    -2.7397  -2.6811  -2.6451  -2.5398  -2.5103  -2.3637  -2.2072  -2.2023
    -2.1160  -2.0873  -1.9971  -1.9834  -1.9791  -1.8317  -1.8279  -1.6114
    -1.5214  -1.4004  -1.3789  -1.3198  -1.2346  -1.1840  -1.1837  -1.0339
    -0.9556  -0.9532  -0.8309  -0.7537  -0.6902  -0.6395  -0.5455  -0.4908
    -0.4748  -0.4705  -0.4503  -0.3819  -0.3778  -0.3521  -0.3394  -0.2673
    -0.2313  -0.2070  -0.1931  -0.1492  -0.1287  -0.0482  -0.0296   0.0291
     0.0344   0.1027   0.2971   0.3391   0.4431   0.4944   0.5112   0.5444
     0.5727   0.6388   0.8460   0.8805   1.0424   1.1173   1.1232   1.2524
     1.2540   1.2854   1.4650   1.4798   1.6735   1.6937   1.7500   1.8989
     1.9840   2.0411   2.1241   2.1643   2.2016   2.2757   2.2777   2.3134
     2.3356   2.3862   2.4003

          k = 0.1429 0.1202 0.0000 (251201 PWs)   bands (ev):

   -48.5000 -48.5000 -48.4999 -48.4999 -48.1284 -48.1283 -48.1282 -48.1282
   -48.0783 -48.0783 -48.0783 -48.0783 -48.0350 -48.0349 -48.0349 -48.0349
   -47.8808 -47.8808 -47.8807 -47.8807 -47.5036 -47.5030 -47.5016 -47.5015
   -47.5013 -47.5012 -47.5007 -47.5006 -47.4945 -47.4944 -47.4928 -47.4925
   -47.4877 -47.4876 -47.4857 -47.4854 -47.4813 -47.4808 -47.4778 -47.4771
   -47.4714 -47.4691 -47.4690 -47.4686 -47.4661 -47.4653 -47.4640 -47.4638
   -47.4563 -47.4563 -47.4562 -47.4562 -47.4540 -47.4540 -47.4537 -47.4525
   -47.4522 -47.4497 -47.4493 -47.4486 -47.4438 -47.4437 -47.4431 -47.4427
   -47.4385 -47.4385 -47.4363 -47.4363 -47.4330 -47.4330 -47.4301 -47.4301
   -47.4027 -47.4027 -47.4024 -47.4023  -4.3833  -4.1068  -3.6447  -3.6210
    -3.4065  -3.3619  -3.1694  -3.1268  -3.1228  -2.9745  -2.8943  -2.8620
    -2.8418  -2.8260  -2.6257  -2.5758  -2.4010  -2.3446  -2.2487  -2.1033
    -2.0734  -2.0729  -1.9394  -1.8246  -1.7144  -1.6707  -1.6469  -1.6422
    -1.4582  -1.4527  -1.4155  -1.3846  -1.2941  -1.2315  -1.1157  -1.0395
    -1.0132  -0.9585  -0.8998  -0.8783  -0.8096  -0.8064  -0.7710  -0.6774
    -0.6012  -0.5709  -0.5518  -0.5126  -0.4720  -0.4537  -0.3083  -0.2747
    -0.2648  -0.2207  -0.1916  -0.1273  -0.0565  -0.0250   0.0527   0.0806
     0.1848   0.2973   0.3573   0.3872   0.4241   0.5329   0.5784   0.6216
     0.6494   0.6534   0.8382   0.9446   1.0824   1.1624   1.2329   1.2748
     1.2910   1.3187   1.4610   1.5728   1.6619   1.7302   1.7803   1.8656
     1.8879   1.9761   2.0834   2.1290   2.1725   2.1780   2.2087   2.2468
     2.3137   2.3228   2.4759

          k = 0.1429 0.2731 0.0000 (251126 PWs)   bands (ev):

   -48.5000 -48.5000 -48.4999 -48.4999 -48.1284 -48.1283 -48.1282 -48.1282
   -48.0783 -48.0783 -48.0783 -48.0783 -48.0350 -48.0349 -48.0349 -48.0349
   -47.8808 -47.8808 -47.8807 -47.8807 -47.5036 -47.5030 -47.5016 -47.5015
   -47.5014 -47.5013 -47.5007 -47.5007 -47.4945 -47.4944 -47.4928 -47.4925
   -47.4877 -47.4876 -47.4857 -47.4854 -47.4813 -47.4808 -47.4778 -47.4771
   -47.4714 -47.4691 -47.4690 -47.4686 -47.4661 -47.4653 -47.4640 -47.4638
   -47.4563 -47.4563 -47.4562 -47.4562 -47.4540 -47.4539 -47.4538 -47.4525
   -47.4524 -47.4497 -47.4492 -47.4486 -47.4438 -47.4437 -47.4431 -47.4427
   -47.4385 -47.4385 -47.4363 -47.4363 -47.4330 -47.4330 -47.4301 -47.4301
   -47.4027 -47.4027 -47.4024 -47.4023  -4.3120  -4.0359  -3.9067  -3.6418
    -3.5332  -3.3474  -3.2517  -3.1498  -3.0697  -2.9738  -2.8741  -2.8655
    -2.6901  -2.5914  -2.5680  -2.4768  -2.4721  -2.4338  -2.0844  -2.0484
    -1.9736  -1.9315  -1.8935  -1.7902  -1.7789  -1.7022  -1.6636  -1.5276
    -1.4816  -1.4675  -1.4088  -1.3130  -1.2682  -1.2284  -1.2262  -1.1756
    -1.1545  -1.0945  -1.0638  -0.9922  -0.9094  -0.8550  -0.8470  -0.7458
    -0.6901  -0.6705  -0.6591  -0.6371  -0.4993  -0.4808  -0.3597  -0.3005
    -0.2990  -0.2819  -0.1778  -0.1238  -0.0643   0.0326   0.0509   0.2362
     0.3092   0.3558   0.3713   0.4611   0.5837   0.5847   0.6514   0.6884
     0.8353   0.8817   0.9539   0.9778   1.0487   1.0924   1.2045   1.2995
     1.3203   1.4273   1.4667   1.6080   1.6747   1.7292   1.8254   1.8378
     1.9403   1.9499   1.9618   2.0621   2.0956   2.1173   2.1651   2.2287
     2.2491   2.3308   2.4212

          k = 0.1429-0.4916 0.0000 (251164 PWs)   bands (ev):

   -48.5000 -48.5000 -48.4999 -48.4999 -48.1284 -48.1283 -48.1282 -48.1282
   -48.0783 -48.0783 -48.0783 -48.0783 -48.0350 -48.0349 -48.0349 -48.0349
   -47.8808 -47.8808 -47.8807 -47.8807 -47.5035 -47.5029 -47.5016 -47.5015
   -47.5015 -47.5013 -47.5007 -47.5006 -47.4945 -47.4944 -47.4928 -47.4925
   -47.4877 -47.4876 -47.4857 -47.4854 -47.4813 -47.4808 -47.4778 -47.4771
   -47.4714 -47.4690 -47.4690 -47.4686 -47.4660 -47.4653 -47.4640 -47.4638
   -47.4563 -47.4563 -47.4562 -47.4562 -47.4541 -47.4538 -47.4536 -47.4526
   -47.4526 -47.4497 -47.4491 -47.4486 -47.4438 -47.4437 -47.4431 -47.4427
   -47.4385 -47.4385 -47.4363 -47.4363 -47.4330 -47.4330 -47.4301 -47.4301
   -47.4027 -47.4027 -47.4024 -47.4023  -4.1853  -4.1133  -3.9106  -3.8377
    -3.4699  -3.4189  -3.3453  -3.1898  -3.0425  -2.8302  -2.7786  -2.7534
    -2.6764  -2.6522  -2.5452  -2.2885  -2.2567  -2.2301  -2.0619  -2.0462
    -2.0100  -1.9975  -1.9638  -1.9226  -1.8958  -1.8216  -1.7000  -1.6694
    -1.6098  -1.5233  -1.4881  -1.4389  -1.3033  -1.2788  -1.2301  -1.1791
    -1.1566  -1.1414  -0.9028  -0.8926  -0.8442  -0.8133  -0.7964  -0.7624
    -0.7420  -0.7400  -0.5819  -0.5317  -0.4880  -0.4081  -0.4049  -0.3342
    -0.3038  -0.2601  -0.2216  -0.1115  -0.0494   0.0727   0.1706   0.1940
     0.2882   0.3447   0.3983   0.5251   0.5441   0.5568   0.6447   0.6793
     0.7683   0.8563   0.9128   0.9280   1.0055   1.2025   1.2373   1.2677
     1.4060   1.4755   1.5164   1.5798   1.7149   1.7390   1.8929   1.9656
     2.0018   2.0076   2.0627   2.1183   2.1404   2.1422   2.1759   2.2306
     2.2558   2.2746   2.3752

          k = 0.1429-0.3387 0.0000 (251210 PWs)   bands (ev):

   -48.5000 -48.5000 -48.4999 -48.4999 -48.1284 -48.1283 -48.1282 -48.1282
   -48.0783 -48.0783 -48.0783 -48.0783 -48.0350 -48.0349 -48.0349 -48.0349
   -47.8808 -47.8808 -47.8807 -47.8807 -47.5035 -47.5030 -47.5016 -47.5015
   -47.5014 -47.5013 -47.5007 -47.5006 -47.4945 -47.4944 -47.4928 -47.4925
   -47.4877 -47.4876 -47.4857 -47.4854 -47.4813 -47.4808 -47.4778 -47.4771
   -47.4714 -47.4691 -47.4690 -47.4686 -47.4660 -47.4653 -47.4640 -47.4638
   -47.4563 -47.4563 -47.4562 -47.4562 -47.4541 -47.4538 -47.4535 -47.4527
   -47.4525 -47.4496 -47.4492 -47.4486 -47.4438 -47.4437 -47.4431 -47.4427
   -47.4385 -47.4385 -47.4363 -47.4363 -47.4330 -47.4330 -47.4301 -47.4301
   -47.4027 -47.4027 -47.4024 -47.4023  -4.2645  -4.0025  -3.9883  -3.7296
    -3.5372  -3.4936  -3.2561  -3.2392  -2.8203  -2.7813  -2.7585  -2.7299
    -2.5558  -2.5055  -2.5016  -2.4874  -2.4465  -2.3147  -2.2561  -2.2157
    -2.1103  -2.0454  -2.0005  -1.9683  -1.9307  -1.7580  -1.7447  -1.7191
    -1.7015  -1.5716  -1.4221  -1.4047  -1.2589  -1.2138  -1.1978  -1.0451
    -1.0365  -1.0345  -0.9941  -0.9560  -0.8315  -0.7994  -0.7200  -0.6650
    -0.5989  -0.5759  -0.4604  -0.4544  -0.4224  -0.3886  -0.3864  -0.2757
    -0.2593  -0.2275  -0.1956  -0.1568  -0.0588  -0.0437   0.1309   0.1890
     0.2162   0.3079   0.4638   0.4702   0.4941   0.5428   0.6163   0.6315
     0.7840   0.8369   0.9423   0.9520   0.9693   1.0683   1.1576   1.2407
     1.2840   1.4238   1.4638   1.5478   1.6206   1.6342   1.8415   1.9170
     1.9557   1.9968   2.0936   2.1157   2.1545   2.1554   2.2188   2.2308
     2.3131   2.3620   2.4420

          k = 0.1429-0.1857 0.0000 (251166 PWs)   bands (ev):

   -48.5000 -48.5000 -48.4999 -48.4999 -48.1284 -48.1283 -48.1282 -48.1282
   -48.0783 -48.0783 -48.0783 -48.0783 -48.0350 -48.0349 -48.0349 -48.0349
   -47.8808 -47.8808 -47.8807 -47.8807 -47.5036 -47.5030 -47.5016 -47.5015
   -47.5014 -47.5012 -47.5007 -47.5006 -47.4945 -47.4944 -47.4928 -47.4925
   -47.4877 -47.4876 -47.4857 -47.4854 -47.4813 -47.4808 -47.4778 -47.4771
   -47.4714 -47.4691 -47.4691 -47.4685 -47.4661 -47.4653 -47.4639 -47.4639
   -47.4563 -47.4563 -47.4562 -47.4562 -47.4541 -47.4540 -47.4534 -47.4527
   -47.4523 -47.4496 -47.4493 -47.4486 -47.4438 -47.4437 -47.4431 -47.4427
   -47.4385 -47.4385 -47.4363 -47.4363 -47.4330 -47.4330 -47.4301 -47.4301
   -47.4027 -47.4027 -47.4024 -47.4023  -4.3595  -4.0832  -3.7634  -3.6036
    -3.5491  -3.4756  -3.2679  -3.0372  -2.9531  -2.8610  -2.7709  -2.6737
    -2.6714  -2.6494  -2.5743  -2.4647  -2.3907  -2.3745  -2.3433  -2.2932
    -2.1925  -2.1710  -2.0975  -2.0772  -1.8866  -1.8719  -1.7912  -1.7034
    -1.5410  -1.4955  -1.3469  -1.2267  -1.2174  -1.1853  -1.1314  -1.1005
    -1.0417  -0.8765  -0.8645  -0.7005  -0.6906  -0.6740  -0.6518  -0.6303
    -0.6014  -0.5424  -0.4895  -0.4371  -0.4268  -0.3843  -0.3223  -0.3160
    -0.2983  -0.2364  -0.2253  -0.1226  -0.0288   0.0558   0.1222   0.1850
     0.2201   0.2965   0.3080   0.3144   0.4462   0.4720   0.5763   0.5825
     0.7107   0.7482   0.8107   0.8913   0.9613   1.1030   1.1293   1.1625
     1.2378   1.3651   1.4023   1.4600   1.6207   1.6576   1.7343   1.8187
     1.9035   2.0408   2.1014   2.1263   2.1431   2.2727   2.2826   2.3108
     2.3178   2.3622   2.4376

          k = 0.2857-0.0655 0.0000 (251250 PWs)   bands (ev):

   -48.5000 -48.5000 -48.4999 -48.4999 -48.1284 -48.1283 -48.1282 -48.1282
   -48.0783 -48.0783 -48.0783 -48.0783 -48.0350 -48.0349 -48.0349 -48.0349
   -47.8808 -47.8808 -47.8807 -47.8807 -47.5034 -47.5028 -47.5020 -47.5018
   -47.5012 -47.5011 -47.5007 -47.5007 -47.4943 -47.4942 -47.4932 -47.4929
   -47.4873 -47.4872 -47.4860 -47.4856 -47.4812 -47.4809 -47.4777 -47.4772
   -47.4711 -47.4695 -47.4690 -47.4686 -47.4658 -47.4651 -47.4644 -47.4641
   -47.4563 -47.4563 -47.4562 -47.4562 -47.4540 -47.4540 -47.4536 -47.4524
   -47.4518 -47.4496 -47.4495 -47.4488 -47.4437 -47.4435 -47.4432 -47.4428
   -47.4383 -47.4383 -47.4369 -47.4368 -47.4323 -47.4323 -47.4305 -47.4305
   -47.4027 -47.4026 -47.4024 -47.4024  -4.3226  -4.0457  -3.7863  -3.5589
    -3.5069  -3.4642  -3.1859  -3.1780  -3.1458  -3.0177  -2.9074  -2.8890
    -2.8613  -2.6709  -2.4598  -2.4079  -2.3984  -2.3671  -2.2693  -2.1715
    -2.1401  -2.0816  -2.0033  -1.9548  -1.7538  -1.7213  -1.6987  -1.6821
    -1.5588  -1.4734  -1.3361  -1.2429  -1.1369  -1.0659  -0.9538  -0.9041
    -0.8674  -0.8476  -0.7785  -0.7404  -0.6756  -0.6468  -0.6142  -0.5976
    -0.5914  -0.5832  -0.4552  -0.4452  -0.4348  -0.3932  -0.3775  -0.3635
    -0.2263  -0.1587  -0.1332  -0.0926  -0.0516  -0.0468  -0.0346   0.0077
     0.0662   0.0941   0.1375   0.2235   0.2608   0.2661   0.4532   0.5042
     0.5867   0.5991   0.6128   0.7224   0.8406   0.8722   0.9177   0.9836
     1.0040   1.3126   1.4288   1.5014   1.5568   1.5917   1.8442   1.8780
     1.9716   2.0603   2.1430   2.1982   2.2070   2.2782   2.2885   2.3458
     2.3696   2.4377   2.4767

          k = 0.2857 0.0874 0.0000 (251268 PWs)   bands (ev):

   -48.5000 -48.5000 -48.4999 -48.4999 -48.1284 -48.1283 -48.1282 -48.1282
   -48.0783 -48.0783 -48.0783 -48.0783 -48.0350 -48.0349 -48.0349 -48.0349
   -47.8808 -47.8808 -47.8807 -47.8807 -47.5034 -47.5028 -47.5019 -47.5017
   -47.5012 -47.5011 -47.5008 -47.5008 -47.4943 -47.4942 -47.4932 -47.4929
   -47.4873 -47.4872 -47.4860 -47.4856 -47.4812 -47.4809 -47.4777 -47.4772
   -47.4711 -47.4695 -47.4690 -47.4686 -47.4658 -47.4651 -47.4644 -47.4641
   -47.4563 -47.4563 -47.4562 -47.4562 -47.4540 -47.4539 -47.4536 -47.4524
   -47.4518 -47.4496 -47.4495 -47.4488 -47.4437 -47.4435 -47.4432 -47.4428
   -47.4383 -47.4383 -47.4369 -47.4368 -47.4323 -47.4323 -47.4305 -47.4305
   -47.4027 -47.4026 -47.4024 -47.4024  -4.3186  -4.0418  -3.6993  -3.5556
    -3.5077  -3.4213  -3.3900  -3.2277  -3.1285  -3.1184  -2.9185  -2.8981
    -2.8473  -2.7081  -2.6269  -2.4485  -2.3492  -2.2389  -2.1604  -2.1513
    -2.0125  -1.9773  -1.9437  -1.7774  -1.7503  -1.6534  -1.6431  -1.4761
    -1.4118  -1.3517  -1.3096  -1.1731  -1.1625  -1.1478  -1.1082  -1.0496
    -0.9303  -0.9266  -0.8955  -0.8695  -0.8143  -0.7720  -0.7131  -0.6909
    -0.6137  -0.6078  -0.5557  -0.5165  -0.4749  -0.4503  -0.4222  -0.4005
    -0.3738  -0.2580  -0.1739  -0.1135  -0.0650  -0.0530  -0.0288   0.0053
     0.0567   0.1142   0.1279   0.3118   0.3270   0.4510   0.5023   0.5659
     0.6284   0.6365   0.6469   0.7150   0.8679   0.9133   0.9778   1.0267
     1.2298   1.4453   1.4965   1.5016   1.5581   1.6897   1.8415   1.9030
     1.9584   2.0516   2.0912   2.1171   2.2047   2.2448   2.2903   2.3030
     2.3515   2.3706   2.4235

          k = 0.2857 0.2403 0.0000 (251208 PWs)   bands (ev):

   -48.5000 -48.5000 -48.4999 -48.4999 -48.1284 -48.1283 -48.1282 -48.1282
   -48.0783 -48.0783 -48.0783 -48.0783 -48.0350 -48.0349 -48.0349 -48.0349
   -47.8808 -47.8808 -47.8807 -47.8807 -47.5033 -47.5028 -47.5019 -47.5017
   -47.5013 -47.5011 -47.5008 -47.5008 -47.4943 -47.4942 -47.4932 -47.4929
   -47.4873 -47.4872 -47.4860 -47.4856 -47.4812 -47.4809 -47.4777 -47.4772
   -47.4711 -47.4694 -47.4690 -47.4686 -47.4658 -47.4651 -47.4644 -47.4640
   -47.4563 -47.4563 -47.4562 -47.4562 -47.4539 -47.4539 -47.4536 -47.4526
   -47.4518 -47.4496 -47.4495 -47.4488 -47.4437 -47.4435 -47.4432 -47.4428
   -47.4383 -47.4383 -47.4369 -47.4368 -47.4323 -47.4323 -47.4305 -47.4305
   -47.4027 -47.4026 -47.4024 -47.4024  -4.2593  -3.9827  -3.7828  -3.5817
    -3.5555  -3.5341  -3.4629  -3.3074  -3.2757  -3.0313  -2.8130  -2.8129
    -2.7777  -2.7046  -2.4729  -2.4607  -2.3466  -2.1838  -2.1507  -2.0709
    -1.9955  -1.9485  -1.6696  -1.6284  -1.5628  -1.5441  -1.4957  -1.4542
    -1.4453  -1.3649  -1.3155  -1.2796  -1.2706  -1.2284  -1.1952  -1.1825
    -1.1175  -1.0499  -1.0059  -0.9974  -0.9518  -0.8932  -0.8103  -0.7389
    -0.7267  -0.7119  -0.6073  -0.5542  -0.5519  -0.4567  -0.4448  -0.4069
    -0.3175  -0.2793  -0.2034  -0.2006  -0.1496  -0.1344  -0.0353  -0.0244
     0.1196   0.2721   0.2994   0.3728   0.4339   0.4746   0.5230   0.5618
     0.6651   0.6749   0.6968   0.7229   0.8387   1.0931   1.0945   1.1906
     1.3574   1.4153   1.5356   1.5774   1.5968   1.7795   1.7966   1.7980
     1.9322   2.0755   2.0784   2.0938   2.1303   2.1740   2.2740   2.3014
     2.3350   2.4185   2.5103

          k = 0.2857-0.5244 0.0000 (251257 PWs)   bands (ev):

   -48.5000 -48.5000 -48.4999 -48.4999 -48.1284 -48.1283 -48.1282 -48.1282
   -48.0783 -48.0783 -48.0783 -48.0783 -48.0350 -48.0349 -48.0349 -48.0349
   -47.8808 -47.8808 -47.8807 -47.8807 -47.5032 -47.5027 -47.5019 -47.5017
   -47.5013 -47.5012 -47.5008 -47.5008 -47.4943 -47.4942 -47.4932 -47.4929
   -47.4873 -47.4872 -47.4860 -47.4856 -47.4812 -47.4809 -47.4777 -47.4772
   -47.4710 -47.4695 -47.4690 -47.4686 -47.4658 -47.4651 -47.4644 -47.4641
   -47.4563 -47.4563 -47.4562 -47.4562 -47.4539 -47.4538 -47.4536 -47.4527
   -47.4518 -47.4495 -47.4495 -47.4488 -47.4437 -47.4435 -47.4432 -47.4428
   -47.4383 -47.4383 -47.4369 -47.4368 -47.4323 -47.4323 -47.4305 -47.4305
   -47.4027 -47.4026 -47.4024 -47.4024  -4.1444  -4.0013  -3.8688  -3.7265
    -3.7151  -3.4367  -3.3752  -3.3587  -3.2346  -3.0889  -2.9319  -2.7033
    -2.5980  -2.5466  -2.4404  -2.2664  -2.2542  -2.1530  -2.0713  -2.0433
    -1.9168  -1.8777  -1.8361  -1.8347  -1.7896  -1.7339  -1.6389  -1.5492
    -1.5112  -1.5104  -1.4272  -1.3623  -1.1426  -1.1265  -1.1225  -1.1077
    -1.0721  -1.0674  -1.0538  -0.8957  -0.8738  -0.8382  -0.8238  -0.8046
    -0.8003  -0.7892  -0.5991  -0.5333  -0.4995  -0.4639  -0.4213  -0.3373
    -0.2467  -0.2255  -0.1696  -0.1494  -0.1036  -0.0457  -0.0265   0.0062
     0.1166   0.1353   0.2890   0.3155   0.3516   0.4353   0.5104   0.5804
     0.5879   0.6149   0.6357   0.6944   0.9570   1.0606   1.2110   1.2204
     1.4156   1.4827   1.4994   1.5931   1.6727   1.6766   1.8082   1.9099
     2.0635   2.0805   2.1022   2.1263   2.2044   2.2479   2.2484   2.3050
     2.3751   2.3812   2.4696

          k = 0.2857-0.3714 0.0000 (251193 PWs)   bands (ev):

   -48.5000 -48.5000 -48.4999 -48.4999 -48.1284 -48.1283 -48.1282 -48.1282
   -48.0783 -48.0783 -48.0783 -48.0783 -48.0350 -48.0349 -48.0349 -48.0349
   -47.8808 -47.8808 -47.8807 -47.8807 -47.5032 -47.5027 -47.5020 -47.5018
   -47.5013 -47.5012 -47.5007 -47.5007 -47.4943 -47.4942 -47.4932 -47.4929
   -47.4873 -47.4872 -47.4860 -47.4856 -47.4812 -47.4809 -47.4777 -47.4772
   -47.4710 -47.4695 -47.4690 -47.4686 -47.4658 -47.4651 -47.4644 -47.4641
   -47.4563 -47.4563 -47.4562 -47.4562 -47.4540 -47.4539 -47.4536 -47.4527
   -47.4518 -47.4495 -47.4495 -47.4488 -47.4437 -47.4435 -47.4432 -47.4428
   -47.4383 -47.4383 -47.4369 -47.4368 -47.4323 -47.4323 -47.4305 -47.4305
   -47.4027 -47.4026 -47.4024 -47.4024  -4.1642  -3.9736  -3.8883  -3.7942
    -3.6994  -3.5147  -3.3940  -3.2081  -3.1066  -3.0235  -2.8241  -2.7205
    -2.5220  -2.5028  -2.3963  -2.3509  -2.3341  -2.2629  -2.2243  -2.0990
    -2.0684  -2.0333  -1.8971  -1.7673  -1.7621  -1.7453  -1.7120  -1.6946
    -1.5896  -1.5461  -1.4757  -1.4659  -1.2695  -1.1269  -1.1063  -1.1021
    -1.0349  -0.9284  -0.8883  -0.8488  -0.7909  -0.7752  -0.7355  -0.6636
    -0.6287  -0.5874  -0.5529  -0.4467  -0.4007  -0.3894  -0.3211  -0.2221
    -0.2160  -0.1934  -0.1485  -0.1015  -0.0618  -0.0439  -0.0161   0.0230
     0.0771   0.1815   0.1871   0.2490   0.3117   0.3879   0.4155   0.5114
     0.5643   0.5872   0.6092   0.6989   0.8120   0.9360   1.0392   1.2249
     1.3047   1.4242   1.4680   1.5835   1.5928   1.6501   1.8099   1.8667
     2.0357   2.0541   2.1502   2.2090   2.2111   2.2339   2.2810   2.3734
     2.3765   2.4763   2.4824

          k = 0.2857-0.2185 0.0000 (251210 PWs)   bands (ev):

   -48.5000 -48.5000 -48.4999 -48.4999 -48.1284 -48.1283 -48.1282 -48.1282
   -48.0783 -48.0783 -48.0783 -48.0783 -48.0350 -48.0349 -48.0349 -48.0349
   -47.8808 -47.8808 -47.8807 -47.8807 -47.5033 -47.5028 -47.5020 -47.5018
   -47.5013 -47.5011 -47.5007 -47.5007 -47.4943 -47.4942 -47.4932 -47.4929
   -47.4873 -47.4872 -47.4860 -47.4856 -47.4812 -47.4809 -47.4777 -47.4772
   -47.4711 -47.4695 -47.4690 -47.4686 -47.4658 -47.4651 -47.4644 -47.4641
   -47.4563 -47.4563 -47.4562 -47.4562 -47.4540 -47.4540 -47.4535 -47.4526
   -47.4519 -47.4496 -47.4495 -47.4488 -47.4437 -47.4435 -47.4432 -47.4428
   -47.4383 -47.4383 -47.4369 -47.4368 -47.4323 -47.4323 -47.4305 -47.4305
   -47.4027 -47.4026 -47.4024 -47.4024  -4.2711  -3.9945  -3.8180  -3.7470
    -3.5382  -3.5255  -3.4477  -3.0443  -3.0016  -2.8468  -2.8325  -2.8000
    -2.7511  -2.5715  -2.5251  -2.5185  -2.3712  -2.3161  -2.2319  -2.2024
    -2.0866  -2.0275  -2.0221  -1.9836  -1.9460  -1.9117  -1.6008  -1.5134
    -1.4697  -1.4126  -1.3922  -1.3587  -1.3126  -1.2025  -1.1316  -1.0359
    -0.9295  -0.8076  -0.7891  -0.7242  -0.7113  -0.6802  -0.6715  -0.5615
    -0.5182  -0.4935  -0.4928  -0.4435  -0.4131  -0.3419  -0.2940  -0.2752
    -0.2187  -0.1688  -0.1409  -0.1304  -0.0238  -0.0133   0.0038   0.0696
     0.1170   0.1513   0.2297   0.2510   0.2724   0.3542   0.4176   0.4388
     0.5032   0.5862   0.6637   0.6680   0.7427   0.8145   0.8296   1.0440
     1.2815   1.3028   1.4134   1.4329   1.5621   1.5714   1.8012   1.8247
     1.9291   2.0632   2.1548   2.1957   2.2228   2.2270   2.2988   2.3417
     2.4141   2.4202   2.4843

          k = 0.4286-0.0983 0.0000 (251161 PWs)   bands (ev):

   -48.5000 -48.5000 -48.4999 -48.4999 -48.1283 -48.1283 -48.1282 -48.1282
   -48.0783 -48.0783 -48.0783 -48.0783 -48.0349 -48.0349 -48.0349 -48.0349
   -47.8808 -47.8807 -47.8807 -47.8807 -47.5029 -47.5025 -47.5025 -47.5021
   -47.5010 -47.5009 -47.5009 -47.5008 -47.4940 -47.4939 -47.4936 -47.4934
   -47.4868 -47.4866 -47.4863 -47.4861 -47.4811 -47.4810 -47.4775 -47.4773
   -47.4706 -47.4701 -47.4688 -47.4687 -47.4654 -47.4649 -47.4648 -47.4645
   -47.4563 -47.4563 -47.4562 -47.4562 -47.4540 -47.4540 -47.4533 -47.4528
   -47.4510 -47.4502 -47.4493 -47.4491 -47.4435 -47.4433 -47.4433 -47.4430
   -47.4379 -47.4379 -47.4374 -47.4374 -47.4316 -47.4316 -47.4310 -47.4310
   -47.4026 -47.4025 -47.4025 -47.4024  -4.1950  -4.0162  -3.9174  -3.7378
    -3.4306  -3.4084  -3.3039  -3.2484  -3.1290  -3.0216  -2.9843  -2.7739
    -2.7417  -2.7041  -2.6090  -2.6051  -2.4761  -2.4605  -2.2096  -2.0364
    -1.9797  -1.9004  -1.8970  -1.8638  -1.7035  -1.6161  -1.5912  -1.5227
    -1.4014  -1.3225  -1.3079  -1.2378  -1.1735  -1.1102  -1.1011  -1.0791
    -1.0326  -0.8816  -0.8691  -0.8252  -0.7108  -0.6854  -0.6490  -0.5717
    -0.5379  -0.4690  -0.4351  -0.3881  -0.3761  -0.3263  -0.2934  -0.2759
    -0.2272  -0.1681  -0.1356  -0.0861  -0.0403  -0.0285   0.0047   0.0084
     0.0636   0.1469   0.1570   0.1685   0.1977   0.2671   0.3159   0.3696
     0.3863   0.4398   0.4713   0.5526   0.6123   0.7402   0.7896   0.8212
     1.0475   1.2671   1.3443   1.3967   1.4600   1.6284   1.7695   1.9194
     1.9961   2.0782   2.0873   2.2303   2.2762   2.2769   2.2811   2.3392
     2.3608   2.4198   2.4329

          k = 0.4286 0.0546 0.0000 (251264 PWs)   bands (ev):

   -48.5000 -48.5000 -48.4999 -48.4999 -48.1283 -48.1283 -48.1282 -48.1282
   -48.0783 -48.0783 -48.0783 -48.0783 -48.0349 -48.0349 -48.0349 -48.0349
   -47.8808 -47.8807 -47.8807 -47.8807 -47.5030 -47.5025 -47.5024 -47.5021
   -47.5010 -47.5009 -47.5009 -47.5009 -47.4940 -47.4939 -47.4936 -47.4934
   -47.4868 -47.4866 -47.4863 -47.4861 -47.4811 -47.4810 -47.4775 -47.4773
   -47.4706 -47.4700 -47.4688 -47.4687 -47.4654 -47.4649 -47.4648 -47.4644
   -47.4563 -47.4563 -47.4562 -47.4562 -47.4540 -47.4539 -47.4533 -47.4528
   -47.4510 -47.4502 -47.4493 -47.4491 -47.4435 -47.4433 -47.4433 -47.4430
   -47.4379 -47.4379 -47.4374 -47.4374 -47.4316 -47.4316 -47.4310 -47.4310
   -47.4026 -47.4025 -47.4025 -47.4024  -4.2029  -3.9410  -3.9253  -3.6634
    -3.5606  -3.4368  -3.3221  -3.2927  -3.1593  -3.0856  -3.0428  -2.8094
    -2.8013  -2.7693  -2.5327  -2.4851  -2.3111  -2.3065  -2.1201  -2.0660
    -2.0110  -1.9938  -1.8240  -1.7085  -1.6556  -1.6095  -1.5767  -1.3596
    -1.3573  -1.3141  -1.2312  -1.2074  -1.2017  -1.1843  -1.0760  -1.0639
    -1.0191  -0.9898  -0.9356  -0.9328  -0.7906  -0.7633  -0.6555  -0.6280
    -0.5861  -0.5386  -0.5030  -0.4423  -0.4284  -0.4185  -0.4026  -0.3174
    -0.3082  -0.2426  -0.2323  -0.1766  -0.1025  -0.0591  -0.0349   0.0527
     0.0966   0.1123   0.1243   0.1587   0.1825   0.2934   0.3463   0.3803
     0.4215   0.4848   0.5863   0.6647   0.6968   0.7435   0.7923   1.0886
     1.2461   1.3150   1.3601   1.4005   1.5619   1.6250   1.8346   1.8989
     1.9050   2.0674   2.1303   2.1573   2.2700   2.2961   2.3245   2.3524
     2.3909   2.4370   2.4713

          k = 0.4286 0.2076 0.0000 (251266 PWs)   bands (ev):

   -48.5000 -48.5000 -48.4999 -48.4999 -48.1283 -48.1283 -48.1282 -48.1282
   -48.0783 -48.0783 -48.0783 -48.0783 -48.0349 -48.0349 -48.0349 -48.0349
   -47.8808 -47.8807 -47.8807 -47.8807 -47.5029 -47.5025 -47.5024 -47.5021
   -47.5011 -47.5010 -47.5009 -47.5009 -47.4940 -47.4939 -47.4936 -47.4934
   -47.4868 -47.4866 -47.4863 -47.4861 -47.4811 -47.4810 -47.4775 -47.4774
   -47.4706 -47.4700 -47.4688 -47.4687 -47.4654 -47.4649 -47.4648 -47.4644
   -47.4563 -47.4563 -47.4562 -47.4562 -47.4540 -47.4539 -47.4533 -47.4529
   -47.4509 -47.4502 -47.4493 -47.4491 -47.4435 -47.4433 -47.4433 -47.4430
   -47.4379 -47.4379 -47.4374 -47.4374 -47.4316 -47.4316 -47.4310 -47.4310
   -47.4026 -47.4025 -47.4025 -47.4025  -4.1554  -3.8781  -3.8109  -3.7623
    -3.6081  -3.5356  -3.4848  -3.4027  -3.3137  -3.0417  -2.9892  -2.8667
    -2.7265  -2.6459  -2.4318  -2.3760  -2.2886  -2.1805  -2.0325  -1.9394
    -1.8654  -1.8616  -1.7458  -1.7187  -1.6684  -1.5694  -1.4888  -1.4618
    -1.3900  -1.3773  -1.2809  -1.2110  -1.1878  -1.1620  -1.0693  -1.0642
    -1.0245  -1.0136  -0.9983  -0.9729  -0.8077  -0.8066  -0.7808  -0.7326
    -0.7211  -0.6369  -0.6084  -0.5444  -0.5264  -0.5214  -0.4926  -0.4206
    -0.3967  -0.3235  -0.3114  -0.2551  -0.1752  -0.1058  -0.0175   0.0547
     0.0634   0.0941   0.1415   0.1842   0.1958   0.2071   0.3145   0.4024
     0.4252   0.5618   0.7156   0.8659   0.8814   0.9205   0.9903   1.0863
     1.3129   1.3478   1.4068   1.6248   1.6538   1.6743   1.7517   1.9406
     1.9746   2.0055   2.1311   2.1424   2.2429   2.2442   2.3246   2.3323
     2.4134   2.4670   2.5191

          k = 0.4286-0.5572 0.0000 (251292 PWs)   bands (ev):

   -48.5000 -48.5000 -48.4999 -48.4999 -48.1283 -48.1283 -48.1282 -48.1282
   -48.0783 -48.0783 -48.0783 -48.0783 -48.0349 -48.0349 -48.0349 -48.0349
   -47.8808 -47.8807 -47.8807 -47.8807 -47.5028 -47.5024 -47.5024 -47.5021
   -47.5011 -47.5010 -47.5009 -47.5009 -47.4940 -47.4939 -47.4936 -47.4934
   -47.4868 -47.4866 -47.4863 -47.4861 -47.4811 -47.4810 -47.4775 -47.4774
   -47.4706 -47.4700 -47.4688 -47.4687 -47.4654 -47.4649 -47.4648 -47.4644
   -47.4563 -47.4563 -47.4562 -47.4562 -47.4539 -47.4539 -47.4533 -47.4530
   -47.4510 -47.4502 -47.4493 -47.4490 -47.4435 -47.4433 -47.4433 -47.4430
   -47.4379 -47.4379 -47.4374 -47.4374 -47.4316 -47.4316 -47.4310 -47.4310
   -47.4026 -47.4025 -47.4025 -47.4025  -4.0525  -3.9094  -3.8383  -3.7760
    -3.6332  -3.6229  -3.5642  -3.3514  -3.2801  -3.1326  -3.0725  -2.8600
    -2.6045  -2.4547  -2.3863  -2.2533  -2.1895  -2.1752  -2.0156  -2.0124
    -1.9468  -1.7820  -1.7203  -1.6290  -1.6209  -1.5740  -1.5581  -1.5169
    -1.4640  -1.3799  -1.3444  -1.3288  -1.2780  -1.2531  -1.1967  -1.0866
    -1.0110  -1.0043  -0.9176  -0.8956  -0.8219  -0.7626  -0.7346  -0.7296
    -0.7079  -0.6893  -0.6468  -0.5952  -0.5096  -0.4567  -0.4564  -0.4401
    -0.3150  -0.3046  -0.2997  -0.2594  -0.2241  -0.1093  -0.0891  -0.0806
    -0.0643   0.0480   0.0489   0.1283   0.1299   0.2971   0.3357   0.4044
     0.4190   0.7076   0.7670   0.8012   0.8347   1.0668   1.0771   1.1790
     1.3535   1.4376   1.4612   1.6020   1.6158   1.7590   1.8304   1.8375
     1.8907   2.0672   2.1447   2.2138   2.2505   2.2949   2.3253   2.3457
     2.4228   2.4475   2.4922

          k = 0.4286-0.4042 0.0000 (251278 PWs)   bands (ev):

   -48.5000 -48.5000 -48.4999 -48.4999 -48.1283 -48.1283 -48.1282 -48.1282
   -48.0783 -48.0783 -48.0783 -48.0783 -48.0349 -48.0349 -48.0349 -48.0349
   -47.8808 -47.8807 -47.8807 -47.8807 -47.5028 -47.5024 -47.5024 -47.5021
   -47.5011 -47.5011 -47.5009 -47.5008 -47.4940 -47.4939 -47.4936 -47.4934
   -47.4868 -47.4866 -47.4863 -47.4861 -47.4811 -47.4810 -47.4775 -47.4774
   -47.4706 -47.4700 -47.4688 -47.4687 -47.4654 -47.4649 -47.4648 -47.4644
   -47.4563 -47.4563 -47.4562 -47.4562 -47.4540 -47.4539 -47.4533 -47.4530
   -47.4510 -47.4502 -47.4493 -47.4490 -47.4435 -47.4433 -47.4433 -47.4430
   -47.4379 -47.4379 -47.4374 -47.4374 -47.4316 -47.4316 -47.4310 -47.4310
   -47.4026 -47.4025 -47.4025 -47.4025  -4.0130  -4.0004  -3.8937  -3.7371
    -3.7222  -3.6182  -3.3827  -3.2428  -3.2369  -3.1253  -3.0963  -2.6683
    -2.6160  -2.5707  -2.4920  -2.4345  -2.3536  -2.1198  -1.9706  -1.9321
    -1.9028  -1.8618  -1.7659  -1.7468  -1.7005  -1.6380  -1.6182  -1.5666
    -1.5358  -1.4669  -1.3898  -1.2631  -1.2603  -1.2197  -1.1653  -1.1045
    -1.0651  -0.9539  -0.8571  -0.8264  -0.7774  -0.7378  -0.7185  -0.6885
    -0.6363  -0.5956  -0.4859  -0.4299  -0.4088  -0.3864  -0.3796  -0.3543
    -0.3348  -0.2530  -0.2198  -0.1858  -0.1662  -0.1468  -0.0906  -0.0355
    -0.0256   0.0270   0.0390   0.1274   0.1539   0.2985   0.3570   0.3669
     0.3839   0.5070   0.6332   0.7242   0.8343   0.9636   1.0638   1.0653
     1.1688   1.3516   1.4807   1.4948   1.6760   1.7801   1.7842   1.8220
     1.9785   2.0902   2.2339   2.2355   2.2548   2.2624   2.2940   2.3188
     2.3360   2.4516   2.4886

          k = 0.4286-0.2513 0.0000 (251170 PWs)   bands (ev):

   -48.5000 -48.5000 -48.4999 -48.4999 -48.1283 -48.1283 -48.1282 -48.1282
   -48.0783 -48.0783 -48.0783 -48.0783 -48.0349 -48.0349 -48.0349 -48.0349
   -47.8808 -47.8807 -47.8807 -47.8807 -47.5029 -47.5025 -47.5024 -47.5021
   -47.5011 -47.5010 -47.5008 -47.5008 -47.4940 -47.4939 -47.4936 -47.4934
   -47.4868 -47.4866 -47.4863 -47.4861 -47.4811 -47.4810 -47.4775 -47.4774
   -47.4706 -47.4701 -47.4688 -47.4687 -47.4654 -47.4649 -47.4648 -47.4645
   -47.4563 -47.4563 -47.4562 -47.4562 -47.4540 -47.4539 -47.4533 -47.4529
   -47.4510 -47.4502 -47.4493 -47.4490 -47.4435 -47.4433 -47.4433 -47.4430
   -47.4379 -47.4379 -47.4374 -47.4374 -47.4316 -47.4316 -47.4310 -47.4310
   -47.4026 -47.4025 -47.4025 -47.4025  -4.1317  -4.0360  -3.8546  -3.7575
    -3.6795  -3.4223  -3.3419  -3.2664  -3.0861  -2.9918  -2.9254  -2.8086
    -2.7155  -2.6814  -2.5958  -2.5601  -2.3168  -2.3089  -2.2408  -2.2112
    -1.8615  -1.8280  -1.8118  -1.7982  -1.7455  -1.6273  -1.5145  -1.5115
    -1.5031  -1.4532  -1.4378  -1.2352  -1.2085  -1.1813  -1.0204  -0.9889
    -0.9856  -0.9571  -0.9453  -0.9270  -0.8680  -0.6937  -0.6565  -0.6497
    -0.6062  -0.4772  -0.3848  -0.3755  -0.3380  -0.2988  -0.2516  -0.2096
    -0.1524  -0.1286  -0.1073  -0.0983  -0.0894  -0.0282  -0.0272  -0.0202
     0.0791   0.1103   0.1150   0.1276   0.1564   0.2472   0.2863   0.3111
     0.3486   0.4015   0.4508   0.5379   0.6085   0.7378   0.9394   1.0236
     1.2035   1.3061   1.3313   1.4366   1.4440   1.6719   1.7476   1.9064
     2.0214   2.0282   2.1580   2.2206   2.2265   2.2459   2.3095   2.3464
     2.3519   2.4269   2.4315

     the Fermi energy is    -0.9495 ev

!    total energy              =   -1142.86448134 Ry
     total all-electron energy =     -1142.865099 Ry
     estimated scf accuracy    <       0.00000021 Ry
     smearing contrib. (-TS)   =       0.00035047 Ry
     internal energy E=F+TS    =   -1142.86483181 Ry

     The total energy is F=E-TS. E is the sum of the following terms:
     one-electron contribution =   -4988.22873228 Ry
     hartree contribution      =    2385.56383050 Ry
     xc contribution           =    -272.50082053 Ry
     ewald contribution        =    1725.60043466 Ry
     one-center paw contrib.   =       6.70045584 Ry

     convergence has been achieved in  18 iterations

     Forces acting on atoms (cartesian axes, Ry/au):

     atom    1 type  1   force =     0.00001225    0.00020020   -0.00008847
     atom    2 type  1   force =    -0.00002791   -0.00011188    0.00009918
     atom    3 type  1   force =     0.00003880    0.00015184    0.00004930
     atom    4 type  1   force =     0.00005045    0.00002931    0.00004071
     atom    5 type  1   force =     0.00004437    0.00007019   -0.00033290
     atom    6 type  1   force =    -0.00002640   -0.00012158    0.00002456
     atom    7 type  1   force =    -0.00003758    0.00009334    0.00016277
     atom    8 type  1   force =    -0.00007024    0.00003341    0.00045884
     atom    9 type  1   force =    -0.00007962   -0.00009968    0.00013195
     atom   10 type  1   force =    -0.00003148   -0.00017162    0.00002648
     atom   11 type  1   force =    -0.00001336    0.00000354   -0.00004264
     atom   12 type  1   force =     0.00003043    0.00017271    0.00003710
     atom   13 type  1   force =     0.00003190    0.00006094   -0.00038911
     atom   14 type  1   force =     0.00007845   -0.00009878   -0.00037802
     atom   15 type  1   force =     0.00001183    0.00008966   -0.00019470
     atom   16 type  1   force =     0.00001783    0.00009953    0.00014374
     atom   17 type  1   force =    -0.00001922   -0.00006376    0.00016405
     atom   18 type  1   force =    -0.00001132   -0.00010731   -0.00019113
     atom   19 type  1   force =    -0.00001587   -0.00013138   -0.00003332
     atom   20 type  1   force =     0.00001991    0.00006288   -0.00016403
     atom   21 type  1   force =    -0.00001784   -0.00009956   -0.00014400
     atom   22 type  1   force =    -0.00001180   -0.00008906    0.00019405
     atom   23 type  1   force =    -0.00007767    0.00009938    0.00037849
     atom   24 type  1   force =    -0.00003195   -0.00006277    0.00038973
     atom   25 type  1   force =    -0.00003073   -0.00017209   -0.00003774
     atom   26 type  1   force =     0.00001282   -0.00000413    0.00004185
     atom   27 type  1   force =     0.00003121    0.00016987   -0.00002583
     atom   28 type  1   force =     0.00007914    0.00010006   -0.00013105
     atom   29 type  1   force =     0.00007047   -0.00003322   -0.00045844
     atom   30 type  1   force =     0.00003745   -0.00009203   -0.00016300
     atom   31 type  1   force =     0.00002739    0.00012160   -0.00002569
     atom   32 type  1   force =    -0.00004460   -0.00006980    0.00033223
     atom   33 type  1   force =    -0.00005139   -0.00002947   -0.00004132
     atom   34 type  1   force =    -0.00003970   -0.00015173   -0.00004737
     atom   35 type  1   force =     0.00002748    0.00011310   -0.00009935
     atom   36 type  1   force =    -0.00001247   -0.00019901    0.00008897
     atom   37 type  1   force =     0.00001614    0.00013305    0.00003128
     atom   38 type  1   force =     0.00001107    0.00010718    0.00018985
     atom   39 type  1   force =     0.00001310    0.00020152   -0.00008775
     atom   40 type  1   force =    -0.00002759   -0.00011137    0.00009929
     atom   41 type  1   force =     0.00004015    0.00015186    0.00004937
     atom   42 type  1   force =     0.00005085    0.00003050    0.00004098
     atom   43 type  1   force =     0.00004495    0.00006901   -0.00033239
     atom   44 type  1   force =    -0.00002694   -0.00012294    0.00002549
     atom   45 type  1   force =    -0.00003718    0.00009268    0.00016244
     atom   46 type  1   force =    -0.00007072    0.00003290    0.00045823
     atom   47 type  1   force =    -0.00007930   -0.00010067    0.00013113
     atom   48 type  1   force =    -0.00003054   -0.00017107    0.00002695
     atom   49 type  1   force =    -0.00001211    0.00000351   -0.00004266
     atom   50 type  1   force =     0.00003132    0.00017242    0.00003710
     atom   51 type  1   force =     0.00003289    0.00006118   -0.00038940
     atom   52 type  1   force =     0.00007699   -0.00009912   -0.00037751
     atom   53 type  1   force =     0.00001246    0.00008746   -0.00019358
     atom   54 type  1   force =     0.00001852    0.00009832    0.00014416
     atom   55 type  1   force =    -0.00002020   -0.00006173    0.00016396
     atom   56 type  1   force =    -0.00001216   -0.00010771   -0.00019103
     atom   57 type  1   force =    -0.00001622   -0.00013255   -0.00003094
     atom   58 type  1   force =     0.00002025    0.00006245   -0.00016365
     atom   59 type  1   force =    -0.00002005   -0.00009802   -0.00014405
     atom   60 type  1   force =    -0.00001161   -0.00008915    0.00019369
     atom   61 type  1   force =    -0.00007685    0.00009969    0.00037859
     atom   62 type  1   force =    -0.00003166   -0.00006072    0.00038991
     atom   63 type  1   force =    -0.00003035   -0.00017240   -0.00003682
     atom   64 type  1   force =     0.00001201   -0.00000410    0.00004290
     atom   65 type  1   force =     0.00003203    0.00017054   -0.00002640
     atom   66 type  1   force =     0.00007847    0.00009884   -0.00013105
     atom   67 type  1   force =     0.00007065   -0.00003309   -0.00045788
     atom   68 type  1   force =     0.00003805   -0.00009169   -0.00016367
     atom   69 type  1   force =     0.00002641    0.00012095   -0.00002497
     atom   70 type  1   force =    -0.00004571   -0.00007001    0.00033242
     atom   71 type  1   force =    -0.00005086   -0.00002991   -0.00004048
     atom   72 type  1   force =    -0.00003961   -0.00015186   -0.00004882
     atom   73 type  1   force =     0.00002772    0.00011198   -0.00010005
     atom   74 type  1   force =    -0.00001314   -0.00020028    0.00008776
     atom   75 type  1   force =     0.00001651    0.00013337    0.00003095
     atom   76 type  1   force =     0.00001126    0.00010625    0.00019078

     Total force =     0.002076     Total SCF correction =     0.000353
     SCF correction compared to forces is large: reduce conv_thr to get better values

     BFGS Geometry Optimization
     Energy error            =      4.3E-06 Ry
     Gradient error          =      4.6E-04 Ry/Bohr

     number of scf cycles    =   1
     number of bfgs steps    =   0

     energy             new  =   -1142.8644813397 Ry

     new trust radius        =       0.0004653832 bohr
     new conv_thr            =       0.0000010000 Ry


ATOMIC_POSITIONS (angstrom)
Li              -0.0017132890       -0.5884343071       22.1497892347
Li               2.4301827312        7.3565617639        8.1161199262
Li               2.4295323014        3.7769890889        9.0107272990
Li               2.4302263566        0.6900979092       10.0512343307
Li               4.8609773791        7.8945640624       10.2892085766
Li               4.8644008194        4.2453041033       11.0502649759
Li               4.8664525123        1.1165921854       11.9704312940
Li               2.4402000710        8.3757863117       12.6898051162
Li               2.4373991352        5.0584883518       13.6175706955
Li               2.4334339038        1.6087239045       14.4795006249
Li               4.8557712106        8.8759753327       15.1985019050
Li               4.8517298704        5.5877740865       15.9371163312
Li               4.8487935284        2.2913204970       16.9137947833
Li               2.4177958829        9.5446512197       17.4280108621
Li               2.4209464623        6.0816070562       18.1002429490
Li               2.4240219467        2.8187825489       19.1685751845
Li               4.8561902569        9.9497614896       19.9971111236
Li               4.8576148424        7.0079557828       21.0272185758
Li               4.8574220611        3.3215199552       21.4647833401
Li               2.4308767138        9.5541959645        9.9498831283
Li               2.4340227296        6.0973117764       10.7784229291
Li               2.4370986557        2.8344899227       11.8467553246
Li               4.8692720990        9.9593094917       12.5189856969
Li               4.8672952644        6.6247732413       13.0332036367
Li               4.8643606658        3.3283172049       14.0098789102
Li               4.8603170962        0.0401214939       14.7484931474
Li               2.4246096942        7.3073706332       15.4674964918
Li               2.4206465293        3.8576053692       16.3294307107
Li               2.4178444192        0.5403094828       17.2571899253
Li               4.8496382463        7.7995032802       17.9765622240
Li               4.8516878625        4.6707930581       18.8967299654
Li               4.8551097375        1.0215281716       19.6577883210
Li               2.4278183645        8.2259991055       19.8957626833
Li               2.4285103142        5.1391042192       20.9362721833
Li               2.4278598000        1.5595302900       21.8308766960
Li               4.8597576987        9.5045288897        7.7972090512
Li               4.8586653083        5.5945727849        8.4822085404
Li               4.8584738158        1.9081411086        8.9197791043
Li               4.8563312332       -0.5884332589       22.1497912245
Li               7.2882268800        7.3565626746        8.1161190238
Li               7.2875795487        3.7769901495        9.0107244351
Li               7.2882705182        0.6900963215       10.0512346451
Li               9.7190212978        7.8945639259       10.2892088350
Li               9.7224455927        4.2453028938       11.0502661767
Li               9.7244966575        1.1165915742       11.9704317214
Li               7.2982454165        8.3757860091       12.6898052427
Li               7.2954426939        5.0584890688       13.6175705925
Li               7.2914808815        1.6087233056       14.4795010629
Li               9.7138154533        8.8759741455       15.1985047640
Li               9.7097730064        5.5877740500       15.9371177942
Li               9.7068390858        2.2913205369       16.9137937310
Li               7.2758394427        9.5446511802       17.4280122013
Li               7.2789917439        6.0816037004       18.1002432701
Li               7.2820643880        2.8187811786       19.1685758058
Li               9.7142341602        9.9497643259       19.9971117823
Li               9.7156617766        7.0079556043       21.0272185588
Li               9.7154673249        3.3215203057       21.4647846457
Li               7.2889205362        9.5541965594        9.9498831877
Li               7.2920663381        6.0973121497       10.7784219595
Li               7.2951423479        2.8344907452       11.8467534670
Li               9.7273167115        9.9593098324       12.5189877915
Li               9.7253403366        6.6247734680       13.0332051138
Li               9.7224040811        3.3283180122       14.0098796241
Li               9.7183613769        0.0401191413       14.7484934120
Li               7.2826533986        7.3073720040       15.4674971684
Li               7.2786898846        3.8576025046       16.3294305313
Li               7.2758891147        0.5403092607       17.2571911287
Li               9.7076813836        7.7995030013       17.9765646406
Li               9.7097323936        4.6707907221       18.8967305044
Li               9.7131559131        1.0215299512       19.6577875273
Li               7.2858631753        8.2259966037       19.8957651271
Li               7.2865548787        5.1391045210       20.9362720569
Li               7.2859055784        1.5595310965       21.8308764344
Li               9.7178002962        9.5045278866        7.7972068015
Li               9.7167102150        5.5945735242        8.4822079076
Li               9.7165166798        1.9081382932        8.9197803451


     Message from routine punch:
     Nothing written, as per user request (disk_io='none')
     NEW-OLD atomic charge density approx. for the potential

     negative rho (up, down):  1.417E-04 0.000E+00

     total cpu time spent up to now is      389.5 secs

     Self-consistent Calculation

     iteration #  1     ecut=    80.00 Ry     beta= 0.20
     Davidson diagonalization with overlap
     ethr =  1.00E-06,  avg # of iterations =  2.0

     Threshold (ethr) on eigenvalues was too large:
     Diagonalizing with lowered threshold

     Davidson diagonalization with overlap
     ethr =  1.15E-08,  avg # of iterations =  1.1

     negative rho (up, down):  1.450E-04 0.000E+00

     total cpu time spent up to now is      417.1 secs

     total energy              =   -1142.86448619 Ry
     estimated scf accuracy    <       0.00002644 Ry

     iteration #  2     ecut=    80.00 Ry     beta= 0.20
     Davidson diagonalization with overlap
     ethr =  1.16E-08,  avg # of iterations =  1.0

     negative rho (up, down):  1.548E-04 0.000E+00

     total cpu time spent up to now is      428.8 secs

     total energy              =   -1142.86448517 Ry
     estimated scf accuracy    <       0.00001472 Ry

     iteration #  3     ecut=    80.00 Ry     beta= 0.20
     Davidson diagonalization with overlap
     ethr =  6.46E-09,  avg # of iterations =  1.0

     negative rho (up, down):  1.420E-04 0.000E+00

     total cpu time spent up to now is      440.2 secs

     End of self-consistent calculation

          k = 0.0000 0.0000 0.0000 (251233 PWs)   bands (ev):

   -48.4998 -48.4998 -48.4998 -48.4998 -48.1281 -48.1281 -48.1280 -48.1280
   -48.0779 -48.0779 -48.0779 -48.0778 -48.0354 -48.0354 -48.0354 -48.0354
   -47.8809 -47.8808 -47.8808 -47.8808 -47.5030 -47.5024 -47.5010 -47.5008
   -47.5007 -47.5007 -47.5005 -47.5004 -47.4940 -47.4939 -47.4921 -47.4917
   -47.4863 -47.4862 -47.4843 -47.4839 -47.4808 -47.4802 -47.4773 -47.4765
   -47.4710 -47.4684 -47.4681 -47.4680 -47.4658 -47.4648 -47.4634 -47.4633
   -47.4553 -47.4552 -47.4551 -47.4551 -47.4538 -47.4537 -47.4533 -47.4527
   -47.4515 -47.4490 -47.4490 -47.4479 -47.4432 -47.4432 -47.4424 -47.4420
   -47.4382 -47.4382 -47.4358 -47.4358 -47.4324 -47.4324 -47.4294 -47.4294
   -47.4014 -47.4014 -47.4010 -47.4010  -4.4238  -4.1474  -3.6614  -3.4233
    -3.4190  -3.1748  -3.1723  -3.1421  -3.1418  -2.9961  -2.8917  -2.8911
    -2.6774  -2.6719  -2.6522  -2.6175  -2.4381  -2.4186  -2.3602  -2.3541
    -2.2296  -1.9775  -1.9427  -1.9109  -1.8843  -1.7400  -1.7226  -1.6447
    -1.6343  -1.4570  -1.4492  -1.4221  -1.2632  -1.2600  -1.1941  -1.0331
    -1.0266  -0.9927  -0.8821  -0.8330  -0.6817  -0.6339  -0.5858  -0.5071
    -0.4949  -0.4505  -0.4390  -0.3485  -0.3373  -0.3071  -0.2941  -0.2745
    -0.2369  -0.2143  -0.1322  -0.0775  -0.0774  -0.0056   0.0118   0.0600
     0.0654   0.1170   0.1239   0.3856   0.4447   0.5485   0.5559   0.6923
     0.7312   0.9035   0.9064   0.9552   0.9868   1.0453   1.1795   1.2702
     1.4431   1.4433   1.5785   1.6071   1.6839   1.6933   1.7114   1.8534
     1.9162   1.9446   2.0494   2.1259   2.1843   2.2425   2.2433   2.2778
     2.3117   2.3275   2.3411

          k = 0.0000 0.1529 0.0000 (251220 PWs)   bands (ev):

   -48.4998 -48.4998 -48.4998 -48.4998 -48.1281 -48.1281 -48.1280 -48.1280
   -48.0779 -48.0779 -48.0779 -48.0778 -48.0354 -48.0354 -48.0354 -48.0354
   -47.8809 -47.8808 -47.8808 -47.8808 -47.5030 -47.5024 -47.5010 -47.5009
   -47.5007 -47.5007 -47.5005 -47.5004 -47.4940 -47.4939 -47.4921 -47.4917
   -47.4863 -47.4862 -47.4843 -47.4839 -47.4808 -47.4802 -47.4773 -47.4766
   -47.4710 -47.4684 -47.4681 -47.4680 -47.4658 -47.4648 -47.4634 -47.4633
   -47.4553 -47.4552 -47.4551 -47.4551 -47.4538 -47.4537 -47.4533 -47.4527
   -47.4516 -47.4490 -47.4490 -47.4479 -47.4432 -47.4432 -47.4424 -47.4420
   -47.4382 -47.4382 -47.4358 -47.4358 -47.4324 -47.4324 -47.4294 -47.4294
   -47.4014 -47.4014 -47.4010 -47.4010  -4.3961  -4.1198  -3.7282  -3.6368
    -3.4441  -3.2293  -3.0745  -3.0625  -3.0055  -2.9461  -2.8956  -2.8827
    -2.7824  -2.7799  -2.6187  -2.4456  -2.3996  -2.3310  -2.2801  -2.2656
    -2.1432  -2.1059  -2.1041  -2.0772  -1.8111  -1.7758  -1.6260  -1.5924
    -1.5867  -1.5211  -1.4326  -1.3447  -1.2845  -1.2582  -1.0844  -1.0617
    -1.0216  -0.9144  -0.8812  -0.7949  -0.7940  -0.7497  -0.7171  -0.7120
    -0.6731  -0.6344  -0.6051  -0.4717  -0.4541  -0.4386  -0.3561  -0.2821
    -0.2336  -0.1028  -0.0558  -0.0363  -0.0164   0.0087   0.0652   0.1517
     0.2663   0.3158   0.3399   0.4257   0.5294   0.5364   0.5766   0.6574
     0.8342   0.9378   0.9564   0.9720   0.9823   1.1243   1.2801   1.3086
     1.3522   1.4187   1.5045   1.6196   1.6286   1.7225   1.7673   1.8370
     1.8538   1.9536   2.0054   2.0648   2.1105   2.1555   2.1608   2.2472
     2.2655   2.2817   2.3523

          k = 0.0000 0.3059 0.0000 (251082 PWs)   bands (ev):

   -48.4998 -48.4998 -48.4998 -48.4998 -48.1281 -48.1281 -48.1280 -48.1280
   -48.0779 -48.0779 -48.0779 -48.0778 -48.0354 -48.0354 -48.0354 -48.0354
   -47.8809 -47.8808 -47.8808 -47.8808 -47.5029 -47.5023 -47.5011 -47.5010
   -47.5007 -47.5007 -47.5005 -47.5004 -47.4940 -47.4939 -47.4921 -47.4917
   -47.4863 -47.4862 -47.4843 -47.4839 -47.4808 -47.4802 -47.4773 -47.4766
   -47.4710 -47.4684 -47.4681 -47.4680 -47.4657 -47.4648 -47.4634 -47.4633
   -47.4553 -47.4553 -47.4551 -47.4551 -47.4537 -47.4537 -47.4533 -47.4528
   -47.4518 -47.4490 -47.4489 -47.4479 -47.4432 -47.4432 -47.4424 -47.4421
   -47.4382 -47.4382 -47.4358 -47.4358 -47.4324 -47.4324 -47.4294 -47.4294
   -47.4014 -47.4014 -47.4010 -47.4010  -4.3129  -4.0370  -3.9790  -3.7089
    -3.5399  -3.2293  -3.2188  -3.0625  -2.9461  -2.8956  -2.8679  -2.7824
    -2.6201  -2.6186  -2.5369  -2.4455  -2.3996  -2.3687  -2.2801  -2.1431
    -2.1039  -2.0770  -2.0506  -1.8621  -1.8115  -1.7758  -1.7321  -1.6260
    -1.6073  -1.5868  -1.4326  -1.3444  -1.3413  -1.2836  -1.2564  -1.1205
    -1.0850  -1.0624  -0.9404  -0.9152  -0.8828  -0.7937  -0.7542  -0.7501
    -0.7174  -0.6713  -0.6046  -0.5479  -0.5006  -0.4521  -0.3571  -0.2818
    -0.2560  -0.2065  -0.1975  -0.0563  -0.0378  -0.0165   0.1514   0.2680
     0.3311   0.4034   0.4187   0.5288   0.6197   0.6671   0.6767   0.8333
     0.9368   0.9733   1.0584   1.1616   1.1753   1.2477   1.2501   1.2797
     1.3522   1.4046   1.5043   1.5193   1.5385   1.6195   1.7238   1.7443
     1.9162   2.0053   2.0802   2.1106   2.1183   2.1553   2.1802   2.2058
     2.2311   2.2462   2.2788

          k = 0.0000-0.4588 0.0000 (251042 PWs)   bands (ev):

   -48.4998 -48.4998 -48.4998 -48.4998 -48.1281 -48.1281 -48.1280 -48.1280
   -48.0779 -48.0779 -48.0779 -48.0778 -48.0354 -48.0354 -48.0354 -48.0354
   -47.8809 -47.8808 -47.8808 -47.8808 -47.5029 -47.5023 -47.5012 -47.5010
   -47.5007 -47.5007 -47.5005 -47.5004 -47.4940 -47.4939 -47.4921 -47.4917
   -47.4863 -47.4862 -47.4843 -47.4839 -47.4808 -47.4802 -47.4773 -47.4766
   -47.4710 -47.4684 -47.4681 -47.4680 -47.4657 -47.4648 -47.4634 -47.4633
   -47.4553 -47.4553 -47.4551 -47.4551 -47.4537 -47.4536 -47.4533 -47.4528
   -47.4519 -47.4490 -47.4489 -47.4479 -47.4432 -47.4432 -47.4424 -47.4421
   -47.4382 -47.4382 -47.4358 -47.4358 -47.4324 -47.4324 -47.4294 -47.4294
   -47.4014 -47.4014 -47.4010 -47.4010  -4.1782  -4.1697  -3.9073  -3.8902
    -3.4191  -3.3950  -3.1749  -3.1723  -2.8917  -2.8912  -2.7647  -2.6914
    -2.6775  -2.6718  -2.4382  -2.4183  -2.3602  -2.3539  -2.1466  -2.1433
    -2.0358  -1.9429  -1.9382  -1.9108  -1.8077  -1.7989  -1.7400  -1.7219
    -1.6448  -1.6340  -1.4559  -1.4512  -1.4396  -1.3640  -1.2633  -1.2597
    -1.1625  -1.0308  -1.0295  -0.9368  -0.8829  -0.8324  -0.7911  -0.6827
    -0.6381  -0.5844  -0.5844  -0.5827  -0.4497  -0.4352  -0.4291  -0.3063
    -0.2425  -0.2140  -0.1375  -0.0770  -0.0764   0.0113   0.1236   0.1296
     0.2338   0.3833   0.5028   0.5550   0.7264   0.7360   0.8985   0.9016
     0.9067   0.9664   0.9879   1.0657   1.0765   1.2471   1.2695   1.2735
     1.4426   1.4437   1.6396   1.6858   1.6927   1.7100   1.7530   1.8099
     1.9168   1.9582   1.9602   2.0799   2.0820   2.1083   2.1259   2.1854
     2.2415   2.2421   2.2429

          k = 0.1429-0.0328 0.0000 (251185 PWs)   bands (ev):

   -48.4998 -48.4998 -48.4998 -48.4998 -48.1281 -48.1281 -48.1280 -48.1280
   -48.0779 -48.0779 -48.0779 -48.0778 -48.0354 -48.0354 -48.0354 -48.0354
   -47.8809 -47.8808 -47.8808 -47.8808 -47.5030 -47.5023 -47.5009 -47.5009
   -47.5008 -47.5008 -47.5005 -47.5004 -47.4940 -47.4939 -47.4923 -47.4919
   -47.4861 -47.4861 -47.4844 -47.4840 -47.4808 -47.4802 -47.4773 -47.4766
   -47.4709 -47.4684 -47.4684 -47.4679 -47.4657 -47.4648 -47.4636 -47.4634
   -47.4552 -47.4552 -47.4551 -47.4551 -47.4538 -47.4538 -47.4531 -47.4525
   -47.4516 -47.4492 -47.4490 -47.4480 -47.4432 -47.4431 -47.4424 -47.4421
   -47.4381 -47.4381 -47.4360 -47.4360 -47.4322 -47.4322 -47.4295 -47.4295
   -47.4014 -47.4014 -47.4010 -47.4010  -4.3983  -4.1217  -3.6356  -3.5047
    -3.4676  -3.3247  -3.2240  -3.1880  -3.0462  -2.9703  -2.9356  -2.7933
    -2.7390  -2.6803  -2.6442  -2.5390  -2.5094  -2.3629  -2.2064  -2.2016
    -2.1152  -2.0864  -1.9963  -1.9826  -1.9783  -1.8309  -1.8271  -1.6107
    -1.5206  -1.3996  -1.3782  -1.3191  -1.2338  -1.1832  -1.1829  -1.0330
    -0.9548  -0.9524  -0.8301  -0.7529  -0.6894  -0.6387  -0.5447  -0.4900
    -0.4740  -0.4697  -0.4494  -0.3811  -0.3770  -0.3513  -0.3385  -0.2665
    -0.2305  -0.2062  -0.1923  -0.1483  -0.1279  -0.0473  -0.0289   0.0299
     0.0352   0.1035   0.2979   0.3399   0.4438   0.4952   0.5119   0.5451
     0.5734   0.6396   0.8469   0.8812   1.0432   1.1181   1.1241   1.2531
     1.2547   1.2862   1.4657   1.4805   1.6741   1.6980   1.7511   1.9043
     1.9859   2.0418   2.1258   2.1650   2.2024   2.2768   2.2786   2.3157
     2.3364   2.3871   2.4020

          k = 0.1429 0.1202 0.0000 (251201 PWs)   bands (ev):

   -48.4998 -48.4998 -48.4998 -48.4998 -48.1281 -48.1281 -48.1280 -48.1280
   -48.0779 -48.0779 -48.0779 -48.0778 -48.0354 -48.0354 -48.0354 -48.0354
   -47.8809 -47.8808 -47.8808 -47.8808 -47.5029 -47.5023 -47.5010 -47.5009
   -47.5008 -47.5007 -47.5005 -47.5005 -47.4940 -47.4939 -47.4923 -47.4919
   -47.4861 -47.4861 -47.4844 -47.4840 -47.4808 -47.4802 -47.4773 -47.4766
   -47.4709 -47.4684 -47.4684 -47.4680 -47.4657 -47.4648 -47.4636 -47.4633
   -47.4553 -47.4552 -47.4551 -47.4551 -47.4538 -47.4537 -47.4533 -47.4523
   -47.4516 -47.4491 -47.4490 -47.4480 -47.4432 -47.4431 -47.4424 -47.4421
   -47.4381 -47.4381 -47.4360 -47.4360 -47.4322 -47.4322 -47.4295 -47.4295
   -47.4014 -47.4014 -47.4010 -47.4010  -4.3825  -4.1060  -3.6439  -3.6203
    -3.4057  -3.3610  -3.1686  -3.1259  -3.1220  -2.9737  -2.8934  -2.8612
    -2.8409  -2.8252  -2.6249  -2.5749  -2.4003  -2.3439  -2.2479  -2.1024
[...]
     1.9753   2.0065   2.1381   2.1431   2.2437   2.2450   2.3265   2.3331
     2.4152   2.4672   2.5205

          k = 0.4286-0.5572 0.0000 (251292 PWs)   bands (ev):

   -48.4993 -48.4993 -48.4993 -48.4993 -48.1274 -48.1274 -48.1273 -48.1273
   -48.0781 -48.0781 -48.0781 -48.0781 -48.0349 -48.0348 -48.0348 -48.0348
   -47.8809 -47.8809 -47.8809 -47.8809 -47.5029 -47.5025 -47.5025 -47.5022
   -47.5013 -47.5012 -47.5011 -47.5011 -47.4938 -47.4936 -47.4933 -47.4931
   -47.4859 -47.4857 -47.4855 -47.4852 -47.4811 -47.4810 -47.4776 -47.4774
   -47.4705 -47.4700 -47.4690 -47.4689 -47.4646 -47.4643 -47.4642 -47.4639
   -47.4563 -47.4562 -47.4562 -47.4562 -47.4531 -47.4531 -47.4527 -47.4524
   -47.4502 -47.4494 -47.4487 -47.4485 -47.4435 -47.4433 -47.4431 -47.4429
   -47.4384 -47.4384 -47.4379 -47.4379 -47.4319 -47.4319 -47.4312 -47.4312
   -47.4016 -47.4015 -47.4015 -47.4014  -4.0522  -3.9091  -3.8380  -3.7753
    -3.6327  -3.6224  -3.5637  -3.3509  -3.2799  -3.1324  -3.0724  -2.8599
    -2.6042  -2.4544  -2.3860  -2.2529  -2.1891  -2.1748  -2.0152  -2.0121
    -1.9464  -1.7812  -1.7196  -1.6282  -1.6205  -1.5737  -1.5579  -1.5169
    -1.4639  -1.3794  -1.3443  -1.3279  -1.2777  -1.2524  -1.1967  -1.0857
    -1.0104  -1.0036  -0.9175  -0.8951  -0.8216  -0.7624  -0.7344  -0.7292
    -0.7081  -0.6891  -0.6462  -0.5953  -0.5090  -0.4561  -0.4558  -0.4397
    -0.3147  -0.3041  -0.2994  -0.2590  -0.2237  -0.1093  -0.0884  -0.0803
    -0.0638   0.0483   0.0495   0.1288   0.1304   0.2974   0.3364   0.4048
     0.4197   0.7083   0.7673   0.8017   0.8350   1.0672   1.0776   1.1793
     1.3541   1.4380   1.4616   1.6027   1.6164   1.7598   1.8310   1.8382
     1.8913   2.0684   2.1454   2.2191   2.2521   2.2983   2.3261   2.3479
     2.4246   2.4485   2.4918

          k = 0.4286-0.4042 0.0000 (251278 PWs)   bands (ev):

   -48.4993 -48.4993 -48.4993 -48.4993 -48.1274 -48.1274 -48.1273 -48.1273
   -48.0781 -48.0781 -48.0781 -48.0781 -48.0349 -48.0348 -48.0348 -48.0348
   -47.8809 -47.8809 -47.8809 -47.8809 -47.5029 -47.5025 -47.5025 -47.5022
   -47.5013 -47.5012 -47.5011 -47.5010 -47.4938 -47.4936 -47.4933 -47.4931
   -47.4859 -47.4857 -47.4855 -47.4852 -47.4811 -47.4810 -47.4776 -47.4774
   -47.4705 -47.4700 -47.4690 -47.4689 -47.4646 -47.4643 -47.4641 -47.4639
   -47.4563 -47.4562 -47.4562 -47.4562 -47.4531 -47.4530 -47.4527 -47.4524
   -47.4502 -47.4494 -47.4487 -47.4484 -47.4435 -47.4433 -47.4431 -47.4429
   -47.4384 -47.4384 -47.4379 -47.4379 -47.4319 -47.4319 -47.4312 -47.4312
   -47.4016 -47.4015 -47.4015 -47.4014  -4.0126  -4.0000  -3.8934  -3.7364
    -3.7215  -3.6176  -3.3823  -3.2427  -3.2367  -3.1251  -3.0957  -2.6683
    -2.6157  -2.5703  -2.4914  -2.4342  -2.3530  -2.1195  -1.9702  -1.9318
    -1.9026  -1.8617  -1.7655  -1.7461  -1.6999  -1.6374  -1.6178  -1.5664
    -1.5355  -1.4659  -1.3897  -1.2626  -1.2596  -1.2194  -1.1649  -1.1044
    -1.0651  -0.9532  -0.8566  -0.8260  -0.7774  -0.7376  -0.7185  -0.6879
    -0.6361  -0.5948  -0.4854  -0.4299  -0.4086  -0.3861  -0.3789  -0.3538
    -0.3344  -0.2525  -0.2191  -0.1854  -0.1656  -0.1463  -0.0905  -0.0350
    -0.0251   0.0275   0.0396   0.1276   0.1545   0.2988   0.3576   0.3673
     0.3845   0.5074   0.6335   0.7250   0.8349   0.9640   1.0643   1.0657
     1.1691   1.3522   1.4814   1.4953   1.6766   1.7808   1.7849   1.8225
     1.9793   2.0914   2.2352   2.2398   2.2562   2.2647   2.2991   2.3195
     2.3381   2.4518   2.4893

          k = 0.4286-0.2513 0.0000 (251170 PWs)   bands (ev):

   -48.4993 -48.4993 -48.4993 -48.4993 -48.1274 -48.1274 -48.1273 -48.1273
   -48.0781 -48.0781 -48.0781 -48.0781 -48.0349 -48.0348 -48.0348 -48.0348
   -47.8809 -47.8809 -47.8809 -47.8809 -47.5030 -47.5026 -47.5026 -47.5022
   -47.5013 -47.5012 -47.5011 -47.5010 -47.4938 -47.4936 -47.4933 -47.4931
   -47.4859 -47.4857 -47.4855 -47.4852 -47.4811 -47.4810 -47.4776 -47.4774
   -47.4705 -47.4700 -47.4690 -47.4688 -47.4646 -47.4643 -47.4641 -47.4639
   -47.4563 -47.4562 -47.4562 -47.4562 -47.4531 -47.4531 -47.4526 -47.4523
   -47.4502 -47.4494 -47.4487 -47.4485 -47.4435 -47.4433 -47.4431 -47.4429
   -47.4384 -47.4384 -47.4379 -47.4379 -47.4319 -47.4319 -47.4312 -47.4312
   -47.4016 -47.4015 -47.4015 -47.4014  -4.1313  -4.0356  -3.8540  -3.7569
    -3.6791  -3.4218  -3.3415  -3.2662  -3.0859  -2.9915  -2.9253  -2.8079
    -2.7149  -2.6811  -2.5955  -2.5596  -2.3163  -2.3087  -2.2404  -2.2110
    -1.8609  -1.8275  -1.8116  -1.7980  -1.7452  -1.6269  -1.5142  -1.5107
    -1.5027  -1.4526  -1.4374  -1.2348  -1.2079  -1.1809  -1.0201  -0.9888
    -0.9851  -0.9562  -0.9452  -0.9267  -0.8676  -0.6937  -0.6559  -0.6495
    -0.6058  -0.4766  -0.3843  -0.3752  -0.3376  -0.2985  -0.2513  -0.2097
    -0.1518  -0.1281  -0.1068  -0.0975  -0.0892  -0.0278  -0.0266  -0.0199
     0.0796   0.1109   0.1153   0.1281   0.1567   0.2477   0.2867   0.3116
     0.3490   0.4020   0.4511   0.5383   0.6089   0.7383   0.9400   1.0240
     1.2042   1.3062   1.3319   1.4373   1.4445   1.6728   1.7483   1.9074
     2.0221   2.0295   2.1645   2.2212   2.2274   2.2523   2.3099   2.3467
     2.3530   2.4272   2.4334

     the Fermi energy is    -0.9491 ev

!    total energy              =   -1142.86450564 Ry
     total all-electron energy =     -1142.865123 Ry
     estimated scf accuracy    <          5.5E-13 Ry
     smearing contrib. (-TS)   =       0.00036083 Ry
     internal energy E=F+TS    =   -1142.86486647 Ry

     The total energy is F=E-TS. E is the sum of the following terms:
     one-electron contribution =   -4988.57559193 Ry
     hartree contribution      =    2385.73259032 Ry
     xc contribution           =    -272.50204141 Ry
     ewald contribution        =    1725.77968144 Ry
     one-center paw contrib.   =       6.70049512 Ry

     convergence has been achieved in  12 iterations

     Forces acting on atoms (cartesian axes, Ry/au):

     atom    1 type  1   force =     0.00001268    0.00017783   -0.00005465
     atom    2 type  1   force =    -0.00002183   -0.00011334    0.00007762
     atom    3 type  1   force =     0.00003372    0.00012480    0.00005940
     atom    4 type  1   force =     0.00004387    0.00001292    0.00008073
     atom    5 type  1   force =     0.00003619    0.00006654   -0.00022249
     atom    6 type  1   force =    -0.00002249   -0.00009878    0.00004173
     atom    7 type  1   force =    -0.00003526    0.00006021    0.00013524
     atom    8 type  1   force =    -0.00006774    0.00001579    0.00037842
     atom    9 type  1   force =    -0.00007098   -0.00008548    0.00012264
     atom   10 type  1   force =    -0.00002731   -0.00012516    0.00003511
     atom   11 type  1   force =    -0.00000464   -0.00001303   -0.00002920
     atom   12 type  1   force =     0.00003269    0.00013349    0.00001079
     atom   13 type  1   force =     0.00003895    0.00006255   -0.00032908
     atom   14 type  1   force =     0.00007345   -0.00007379   -0.00030189
     atom   15 type  1   force =     0.00001621    0.00007394   -0.00017388
     atom   16 type  1   force =     0.00001503    0.00005855    0.00007293
     atom   17 type  1   force =    -0.00002246   -0.00005688    0.00008590
     atom   18 type  1   force =    -0.00001688   -0.00011137   -0.00018673
     atom   19 type  1   force =    -0.00001300   -0.00010102   -0.00002481
     atom   20 type  1   force =     0.00002236    0.00005711   -0.00008576
     atom   21 type  1   force =    -0.00001501   -0.00005852   -0.00007292
     atom   22 type  1   force =    -0.00001622   -0.00007396    0.00017393
     atom   23 type  1   force =    -0.00007349    0.00007365    0.00030176
     atom   24 type  1   force =    -0.00003901   -0.00006247    0.00032904
     atom   25 type  1   force =    -0.00003269   -0.00013340   -0.00001065
     atom   26 type  1   force =     0.00000474    0.00001279    0.00002941
     atom   27 type  1   force =     0.00002734    0.00012533   -0.00003512
     atom   28 type  1   force =     0.00007102    0.00008530   -0.00012279
     atom   29 type  1   force =     0.00006783   -0.00001607   -0.00037829
     atom   30 type  1   force =     0.00003529   -0.00006031   -0.00013523
     atom   31 type  1   force =     0.00002237    0.00009859   -0.00004170
     atom   32 type  1   force =    -0.00003615   -0.00006656    0.00022254
     atom   33 type  1   force =    -0.00004389   -0.00001288   -0.00008058
     atom   34 type  1   force =    -0.00003375   -0.00012472   -0.00005977
     atom   35 type  1   force =     0.00002196    0.00011340   -0.00007759
     atom   36 type  1   force =    -0.00001261   -0.00017773    0.00005440
     atom   37 type  1   force =     0.00001297    0.00010098    0.00002506
     atom   38 type  1   force =     0.00001682    0.00011133    0.00018671
     atom   39 type  1   force =     0.00001267    0.00017779   -0.00005477
     atom   40 type  1   force =    -0.00002188   -0.00011344    0.00007763
     atom   41 type  1   force =     0.00003361    0.00012481    0.00005948
     atom   42 type  1   force =     0.00004376    0.00001276    0.00008062
     atom   43 type  1   force =     0.00003621    0.00006661   -0.00022253
     atom   44 type  1   force =    -0.00002249   -0.00009854    0.00004164
     atom   45 type  1   force =    -0.00003526    0.00006030    0.00013533
     atom   46 type  1   force =    -0.00006778    0.00001589    0.00037845
     atom   47 type  1   force =    -0.00007092   -0.00008540    0.00012273
     atom   48 type  1   force =    -0.00002743   -0.00012516    0.00003498
     atom   49 type  1   force =    -0.00000471   -0.00001296   -0.00002924
     atom   50 type  1   force =     0.00003258    0.00013347    0.00001080
     atom   51 type  1   force =     0.00003887    0.00006255   -0.00032905
     atom   52 type  1   force =     0.00007357   -0.00007376   -0.00030196
     atom   53 type  1   force =     0.00001620    0.00007426   -0.00017402
     atom   54 type  1   force =     0.00001503    0.00005871    0.00007292
     atom   55 type  1   force =    -0.00002241   -0.00005726    0.00008585
     atom   56 type  1   force =    -0.00001682   -0.00011131   -0.00018671
     atom   57 type  1   force =    -0.00001304   -0.00010089   -0.00002490
     atom   58 type  1   force =     0.00002243    0.00005718   -0.00008575
     atom   59 type  1   force =    -0.00001484   -0.00005867   -0.00007294
     atom   60 type  1   force =    -0.00001626   -0.00007401    0.00017401
     atom   61 type  1   force =    -0.00007360    0.00007362    0.00030170
     atom   62 type  1   force =    -0.00003904   -0.00006263    0.00032901
     atom   63 type  1   force =    -0.00003268   -0.00013337   -0.00001073
     atom   64 type  1   force =     0.00000479    0.00001287    0.00002928
     atom   65 type  1   force =     0.00002730    0.00012519   -0.00003506
     atom   66 type  1   force =     0.00007107    0.00008544   -0.00012278
     atom   67 type  1   force =     0.00006782   -0.00001611   -0.00037842
     atom   68 type  1   force =     0.00003521   -0.00006024   -0.00013521
     atom   69 type  1   force =     0.00002251    0.00009862   -0.00004167
     atom   70 type  1   force =    -0.00003600   -0.00006659    0.00022252
     atom   71 type  1   force =    -0.00004386   -0.00001283   -0.00008068
     atom   72 type  1   force =    -0.00003372   -0.00012477   -0.00005969
     atom   73 type  1   force =     0.00002186    0.00011353   -0.00007744
     atom   74 type  1   force =    -0.00001255   -0.00017767    0.00005462
     atom   75 type  1   force =     0.00001292    0.00010098    0.00002514
     atom   76 type  1   force =     0.00001686    0.00011142    0.00018661

     Total force =     0.001693     Total SCF correction =     0.000005
     Energy error            =      8.9E-06 Ry
     Gradient error          =      3.8E-04 Ry/Bohr

     bfgs converged in   5 scf cycles and   4 bfgs steps
     (criteria: energy <  1.0E-05 Ry, force <  3.9E-04 Ry/Bohr)

     End of BFGS Geometry Optimization

     Final energy             =   -1142.8645056364 Ry

     File ./pwscf.bfgs deleted, as requested
Begin final coordinates

ATOMIC_POSITIONS (angstrom)
Li              -0.0016772003       -0.5878801664       22.1495790630
Li               2.4301072562        7.3562349547        8.1163796292
Li               2.4296395290        3.7774014279        9.0108795660
Li               2.4303651629        0.6901587615       10.0513979919
Li               4.8610986265        7.8947641148       10.2883449661
Li               4.8643280821        4.2449754707       11.0503622058
Li               4.8663462484        1.1168362775       11.9708835992
Li               2.4400003531        8.3758639621       12.6910733146
Li               2.4371762213        5.0582109180       13.6179526490
Li               2.4333468070        1.6082704057       14.4795909504
Li               4.8557403104        8.8759684055       15.1983863817
Li               4.8518190675        5.5882345470       15.9371909634
Li               4.8488904375        2.2915031143       16.9127108227
Li               2.4180171411        9.5443889580       17.4269733223
Li               2.4209836374        6.0818480521       18.0996902686
Li               2.4240714242        2.8190299306       19.1689262538
Li               4.8561326593        9.9495895597       19.9974997738
Li               4.8575779866        7.0076461016       21.0266810491
Li               4.8573792634        3.3211697974       21.4647018518
Li               2.4309352796        9.5543669025        9.9494949908
Li               2.4339733771        6.0970640290       10.7780716413
Li               2.4370614789        2.8342498399       11.8473066672
Li               4.8690520678        9.9595727117       12.5200230686
Li               4.8671982254        6.6245879838       13.0342873347
Li               4.8642709489        3.3278576441       14.0098025258
Li               4.8603470304        0.0401273193       14.7486062861
Li               2.4246962228        7.3078216909       15.4674058673
Li               2.4208687765        3.8578829031       16.3290489082
Li               2.4180445495        0.5402320277       17.2559217211
Li               4.8497443989        7.7992607950       17.9761091672
Li               4.8517619644        4.6711222834       18.8966313764
Li               4.8549882187        1.0213287489       19.6586521539
Li               2.4276782301        8.2259381845       19.8955985541
Li               2.4284019284        5.1386924694       20.9361228349
Li               2.4279345460        1.5598589215       21.8306181014
Li               4.8597216775        9.5039765703        7.7974211465
Li               4.8587084495        5.5949252937        8.4822884798
Li               4.8585101416        1.9084503665        8.9203156785
Li               4.8563685244       -0.5878769990       22.1495822081
Li               7.2881518299        7.3562366147        8.1163788206
Li               7.2876887947        3.7774029820        9.0108763845
Li               7.2884100200        0.6901590681       10.0513985915
Li               9.7191434043        7.8947623971       10.2883459398
Li               9.7223721062        4.2449723469       11.0503645322
Li               9.7243907355        1.1168347590       11.9708836629
Li               7.2980448616        8.3758627531       12.6910726693
Li               7.2952203431        5.0582100967       13.6179513850
Li               7.2913952742        1.6082705723       14.4795921937
Li               9.7137864173        8.8759674548       15.1983891382
Li               9.7098636426        5.5882340661       15.9371923528
Li               9.7069374969        2.2915035006       16.9127094202
Li               7.2760585937        9.5443884645       17.4269756353
Li               7.2790296191        6.0818416443       18.0996919780
Li               7.2821146457        2.8190265704       19.1689268249
Li               9.7141750721        9.9495952150       19.9975002859
Li               9.7156234399        7.0076456110       21.0266812626
Li               9.7154239473        3.3211678856       21.4647068477
Li               7.2889795987        9.5543669838        9.9494952526
Li               7.2920138909        6.0970666883       10.7780707832
Li               7.2951053697        2.8342506472       11.8473044042
Li               9.7270976842        9.9595733453       12.5200254479
Li               9.7252434739        6.6245910600       13.0342891713
Li               9.7223150653        3.3278580291       14.0098042615
Li               9.7183903668        0.0401249701       14.7486080087
Li               7.2827411883        7.3078239179       15.4674058872
Li               7.2789112650        3.8578786004       16.3290489062
Li               7.2760893519        0.5402317482       17.2559237777
Li               9.7077882215        7.7992610757       17.9761105987
Li               9.7098054388        4.6711191774       18.8966330661
Li               9.7130325817        1.0213302125       19.6586518288
Li               7.2857239052        8.2259350323       19.8956020034
Li               7.2864465381        5.1386920294       20.9361218065
Li               7.2859808531        1.5598576428       21.8306168072
Li               9.7177631187        9.5039735719        7.7974173266
Li               9.7167540636        5.5949264142        8.4822874721
Li               9.7165534703        1.9084463723        8.9203179703
End final coordinates


     Message from routine punch:
     Nothing written, as per user request (disk_io='none')
 
     init_run     :     15.06s CPU     15.44s WALL (       1 calls)
     electrons    :   1023.76s CPU   1036.99s WALL (       5 calls)
     update_pot   :      0.63s CPU      0.65s WALL (       4 calls)
     forces       :     14.34s CPU     14.71s WALL (       5 calls)

     Called by init_run:
     wfcinit      :      8.35s CPU      8.55s WALL (       1 calls)
     potinit      :      0.45s CPU      0.47s WALL (       1 calls)
     hinit0       :      0.04s CPU      0.07s WALL (       1 calls)

     Called by electrons:
     c_bands      :    889.40s CPU    898.38s WALL (      62 calls)
     sum_band     :    106.24s CPU    108.19s WALL (      62 calls)
     v_of_rho     :      6.62s CPU      6.92s WALL (      63 calls)
     newd         :      3.06s CPU      3.90s WALL (      63 calls)
     PAW_pot      :      2.41s CPU      2.45s WALL (      67 calls)
     mix_rho      :     13.19s CPU     13.47s WALL (      62 calls)

     Called by c_bands:
     init_us_2    :     20.13s CPU     20.35s WALL (    1072 calls)
     cegterg      :    686.49s CPU    693.93s WALL (     496 calls)

     Called by *egterg:
     cdiaghg      :     50.51s CPU     51.25s WALL (    2476 calls)
     h_psi        :    391.00s CPU    394.93s WALL (    2548 calls)
     s_psi        :     74.06s CPU     74.61s WALL (    2548 calls)
     g_psi        :      1.13s CPU      1.13s WALL (    2044 calls)

     Called by h_psi:
     h_psi:calbec :     89.43s CPU     90.18s WALL (    2548 calls)
     vloc_psi     :    216.85s CPU    219.22s WALL (    2548 calls)
                                        0.00s GPU  (    2548 calls)
     add_vuspsi   :     81.13s CPU     81.66s WALL (    2548 calls)

     General routines
     calbec       :    135.79s CPU    136.81s WALL (    3236 calls)
     fft          :      5.45s CPU      5.52s WALL (     827 calls)
     ffts         :      6.85s CPU      6.90s WALL (    6362 calls)
     fftw         :    243.07s CPU    245.80s WALL (  487382 calls)
     interpolate  :      0.50s CPU      0.51s WALL (      63 calls)
 
     Parallel routines
 
     PWSCF        :  17m39.59s CPU  17m54.63s WALL

 
   This run was terminated on:   0:53:48  23Jan2025            

=------------------------------------------------------------------------------=
   JOB DONE.
=------------------------------------------------------------------------------=
