
     Program PWSCF v.7.4 starts on 21Jan2025 at 10:58:19 

     This program is part of the open-source Quantum ESPRESSO suite
     for quantum simulation of materials; please cite
         "P. Giannozzi et al., J. Phys.:Condens. Matter 21 395502 (2009);
         "P. Giannozzi et al., J. Phys.:Condens. Matter 29 465901 (2017);
         "P. Giannozzi et al., J. Chem. Phys. 152 154105 (2020);
          URL http://www.quantum-espresso.org", 
     in publications or presentations arising from this work. More details at
     http://www.quantum-espresso.org/quote

     Parallel version (MPI & OpenMP), running on     512 processor cores
     Number of MPI processes:               512
     Threads/MPI process:                     1

     MPI processes distributed on     4 nodes
     233121 MiB available memory on the printing compute node when the environment starts

     Reading input from espresso.pwi
Warning: card &CELL ignored
Warning: card    PRESS_CONV_THR   = 0.1 ignored
Warning: card    CELL_DOFREE      = 'ALL' ignored
Warning: card / ignored
Warning: card &FCP ignored
Warning: card / ignored
Warning: card &RISM ignored
Warning: card / ignored

     Current dimensions of program PWSCF are:
     Max number of different atomic species (ntypx) = 10
     Max number of k-points (npk) =  40000
     Max angular momentum in pseudopotentials (lmaxx) =  4

     IMPORTANT: XC functional enforced from input :
     Exchange-correlation= PBE
                           (   1   4   3   4   0   0   0)
     Any further DFT definition will be discarded
     Please, verify this is what you really want


     Reading input from environ.in:
     * using ionic solvent mode
     * setting boundary derivatives method to SSCS default
     * setting electrolyte-boundary derivatives method to SSCS default

Environ Warning (1001): card EOF ignored

     

     K-points division:     npool     =       2
     R & G space division:  proc/nbgrp/npool/nimage =     256
     Subspace diagonalization in iterative solution of the eigenvalue problem:
     one sub-group per band group will be used
     ELPA distributed-memory algorithm (size of sub-group:  2*  2 procs)


     Parallelization info
     --------------------
     sticks:   dense  smooth     PW     G-vecs:    dense   smooth      PW
     Min          86      34      9                52542    13274    1767
     Max          87      35     10                52593    13321    1811
     Sum       22119    8865   2329             13455463  3404289  459339

     Using Slab Decomposition



     bravais-lattice index     =           12
     lattice parameter (alat)  =      18.3607  a.u.
     unit-cell volume          =   35212.2554 (a.u.)^3
     number of atoms/cell      =           68
     number of atomic types    =            1
     number of electrons       =       204.00
     number of Kohn-Sham states=          153
     kinetic-energy cutoff     =      80.0000  Ry
     charge density cutoff     =     800.0000  Ry
     scf convergence threshold =      1.0E-16
     mixing beta               =       0.2000
     number of iterations used =            8  local-TF  mixing
     Exchange-correlation= PBE
                           (   1   4   3   4   0   0   0)

     ================================================================================

                                  Environ Setup Summary

     ================================================================================

     Please cite

          O. Andreussi, I. Dabo and N. Marzari, J. Chem. Phys. 136, 064102 (2012)
          F. Nattino, M. Truscott, N. Marzari, and O. Andreussi, J. Chem. Phys. 150, 041722 (2019)

     in publications or presentations arising from this work.

     ================================================================================

     Parameters
     ==========

     compensation onset threshold      =               0.1000E+00
     static permittivity               =                    89.90
     surface tension in input (dyn/cm) =                    37.30
     surface tension in internal units =               0.4792E-04

     Solvent Boundary
     ================

     solvent mode                      =                    ionic
     derivatives method                =                   lowmem
     electrolyte derivatives method    =                   lowmem
     numerical core for derivatives    =                      fft
     switching function adopted        =                     SCCS
     density limit for vacuum region   =               0.5000E-02
     density limit for bulk solvent    =               0.1000E-03
     soft-sphere radius mode           =                    bondi
     soft-sphere softness              =                     0.50
     alpha                             =                     1.32

     Electrostatic Setup
     ===================

     electrostatic problem to solve    =                    modpb
     numerical solver adopted          =                   newton
     type of auxiliary density adopted =                     none
     numerical core for poisson        =                      fft
     adopting a nested solver scheme
     inner solver                      =                       cg
     inner core                        =                      fft
     type of pbc corrections           =                parabolic
     numerical core for corrections    =                      1da

     ================================================================================


     >>>>> Grand-Canonical SCF is activated <<<<<
     Initial Total Charge  =     0.000000 e
     Target Fermi Energy   =    -5.404000 eV
     Thr. of Fermi Energy  =     0.001000 eV
     Wave-shift of Kerker  =     0.400000 bohr^-1
     Wave-shift of Hartree =     1.500000 bohr^-1
     Mixing Rate of Fermi  =     0.050000

     celldm(1)=  18.360747  celldm(2)=   1.060660  celldm(3)=   5.518976
     celldm(4)=  -0.235702  celldm(5)=   0.000000  celldm(6)=   0.000000

     crystal axes: (cart. coord. in units of alat)
               a(1) = (   1.000000   0.000000   0.000000 )  
               a(2) = (  -0.250000   1.030776   0.000000 )  
               a(3) = (   0.000000   0.000000   5.518976 )  

     reciprocal axes: (cart. coord. in units 2 pi/alat)
               b(1) = (  1.000000  0.242536 -0.000000 )  
               b(2) = (  0.000000  0.970143  0.000000 )  
               b(3) = (  0.000000 -0.000000  0.181193 )  


     PseudoPot. # 1 for Li read from file:
     /work/e89/e89/ba3g18/Repos/Pseudopotentials/Pslibrary/Li.pbe-sl-kjpaw_psl.1.0.0.UPF
     MD5 check sum: 3f4d2cafebb47c6c3aa8ed472e6f074d
     Pseudo is Projector augmented-wave, Zval =  3.0
     Generated using 'atomic' code by A. Dal Corso  v.7.4
     Shape of augmentation charge: PSQ
     Using radial grid of 1017 points,  4 beta functions with: 
                l(1) =   0
                l(2) =   0
                l(3) =   1
                l(4) =   1
     Q(r) pseudized with 0 coefficients 


     atomic species   valence    mass     pseudopotential
     Li                3.00     6.94000     Li( 1.00)

     No symmetry found


                                    s                        frac. trans.

      isym =  1     identity                                     

 cryst.   s( 1) = (     1          0          0      )
                  (     0          1          0      )
                  (     0          0          1      )

 cart.    s( 1) = (  1.0000000  0.0000000  0.0000000 )
                  (  0.0000000  1.0000000  0.0000000 )
                  (  0.0000000  0.0000000  1.0000000 )


     point group C_1 (1)    
     there are  1 classes
     the character table:

       E    
A      1.00

     the symmetry operations in each class and the name of the first element:

     E        1
          identity                                               

   Cartesian axes

     site n.     atom                  positions (alat units)
         1        Li     tau(   1) = (  -0.0001126   0.0792040   1.9881847  )
         2        Li     tau(   2) = (   0.0001645   0.5960521   3.4890043  )
         3        Li     tau(   3) = (   0.2501438   0.8051725   3.2620419  )
         4        Li     tau(   4) = (   0.2502379   0.2003488   3.2952805  )
         5        Li     tau(   5) = (   0.0001954   0.3673348   3.1729652  )
         6        Li     tau(   6) = (   0.2500480   0.5569980   2.9909563  )
         7        Li     tau(   7) = (   0.2499864   0.9073143   2.6540767  )
         8        Li     tau(   8) = (   0.0001768   0.9695333   3.1077871  )
         9        Li     tau(   9) = (   0.0000455   0.1239448   2.9075167  )
        10        Li     tau(  10) = (   0.2499499   0.3076053   2.7162117  )
        11        Li     tau(  11) = (  -0.0000845   0.4788726   2.5590860  )
        12        Li     tau(  12) = (   0.2498561   0.6645527   2.3695853  )
        13        Li     tau(  13) = (   0.0000386   0.7254629   2.8345053  )
        14        Li     tau(  14) = (   0.2499128   0.0483687   2.5088487  )
        15        Li     tau(  15) = (  -0.0002394   0.2327346   2.3135337  )
        16        Li     tau(  16) = (   0.2497759   0.3844019   2.0826528  )
        17        Li     tau(  17) = (  -0.0002004   0.8342519   2.2363365  )
        18        Li     tau(  18) = (   0.0002178   0.0703856   3.2054044  )
        19        Li     tau(  19) = (   0.0001481   0.6693270   3.1493599  )
        20        Li     tau(  20) = (   0.2500810   0.8551177   2.9599069  )
        21        Li     tau(  21) = (   0.2500871   0.2548493   3.0101668  )
        22        Li     tau(  22) = (   0.0000053   0.4267367   2.8650073  )
        23        Li     tau(  23) = (   0.2499630   0.6086053   2.6845970  )
        24        Li     tau(  24) = (   0.2497970   0.9665631   2.3459840  )
        25        Li     tau(  25) = (   0.0000480   1.0264051   2.8028927  )
        26        Li     tau(  26) = (  -0.0000539   0.1792693   2.6115465  )
        27        Li     tau(  27) = (   0.2498232   0.3643401   2.4112155  )
        28        Li     tau(  28) = (  -0.0001473   0.5287476   2.2567999  )
        29        Li     tau(  29) = (   0.2498757   0.7378394   2.0299456  )
        30        Li     tau(  30) = (  -0.0000482   0.7770302   2.5280253  )
        31        Li     tau(  31) = (   0.2497603   0.1027625   2.2236749  )
        32        Li     tau(  32) = (   0.0002265   0.2239423   3.5307435  )
        33        Li     tau(  33) = (   0.2502037   0.4996510   3.2824943  )
        34        Li     tau(  34) = (   0.0002138   0.9494809   3.4363198  )
        35        Li     tau(  35) = (   0.4997142   0.0792001   1.9881805  )
        36        Li     tau(  36) = (   0.5002144   0.5960460   3.4890265  )
        37        Li     tau(  37) = (   0.7501562   0.8051753   3.2620389  )
        38        Li     tau(  38) = (   0.7502397   0.2003646   3.2953166  )
        39        Li     tau(  39) = (   0.5001845   0.3673364   3.1729584  )
        40        Li     tau(  40) = (   0.7500414   0.5569996   2.9909229  )
        41        Li     tau(  41) = (   0.7500057   0.9073131   2.6540799  )
        42        Li     tau(  42) = (   0.5001772   0.9695388   3.1077719  )
        43        Li     tau(  43) = (   0.5000561   0.1239467   2.9075142  )
        44        Li     tau(  44) = (   0.7499524   0.3076100   2.7162152  )
        45        Li     tau(  45) = (   0.4999159   0.4788750   2.5590799  )
        46        Li     tau(  46) = (   0.7498436   0.6645489   2.3695701  )
        47        Li     tau(  47) = (   0.5000442   0.7254622   2.8345483  )
        48        Li     tau(  48) = (   0.7499112   0.0483850   2.5087605  )
        49        Li     tau(  49) = (   0.4997969   0.2327268   2.3135337  )
        50        Li     tau(  50) = (   0.7497867   0.3844382   2.0826199  )
        51        Li     tau(  51) = (   0.4998019   0.8342140   2.2364568  )
        52        Li     tau(  52) = (   0.5002289   0.0703867   3.2054003  )
        53        Li     tau(  53) = (   0.5001512   0.6693344   3.1493863  )
        54        Li     tau(  54) = (   0.7500884   0.8551191   2.9599068  )
        55        Li     tau(  55) = (   0.7500877   0.2548503   3.0101889  )
        56        Li     tau(  56) = (   0.5000007   0.4267369   2.8650012  )
        57        Li     tau(  57) = (   0.7499543   0.6086049   2.6845757  )
        58        Li     tau(  58) = (   0.7498241   0.9665641   2.3459890  )
        59        Li     tau(  59) = (   0.5000468   1.0264065   2.8028448  )
        60        Li     tau(  60) = (   0.4999510   0.1792743   2.6115457  )
        61        Li     tau(  61) = (   0.7498248   0.3643392   2.4111970  )
        62        Li     tau(  62) = (   0.4998470   0.5287279   2.2567936  )
        63        Li     tau(  63) = (   0.7497431   0.7378560   2.0299412  )
        64        Li     tau(  64) = (   0.4999570   0.7770341   2.5281097  )
        65        Li     tau(  65) = (   0.7497651   0.1027121   2.2235521  )
        66        Li     tau(  66) = (   0.5001724   0.2239378   3.5307370  )
        67        Li     tau(  67) = (   0.7501950   0.4996632   3.2824493  )
        68        Li     tau(  68) = (   0.5002233   0.9494625   3.4363159  )

   Crystallographic axes

     site n.     atom                  positions (cryst. coord.)
         1        Li     tau(   1) = (  0.0190972  0.0768392  0.3602452  )
         2        Li     tau(   2) = (  0.1447285  0.5782557  0.6321833  )
         3        Li     tau(   3) = (  0.4454269  0.7811323  0.5910593  )
         4        Li     tau(   4) = (  0.2988297  0.1943669  0.5970819  )
         5        Li     tau(   5) = (  0.0892872  0.3563672  0.5749192  )
         6        Li     tau(   6) = (  0.3851399  0.5403677  0.5419404  )
         7        Li     tau(   7) = (  0.4700425  0.8802245  0.4809002  )
         8        Li     tau(   8) = (  0.2353233  0.9405859  0.5631094  )
         9        Li     tau(   9) = (  0.0301066  0.1202442  0.5268218  )
        10        Li     tau(  10) = (  0.3245552  0.2984211  0.4921586  )
        11        Li     tau(  11) = (  0.1160592  0.4645749  0.4636886  )
        12        Li     tau(  12) = (  0.4110338  0.6447111  0.4293524  )
        13        Li     tau(  13) = (  0.1759893  0.7038027  0.5135926  )
        14        Li     tau(  14) = (  0.2616439  0.0469246  0.4545859  )
        15        Li     tau(  15) = (  0.0562070  0.2257858  0.4191962  )
        16        Li     tau(  16) = (  0.3430071  0.3729248  0.3773622  )
        17        Li     tau(  17) = (  0.2021355  0.8093435  0.4052086  )
        18        Li     tau(  18) = (  0.0172888  0.0682841  0.5807969  )
        19        Li     tau(  19) = (  0.1624838  0.6493428  0.5706421  )
        20        Li     tau(  20) = (  0.4574776  0.8295864  0.5363145  )
        21        Li     tau(  21) = (  0.3118972  0.2472402  0.5454213  )
        22        Li     tau(  22) = (  0.1035041  0.4139956  0.5191194  )
        23        Li     tau(  23) = (  0.3975715  0.5904341  0.4864303  )
        24        Li     tau(  24) = (  0.4842231  0.9377043  0.4250760  )
        25        Li     tau(  25) = (  0.2489879  0.9957596  0.5078646  )
        26        Li     tau(  26) = (  0.0434253  0.1739168  0.4731940  )
        27        Li     tau(  27) = (  0.3381887  0.3534620  0.4368954  )
        28        Li     tau(  28) = (  0.1280928  0.5129607  0.4089164  )
        29        Li     tau(  29) = (  0.4288281  0.7158097  0.3678120  )
        30        Li     tau(  30) = (  0.1884094  0.7538303  0.4580606  )
        31        Li     tau(  31) = (  0.2746839  0.0996944  0.4029144  )
        32        Li     tau(  32) = (  0.0545405  0.2172560  0.6397461  )
        33        Li     tau(  33) = (  0.3713869  0.4847328  0.5947651  )
        34        Li     tau(  34) = (  0.2304969  0.9211322  0.6226372  )
        35        Li     tau(  35) = (  0.5189230  0.0768354  0.3602445  )
        36        Li     tau(  36) = (  0.6447768  0.5782498  0.6321873  )
        37        Li     tau(  37) = (  0.9454399  0.7811350  0.5910587  )
        38        Li     tau(  38) = (  0.7988352  0.1943823  0.5970884  )
        39        Li     tau(  39) = (  0.5892767  0.3563688  0.5749180  )
        40        Li     tau(  40) = (  0.8851337  0.5403692  0.5419344  )
        41        Li     tau(  41) = (  0.9700615  0.8802234  0.4809008  )
        42        Li     tau(  42) = (  0.7353250  0.9405912  0.5631066  )
        43        Li     tau(  43) = (  0.5301176  0.1202460  0.5268213  )
        44        Li     tau(  44) = (  0.8245588  0.2984256  0.4921593  )
        45        Li     tau(  45) = (  0.6160602  0.4645771  0.4636874  )
        46        Li     tau(  46) = (  0.9110205  0.6447074  0.4293496  )
        47        Li     tau(  47) = (  0.6759947  0.7038020  0.5136004  )
        48        Li     tau(  48) = (  0.7616463  0.0469403  0.4545699  )
        49        Li     tau(  49) = (  0.5562415  0.2257783  0.4191962  )
        50        Li     tau(  50) = (  0.8430267  0.3729600  0.3773562  )
        51        Li     tau(  51) = (  0.7021286  0.8093068  0.4052304  )
        52        Li     tau(  52) = (  0.5173002  0.0682852  0.5807962  )
        53        Li     tau(  53) = (  0.6624887  0.6493500  0.5706469  )
        54        Li     tau(  54) = (  0.9574854  0.8295877  0.5363145  )
        55        Li     tau(  55) = (  0.8118980  0.2472412  0.5454253  )
        56        Li     tau(  56) = (  0.6034996  0.4139958  0.5191183  )
        57        Li     tau(  57) = (  0.8975627  0.5904337  0.4864264  )
        58        Li     tau(  58) = (  0.9842504  0.9377053  0.4250769  )
        59        Li     tau(  59) = (  0.7489870  0.9957609  0.5078560  )
        60        Li     tau(  60) = (  0.5434314  0.1739217  0.4731939  )
        61        Li     tau(  61) = (  0.8381901  0.3534611  0.4368921  )
        62        Li     tau(  62) = (  0.6280824  0.5129416  0.4089153  )
        63        Li     tau(  63) = (  0.9286995  0.7158257  0.3678112  )
        64        Li     tau(  64) = (  0.6884155  0.7538341  0.4580759  )
        65        Li     tau(  65) = (  0.7746765  0.0996454  0.4028921  )
        66        Li     tau(  66) = (  0.5544853  0.2172517  0.6397450  )
        67        Li     tau(  67) = (  0.8713812  0.4847447  0.5947570  )
        68        Li     tau(  68) = (  0.7305019  0.9211142  0.6226365  )

     number of k points=    25  Marzari-Vanderbilt smearing, width (Ry)=  0.0100
                       cart. coord. in units 2pi/alat
        k(    1) = (   0.0000000   0.0000000   0.0000000), wk =   0.0408163
        k(    2) = (   0.0000000   0.1385918   0.0000000), wk =   0.0816327
        k(    3) = (   0.0000000   0.2771837   0.0000000), wk =   0.0816327
        k(    4) = (   0.0000000   0.4157755   0.0000000), wk =   0.0816327
        k(    5) = (   0.1428571   0.0346480   0.0000000), wk =   0.0816327
        k(    6) = (   0.1428571   0.1732398   0.0000000), wk =   0.0816327
        k(    7) = (   0.1428571   0.3118316   0.0000000), wk =   0.0816327
        k(    8) = (   0.1428571   0.4504235   0.0000000), wk =   0.0816327
        k(    9) = (   0.1428571  -0.3811276   0.0000000), wk =   0.0816327
        k(   10) = (   0.1428571  -0.2425357   0.0000000), wk =   0.0816327
        k(   11) = (   0.1428571  -0.1039439   0.0000000), wk =   0.0816327
        k(   12) = (   0.2857143   0.0692959   0.0000000), wk =   0.0816327
        k(   13) = (   0.2857143   0.2078878   0.0000000), wk =   0.0816327
        k(   14) = (   0.2857143   0.3464796   0.0000000), wk =   0.0816327
        k(   15) = (   0.2857143   0.4850714   0.0000000), wk =   0.0816327
        k(   16) = (   0.2857143  -0.3464796   0.0000000), wk =   0.0816327
        k(   17) = (   0.2857143  -0.2078878   0.0000000), wk =   0.0816327
        k(   18) = (   0.2857143  -0.0692959   0.0000000), wk =   0.0816327
        k(   19) = (   0.4285714   0.1039439   0.0000000), wk =   0.0816327
        k(   20) = (   0.4285714   0.2425357   0.0000000), wk =   0.0816327
        k(   21) = (   0.4285714   0.3811276   0.0000000), wk =   0.0816327
        k(   22) = (   0.4285714   0.5197194   0.0000000), wk =   0.0816327
        k(   23) = (   0.4285714  -0.3118316   0.0000000), wk =   0.0816327
        k(   24) = (   0.4285714  -0.1732398   0.0000000), wk =   0.0816327
        k(   25) = (   0.4285714  -0.0346480   0.0000000), wk =   0.0816327

                       cryst. coord.
        k(    1) = (   0.0000000   0.0000000   0.0000000), wk =   0.0408163
        k(    2) = (   0.0000000   0.1428571   0.0000000), wk =   0.0816327
        k(    3) = (   0.0000000   0.2857143   0.0000000), wk =   0.0816327
        k(    4) = (   0.0000000   0.4285714   0.0000000), wk =   0.0816327
        k(    5) = (   0.1428571   0.0000000   0.0000000), wk =   0.0816327
        k(    6) = (   0.1428571   0.1428571   0.0000000), wk =   0.0816327
        k(    7) = (   0.1428571   0.2857143   0.0000000), wk =   0.0816327
        k(    8) = (   0.1428571   0.4285714   0.0000000), wk =   0.0816327
        k(    9) = (   0.1428571  -0.4285714   0.0000000), wk =   0.0816327
        k(   10) = (   0.1428571  -0.2857143   0.0000000), wk =   0.0816327
        k(   11) = (   0.1428571  -0.1428571   0.0000000), wk =   0.0816327
        k(   12) = (   0.2857143   0.0000000   0.0000000), wk =   0.0816327
        k(   13) = (   0.2857143   0.1428571   0.0000000), wk =   0.0816327
        k(   14) = (   0.2857143   0.2857143   0.0000000), wk =   0.0816327
        k(   15) = (   0.2857143   0.4285714   0.0000000), wk =   0.0816327
        k(   16) = (   0.2857143  -0.4285714   0.0000000), wk =   0.0816327
        k(   17) = (   0.2857143  -0.2857143   0.0000000), wk =   0.0816327
        k(   18) = (   0.2857143  -0.1428571   0.0000000), wk =   0.0816327
        k(   19) = (   0.4285714   0.0000000   0.0000000), wk =   0.0816327
        k(   20) = (   0.4285714   0.1428571   0.0000000), wk =   0.0816327
        k(   21) = (   0.4285714   0.2857143   0.0000000), wk =   0.0816327
        k(   22) = (   0.4285714   0.4285714   0.0000000), wk =   0.0816327
        k(   23) = (   0.4285714  -0.4285714   0.0000000), wk =   0.0816327
        k(   24) = (   0.4285714  -0.2857143   0.0000000), wk =   0.0816327
        k(   25) = (   0.4285714  -0.1428571   0.0000000), wk =   0.0816327

     Dense  grid: 13455463 G-vectors     FFT dimensions: ( 180, 180, 960)

     Smooth grid:  3404289 G-vectors     FFT dimensions: ( 108, 120, 600)

     Dynamical RAM for                 wfc:       3.88 MB

     Dynamical RAM for     wfc (w. buffer):      54.32 MB

     Dynamical RAM for           str. fact:       0.80 MB

     Dynamical RAM for           local pot:       0.00 MB

     Dynamical RAM for          nlocal pot:      13.80 MB

     Dynamical RAM for                qrad:       0.65 MB

     Dynamical RAM for          rho,v,vnew:       5.37 MB

     Dynamical RAM for               rhoin:       1.79 MB

     Dynamical RAM for            rho*nmix:      12.84 MB

     Dynamical RAM for           G-vectors:       3.11 MB

     Dynamical RAM for          h,s,v(r/c):       4.29 MB

     Dynamical RAM for          <psi|beta>:       1.27 MB

     Dynamical RAM for                 psi:      15.52 MB

     Dynamical RAM for                hpsi:      15.52 MB

     Dynamical RAM for                spsi:      15.52 MB

     Dynamical RAM for      wfcinit/wfcrot:       8.30 MB

     Dynamical RAM for           addusdens:      44.93 MB

     Dynamical RAM for          addusforce:      98.75 MB

     Estimated static dynamical RAM per process >      86.39 MB

     Estimated max dynamical RAM per process >     205.31 MB

     Estimated total dynamical RAM >      95.78 GB

     Initial potential from superposition of free atoms

     starting charge     203.6866, renormalised to     204.0000

     negative rho (up, down):  5.540E-03 0.000E+00
     Starting wfcs are random
     Checking if some PAW data can be deallocated... 

     total cpu time spent up to now is       48.3 secs

     Self-consistent Calculation

     iteration #  1     ecut=    80.00 Ry     beta= 0.20
     Davidson diagonalization with overlap

---- Real-time Memory Report at c_bands before calling an iterative solver
          1218 MiB given to the printing process from OS
             0 MiB allocation reported by mallinfo(arena+hblkhd)
        211909 MiB available memory on the node where the printing process lives
------------------
     c_bands:  1 eigenvalues not converged
     c_bands:  1 eigenvalues not converged
     c_bands:  1 eigenvalues not converged
     ethr =  1.00E-12,  avg # of iterations =132.4

     negative rho (up, down):  4.093E-03 0.000E+00

     total cpu time spent up to now is      736.1 secs

     total energy              =   -1022.36764382 Ry
     estimated scf accuracy    <       0.21092551 Ry

     total charge of GC-SCF    =       0.26824767 e
     the Fermi energy          =      -4.31147646 eV
                        (error :       1.09252354 eV)
     electrostatic embedding   =       0.00000000 Ry
     cavitation energy         =       0.04795595 Ry
     electrolyte free energy   =       0.01515579 Ry
     correction to one-el term =      -0.00000000 Ry

     iteration #  2     ecut=    80.00 Ry     beta= 0.20
     Davidson diagonalization with overlap

---- Real-time Memory Report at c_bands before calling an iterative solver
          1218 MiB given to the printing process from OS
             0 MiB allocation reported by mallinfo(arena+hblkhd)
        205838 MiB available memory on the node where the printing process lives
------------------
     ethr =  1.00E-05,  avg # of iterations = 14.4

     negative rho (up, down):  3.156E-03 0.000E+00

     add environment contribution to local potential

     total cpu time spent up to now is      827.8 secs

     total energy              =   -1022.85632483 Ry
     estimated scf accuracy    <       0.08946095 Ry

     total charge of GC-SCF    =       0.43054924 e
     the Fermi energy          =      -3.76792540 eV
                        (error :       1.63607460 eV)
     electrostatic embedding   =       0.00244114 Ry
     cavitation energy         =       0.04795595 Ry
     electrolyte free energy   =       0.01515579 Ry
     correction to one-el term =      -0.00000000 Ry

     iteration #  3     ecut=    80.00 Ry     beta= 0.20
     Davidson diagonalization with overlap

---- Real-time Memory Report at c_bands before calling an iterative solver
          1218 MiB given to the printing process from OS
             0 MiB allocation reported by mallinfo(arena+hblkhd)
        205512 MiB available memory on the node where the printing process lives
------------------
     ethr =  1.00E-05,  avg # of iterations = 30.1

     negative rho (up, down):  2.455E-03 0.000E+00

     add environment contribution to local potential

     total cpu time spent up to now is      971.0 secs

     total energy              =   -1022.86390533 Ry
     estimated scf accuracy    <       0.04338585 Ry

     total charge of GC-SCF    =       0.83052522 e
     the Fermi energy          =      -3.19780946 eV
                        (error :       2.20619054 eV)
     electrostatic embedding   =      -0.04673299 Ry
     cavitation energy         =       0.04795595 Ry
     electrolyte free energy   =      -0.00982971 Ry
     correction to one-el term =     -12.67595790 Ry

     iteration #  4     ecut=    80.00 Ry     beta= 0.20
     Davidson diagonalization with overlap

---- Real-time Memory Report at c_bands before calling an iterative solver
          1218 MiB given to the printing process from OS
             0 MiB allocation reported by mallinfo(arena+hblkhd)
        205280 MiB available memory on the node where the printing process lives
------------------
     ethr =  1.00E-05,  avg # of iterations = 16.4

     negative rho (up, down):  1.934E-03 0.000E+00

     add environment contribution to local potential

     total cpu time spent up to now is     1075.2 secs

     total energy              =   -1022.71669269 Ry
     estimated scf accuracy    <       0.04568044 Ry

     total charge of GC-SCF    =       1.39358350 e
     the Fermi energy          =      -3.70421854 eV
                        (error :       1.69978146 eV)
     electrostatic embedding   =      -0.06461499 Ry
     cavitation energy         =       0.04795595 Ry
     electrolyte free energy   =      -0.01327380 Ry
     correction to one-el term =     -22.52107589 Ry

     iteration #  5     ecut=    80.00 Ry     beta= 0.20
     Davidson diagonalization with overlap

---- Real-time Memory Report at c_bands before calling an iterative solver
          1218 MiB given to the printing process from OS
             0 MiB allocation reported by mallinfo(arena+hblkhd)
        205392 MiB available memory on the node where the printing process lives
------------------
     ethr =  1.00E-05,  avg # of iterations = 20.6

     negative rho (up, down):  2.158E-03 0.000E+00

     add environment contribution to local potential

     total cpu time spent up to now is     1193.6 secs

     total energy              =   -1022.53287905 Ry
     estimated scf accuracy    <       0.01906823 Ry

     total charge of GC-SCF    =       2.99861875 e
     the Fermi energy          =      -3.38999853 eV
                        (error :       2.01400147 eV)
     electrostatic embedding   =      -0.15432810 Ry
     cavitation energy         =       0.04795595 Ry
     electrolyte free energy   =      -0.01216936 Ry
     correction to one-el term =     -39.23787891 Ry

     iteration #  6     ecut=    80.00 Ry     beta= 0.20
     Davidson diagonalization with overlap

---- Real-time Memory Report at c_bands before calling an iterative solver
          1218 MiB given to the printing process from OS
             0 MiB allocation reported by mallinfo(arena+hblkhd)
        205058 MiB available memory on the node where the printing process lives
------------------
     ethr =  9.49E-06,  avg # of iterations = 26.2

     negative rho (up, down):  3.352E-02 0.000E+00

     add environment contribution to local potential

     total cpu time spent up to now is     1328.5 secs

     total energy              =   -1023.13885722 Ry
     estimated scf accuracy    <       0.01996147 Ry

     total charge of GC-SCF    =       3.80402454 e
     the Fermi energy          =      -3.01741918 eV
                        (error :       2.38658082 eV)
     electrostatic embedding   =      -0.75335711 Ry
     cavitation energy         =       0.04795595 Ry
     electrolyte free energy   =      -0.01531668 Ry
     correction to one-el term =     -85.07859178 Ry

     iteration #  7     ecut=    80.00 Ry     beta= 0.20
     Davidson diagonalization with overlap

---- Real-time Memory Report at c_bands before calling an iterative solver
          1218 MiB given to the printing process from OS
             0 MiB allocation reported by mallinfo(arena+hblkhd)
        204969 MiB available memory on the node where the printing process lives
------------------
     ethr =  9.49E-06,  avg # of iterations = 17.2

     negative rho (up, down):  3.279E-02 0.000E+00

     add environment contribution to local potential

     total cpu time spent up to now is     1440.3 secs

     total energy              =   -1023.46288414 Ry
     estimated scf accuracy    <       0.00845795 Ry

     total charge of GC-SCF    =       3.87535744 e
     the Fermi energy          =      -3.64001074 eV
                        (error :       1.76398926 eV)
     electrostatic embedding   =      -1.16881917 Ry
     cavitation energy         =       0.04795595 Ry
     electrolyte free energy   =      -0.02724149 Ry
     correction to one-el term =    -107.68727087 Ry

     iteration #  8     ecut=    80.00 Ry     beta= 0.20
     Davidson diagonalization with overlap

---- Real-time Memory Report at c_bands before calling an iterative solver
          1218 MiB given to the printing process from OS
             0 MiB allocation reported by mallinfo(arena+hblkhd)
        205055 MiB available memory on the node where the printing process lives
------------------
     ethr =  4.23E-06,  avg # of iterations = 12.9

     negative rho (up, down):  1.251E-01 0.000E+00

     add environment contribution to local potential

     total cpu time spent up to now is     1513.4 secs

     total energy              =   -1023.02848415 Ry
     estimated scf accuracy    <       0.00859832 Ry

     total charge of GC-SCF    =       5.14908723 e
     the Fermi energy          =      -3.68191934 eV
                        (error :       1.72208066 eV)
     electrostatic embedding   =      -1.21133760 Ry
     cavitation energy         =       0.04795595 Ry
     electrolyte free energy   =      -0.02839337 Ry
     correction to one-el term =    -109.80610269 Ry

     iteration #  9     ecut=    80.00 Ry     beta= 0.20
     Davidson diagonalization with overlap

---- Real-time Memory Report at c_bands before calling an iterative solver
          1218 MiB given to the printing process from OS
             0 MiB allocation reported by mallinfo(arena+hblkhd)
        204929 MiB available memory on the node where the printing process lives
------------------
     ethr =  4.23E-06,  avg # of iterations = 15.4

     negative rho (up, down):  3.308E-01 0.000E+00

     add environment contribution to local potential

     total cpu time spent up to now is     1627.7 secs

     total energy              =   -1023.27661350 Ry
     estimated scf accuracy    <       0.00842951 Ry

     total charge of GC-SCF    =       6.16889272 e
     the Fermi energy          =      -3.87335533 eV
                        (error :       1.53064467 eV)
     electrostatic embedding   =      -2.17956172 Ry
     cavitation energy         =       0.04795595 Ry
     electrolyte free energy   =      -0.04876316 Ry
     correction to one-el term =    -147.89468563 Ry

     iteration # 10     ecut=    80.00 Ry     beta= 0.20
     Davidson diagonalization with overlap

---- Real-time Memory Report at c_bands before calling an iterative solver
          1218 MiB given to the printing process from OS
             0 MiB allocation reported by mallinfo(arena+hblkhd)
        204854 MiB available memory on the node where the printing process lives
------------------
     ethr =  4.23E-06,  avg # of iterations = 15.5

     negative rho (up, down):  1.170E-01 0.000E+00

     add environment contribution to local potential

     total cpu time spent up to now is     1744.1 secs

     total energy              =   -1023.56923994 Ry
     estimated scf accuracy    <       0.00556327 Ry

     total charge of GC-SCF    =       5.95528939 e
     the Fermi energy          =      -4.36829345 eV
                        (error :       1.03570655 eV)
     electrostatic embedding   =      -3.13696673 Ry
     cavitation energy         =       0.04795595 Ry
     electrolyte free energy   =      -0.07082161 Ry
     correction to one-el term =    -177.29928139 Ry

     iteration # 11     ecut=    80.00 Ry     beta= 0.20
     Davidson diagonalization with overlap

---- Real-time Memory Report at c_bands before calling an iterative solver
          1218 MiB given to the printing process from OS
             0 MiB allocation reported by mallinfo(arena+hblkhd)
        204845 MiB available memory on the node where the printing process lives
------------------
     ethr =  2.81E-06,  avg # of iterations = 11.1

     negative rho (up, down):  1.651E-01 0.000E+00

     add environment contribution to local potential

     total cpu time spent up to now is     1825.7 secs

     total energy              =   -1023.43741067 Ry
     estimated scf accuracy    <       0.00732566 Ry

     total charge of GC-SCF    =       6.29450564 e
     the Fermi energy          =      -4.26429626 eV
                        (error :       1.13970374 eV)
     electrostatic embedding   =      -2.94592283 Ry
     cavitation energy         =       0.04795595 Ry
     electrolyte free energy   =      -0.06635389 Ry
     correction to one-el term =    -173.50826256 Ry

     iteration # 12     ecut=    80.00 Ry     beta= 0.20
     Davidson diagonalization with overlap

---- Real-time Memory Report at c_bands before calling an iterative solver
          1218 MiB given to the printing process from OS
             0 MiB allocation reported by mallinfo(arena+hblkhd)
        204634 MiB available memory on the node where the printing process lives
------------------
     ethr =  2.81E-06,  avg # of iterations = 12.8

     negative rho (up, down):  1.305E-02 0.000E+00

     add environment contribution to local potential

     total cpu time spent up to now is     1915.5 secs

     total energy              =   -1023.26131484 Ry
     estimated scf accuracy    <       0.00493768 Ry

     total charge of GC-SCF    =       7.13740922 e
     the Fermi energy          =      -4.48193675 eV
                        (error :       0.92206325 eV)
     electrostatic embedding   =      -3.29632738 Ry
     cavitation energy         =       0.04795595 Ry
     electrolyte free energy   =      -0.07439183 Ry
     correction to one-el term =    -183.55252315 Ry

     iteration # 13     ecut=    80.00 Ry     beta= 0.20
     Davidson diagonalization with overlap

---- Real-time Memory Report at c_bands before calling an iterative solver
          1218 MiB given to the printing process from OS
             0 MiB allocation reported by mallinfo(arena+hblkhd)
        204621 MiB available memory on the node where the printing process lives
------------------
     ethr =  2.51E-06,  avg # of iterations = 25.2

     negative rho (up, down):  6.073E-03 0.000E+00

     add environment contribution to local potential

     total cpu time spent up to now is     2046.9 secs

     total energy              =   -1023.40276576 Ry
     estimated scf accuracy    <       0.00066063 Ry

     total charge of GC-SCF    =       7.27527972 e
     the Fermi energy          =      -5.21917133 eV
                        (error :       0.18482867 eV)
     electrostatic embedding   =      -4.36768708 Ry
     cavitation energy         =       0.04795595 Ry
     electrolyte free energy   =      -0.09866022 Ry
     correction to one-el term =    -214.26903442 Ry

     iteration # 14     ecut=    80.00 Ry     beta= 0.20
     Davidson diagonalization with overlap

---- Real-time Memory Report at c_bands before calling an iterative solver
          1218 MiB given to the printing process from OS
             0 MiB allocation reported by mallinfo(arena+hblkhd)
        204782 MiB available memory on the node where the printing process lives
------------------
     ethr =  3.36E-07,  avg # of iterations = 15.0

     negative rho (up, down):  1.341E-03 0.000E+00

     add environment contribution to local potential

     total cpu time spent up to now is     2154.8 secs

     total energy              =   -1023.40890975 Ry
     estimated scf accuracy    <       0.00042596 Ry

     total charge of GC-SCF    =       7.23171189 e
     the Fermi energy          =      -5.30640407 eV
                        (error :       0.09759593 eV)
     electrostatic embedding   =      -4.55290520 Ry
     cavitation energy         =       0.04795595 Ry
     electrolyte free energy   =      -0.10307615 Ry
     correction to one-el term =    -218.89997812 Ry

     iteration # 15     ecut=    80.00 Ry     beta= 0.20
     Davidson diagonalization with overlap

---- Real-time Memory Report at c_bands before calling an iterative solver
          1218 MiB given to the printing process from OS
             0 MiB allocation reported by mallinfo(arena+hblkhd)
        204806 MiB available memory on the node where the printing process lives
------------------
     ethr =  2.16E-07,  avg # of iterations = 10.3

     negative rho (up, down):  6.913E-04 0.000E+00

     add environment contribution to local potential

     total cpu time spent up to now is     2234.7 secs

     total energy              =   -1023.40694619 Ry
     estimated scf accuracy    <       0.00027182 Ry

     total charge of GC-SCF    =       7.29239329 e
     the Fermi energy          =      -5.30708008 eV
                        (error :       0.09691992 eV)
     electrostatic embedding   =      -4.49300068 Ry
     cavitation energy         =       0.04795595 Ry
     electrolyte free energy   =      -0.10169083 Ry
     correction to one-el term =    -217.58283765 Ry

     iteration # 16     ecut=    80.00 Ry     beta= 0.20
     Davidson diagonalization with overlap

---- Real-time Memory Report at c_bands before calling an iterative solver
          1218 MiB given to the printing process from OS
             0 MiB allocation reported by mallinfo(arena+hblkhd)
        204597 MiB available memory on the node where the printing process lives
------------------
     ethr =  1.38E-07,  avg # of iterations = 14.5

     negative rho (up, down):  3.534E-03 0.000E+00

     add environment contribution to local potential

     total cpu time spent up to now is     2342.8 secs

     total energy              =   -1023.40697742 Ry
     estimated scf accuracy    <       0.00013132 Ry

     total charge of GC-SCF    =       7.21687086 e
     the Fermi energy          =      -5.39945972 eV
                        (error :       0.00454028 eV)
     electrostatic embedding   =      -4.55568130 Ry
     cavitation energy         =       0.04795595 Ry
     electrolyte free energy   =      -0.10362754 Ry
     correction to one-el term =    -219.16767255 Ry

     iteration # 17     ecut=    80.00 Ry     beta= 0.20
     Davidson diagonalization with overlap

---- Real-time Memory Report at c_bands before calling an iterative solver
          1218 MiB given to the printing process from OS
             0 MiB allocation reported by mallinfo(arena+hblkhd)
        204724 MiB available memory on the node where the printing process lives
------------------
     ethr =  6.67E-08,  avg # of iterations = 14.4

     negative rho (up, down):  1.586E-03 0.000E+00

     add environment contribution to local potential

     total cpu time spent up to now is     2452.3 secs

     total energy              =   -1023.40681561 Ry
     estimated scf accuracy    <       0.00009501 Ry

     total charge of GC-SCF    =       7.26443962 e
     the Fermi energy          =      -5.39070103 eV
                        (error :       0.01329897 eV)
     electrostatic embedding   =      -4.44026578 Ry
     cavitation energy         =       0.04795595 Ry
     electrolyte free energy   =      -0.10116227 Ry
     correction to one-el term =    -216.38483988 Ry

     iteration # 18     ecut=    80.00 Ry     beta= 0.20
     Davidson diagonalization with overlap

---- Real-time Memory Report at c_bands before calling an iterative solver
          1218 MiB given to the printing process from OS
             0 MiB allocation reported by mallinfo(arena+hblkhd)
        204754 MiB available memory on the node where the printing process lives
------------------
     ethr =  4.83E-08,  avg # of iterations = 13.2

     negative rho (up, down):  6.023E-03 0.000E+00

     add environment contribution to local potential

     total cpu time spent up to now is     2543.8 secs

     total energy              =   -1023.40705778 Ry
     estimated scf accuracy    <       0.00007375 Ry

     total charge of GC-SCF    =       7.35296481 e
     the Fermi energy          =      -5.40457498 eV
                        (error :       0.00057498 eV)
     electrostatic embedding   =      -4.50320720 Ry
     cavitation energy         =       0.04795595 Ry
     electrolyte free energy   =      -0.10267610 Ry
     correction to one-el term =    -217.83355449 Ry

     iteration # 19     ecut=    80.00 Ry     beta= 0.20
     Davidson diagonalization with overlap

---- Real-time Memory Report at c_bands before calling an iterative solver
          1218 MiB given to the printing process from OS
             0 MiB allocation reported by mallinfo(arena+hblkhd)
        204578 MiB available memory on the node where the printing process lives
------------------
     ethr =  3.75E-08,  avg # of iterations = 17.9

     negative rho (up, down):  5.226E-03 0.000E+00

     add environment contribution to local potential

     total cpu time spent up to now is     2657.0 secs

     total energy              =   -1023.40526743 Ry
     estimated scf accuracy    <       0.00004460 Ry

     total charge of GC-SCF    =       7.25226251 e
     the Fermi energy          =      -5.44378517 eV
                        (error :       0.03978517 eV)
     electrostatic embedding   =      -4.61282276 Ry
     cavitation energy         =       0.04795595 Ry
     electrolyte free energy   =      -0.10551900 Ry
     correction to one-el term =    -220.23851115 Ry

     iteration # 20     ecut=    80.00 Ry     beta= 0.20
     Davidson diagonalization with overlap

---- Real-time Memory Report at c_bands before calling an iterative solver
          1218 MiB given to the printing process from OS
             0 MiB allocation reported by mallinfo(arena+hblkhd)
        204699 MiB available memory on the node where the printing process lives
------------------
     ethr =  2.27E-08,  avg # of iterations = 23.1

     negative rho (up, down):  2.753E-03 0.000E+00

     add environment contribution to local potential

     total cpu time spent up to now is     2782.6 secs

     total energy              =   -1023.40671106 Ry
     estimated scf accuracy    <       0.00003315 Ry

     total charge of GC-SCF    =       7.28604565 e
     the Fermi energy          =      -5.40669592 eV
                        (error :       0.00269592 eV)
     electrostatic embedding   =      -4.47806478 Ry
     cavitation energy         =       0.04795595 Ry
     electrolyte free energy   =      -0.10224637 Ry
     correction to one-el term =    -217.09203549 Ry

     iteration # 21     ecut=    80.00 Ry     beta= 0.20
     Davidson diagonalization with overlap

---- Real-time Memory Report at c_bands before calling an iterative solver
          1218 MiB given to the printing process from OS
             0 MiB allocation reported by mallinfo(arena+hblkhd)
        204594 MiB available memory on the node where the printing process lives
------------------
     ethr =  1.69E-08,  avg # of iterations = 14.0

     negative rho (up, down):  2.169E-03 0.000E+00

     add environment contribution to local potential

     total cpu time spent up to now is     2890.4 secs

     total energy              =   -1023.40613565 Ry
     estimated scf accuracy    <       0.00001705 Ry

     total charge of GC-SCF    =       7.29584575 e
     the Fermi energy          =      -5.42705107 eV
                        (error :       0.02305107 eV)
     electrostatic embedding   =      -4.52814859 Ry
     cavitation energy         =       0.04795595 Ry
     electrolyte free energy   =      -0.10335985 Ry
     correction to one-el term =    -218.36841075 Ry

     iteration # 22     ecut=    80.00 Ry     beta= 0.20
     Davidson diagonalization with overlap

---- Real-time Memory Report at c_bands before calling an iterative solver
          1218 MiB given to the printing process from OS
             0 MiB allocation reported by mallinfo(arena+hblkhd)
        204578 MiB available memory on the node where the printing process lives
------------------
     ethr =  8.67E-09,  avg # of iterations = 14.7

     negative rho (up, down):  2.368E-03 0.000E+00

     add environment contribution to local potential

     total cpu time spent up to now is     2998.5 secs

     total energy              =   -1023.40618952 Ry
     estimated scf accuracy    <       0.00000818 Ry

     total charge of GC-SCF    =       7.29896765 e
     the Fermi energy          =      -5.42057547 eV
                        (error :       0.01657547 eV)
     electrostatic embedding   =      -4.53949992 Ry
     cavitation energy         =       0.04795595 Ry
     electrolyte free energy   =      -0.10366187 Ry
     correction to one-el term =    -218.53985063 Ry

     iteration # 23     ecut=    80.00 Ry     beta= 0.20
     Davidson diagonalization with overlap

---- Real-time Memory Report at c_bands before calling an iterative solver
          1218 MiB given to the printing process from OS
             0 MiB allocation reported by mallinfo(arena+hblkhd)
        204608 MiB available memory on the node where the printing process lives
------------------
     ethr =  4.16E-09,  avg # of iterations = 14.0

     negative rho (up, down):  9.553E-04 0.000E+00

     add environment contribution to local potential

     total cpu time spent up to now is     3098.1 secs

     total energy              =   -1023.40611081 Ry
     estimated scf accuracy    <       0.00000557 Ry

     total charge of GC-SCF    =       7.26637217 e
     the Fermi energy          =      -5.42210014 eV
                        (error :       0.01810014 eV)
     electrostatic embedding   =      -4.54219036 Ry
     cavitation energy         =       0.04795595 Ry
     electrolyte free energy   =      -0.10375733 Ry
     correction to one-el term =    -218.57275497 Ry

     iteration # 24     ecut=    80.00 Ry     beta= 0.20
     Davidson diagonalization with overlap

---- Real-time Memory Report at c_bands before calling an iterative solver
          1218 MiB given to the printing process from OS
             0 MiB allocation reported by mallinfo(arena+hblkhd)
        204497 MiB available memory on the node where the printing process lives
------------------
     ethr =  2.83E-09,  avg # of iterations = 30.2

     negative rho (up, down):  6.770E-04 0.000E+00

     add environment contribution to local potential

     total cpu time spent up to now is     3247.3 secs

     total energy              =   -1023.40650027 Ry
     estimated scf accuracy    <       0.00000223 Ry

     total charge of GC-SCF    =       7.25122346 e
     the Fermi energy          =      -5.40858664 eV
                        (error :       0.00458664 eV)
     electrostatic embedding   =      -4.50292489 Ry
     cavitation energy         =       0.04795595 Ry
     electrolyte free energy   =      -0.10272148 Ry
     correction to one-el term =    -217.71187673 Ry

     iteration # 25     ecut=    80.00 Ry     beta= 0.20
     Davidson diagonalization with overlap

---- Real-time Memory Report at c_bands before calling an iterative solver
          1218 MiB given to the printing process from OS
             0 MiB allocation reported by mallinfo(arena+hblkhd)
        204522 MiB available memory on the node where the printing process lives
------------------
     ethr =  1.14E-09,  avg # of iterations = 20.6

     negative rho (up, down):  6.605E-04 0.000E+00

     add environment contribution to local potential

     total cpu time spent up to now is     3369.6 secs

     total energy              =   -1023.40664896 Ry
     estimated scf accuracy    <       0.00000104 Ry

     total charge of GC-SCF    =       7.25019688 e
     the Fermi energy          =      -5.40160367 eV
                        (error :       0.00239633 eV)
     electrostatic embedding   =      -4.48555876 Ry
     cavitation energy         =       0.04795595 Ry
     electrolyte free energy   =      -0.10224684 Ry
     correction to one-el term =    -217.34331875 Ry

     iteration # 26     ecut=    80.00 Ry     beta= 0.20
     Davidson diagonalization with overlap

---- Real-time Memory Report at c_bands before calling an iterative solver
          1218 MiB given to the printing process from OS
             0 MiB allocation reported by mallinfo(arena+hblkhd)
        204291 MiB available memory on the node where the printing process lives
------------------
     ethr =  5.28E-10,  avg # of iterations =  9.4

     negative rho (up, down):  7.698E-04 0.000E+00

     add environment contribution to local potential

     total cpu time spent up to now is     3440.6 secs

     total energy              =   -1023.40667222 Ry
     estimated scf accuracy    <       0.00000081 Ry

     total charge of GC-SCF    =       7.25693818 e
     the Fermi energy          =      -5.40051926 eV
                        (error :       0.00348074 eV)
     electrostatic embedding   =      -4.48429193 Ry
     cavitation energy         =       0.04795595 Ry
     electrolyte free energy   =      -0.10221401 Ry
     correction to one-el term =    -217.31416183 Ry

     iteration # 27     ecut=    80.00 Ry     beta= 0.20
     Davidson diagonalization with overlap

---- Real-time Memory Report at c_bands before calling an iterative solver
          1218 MiB given to the printing process from OS
             0 MiB allocation reported by mallinfo(arena+hblkhd)
        204450 MiB available memory on the node where the printing process lives
------------------
     ethr =  4.14E-10,  avg # of iterations = 24.2

     negative rho (up, down):  8.565E-04 0.000E+00

     add environment contribution to local potential

     total cpu time spent up to now is     3571.8 secs

     total energy              =   -1023.40663329 Ry
     estimated scf accuracy    <       0.00000035 Ry

     total charge of GC-SCF    =       7.25824926 e
     the Fermi energy          =      -5.40218769 eV
                        (error :       0.00181231 eV)
     electrostatic embedding   =      -4.49154407 Ry
     cavitation energy         =       0.04795595 Ry
     electrolyte free energy   =      -0.10242241 Ry
     correction to one-el term =    -217.46464465 Ry

     iteration # 28     ecut=    80.00 Ry     beta= 0.20
     Davidson diagonalization with overlap

---- Real-time Memory Report at c_bands before calling an iterative solver
          1218 MiB given to the printing process from OS
             0 MiB allocation reported by mallinfo(arena+hblkhd)
        204541 MiB available memory on the node where the printing process lives
------------------
     ethr =  1.80E-10,  avg # of iterations = 14.5

     negative rho (up, down):  8.483E-04 0.000E+00

     add environment contribution to local potential

     total cpu time spent up to now is     3676.6 secs

     total energy              =   -1023.40661674 Ry
     estimated scf accuracy    <       0.00000022 Ry

     total charge of GC-SCF    =       7.25808923 e
     the Fermi energy          =      -5.40283692 eV
                        (error :       0.00116308 eV)
     electrostatic embedding   =      -4.49287791 Ry
     cavitation energy         =       0.04795595 Ry
     electrolyte free energy   =      -0.10246313 Ry
     correction to one-el term =    -217.49575559 Ry

     iteration # 29     ecut=    80.00 Ry     beta= 0.20
     Davidson diagonalization with overlap

---- Real-time Memory Report at c_bands before calling an iterative solver
          1218 MiB given to the printing process from OS
             0 MiB allocation reported by mallinfo(arena+hblkhd)
        204417 MiB available memory on the node where the printing process lives
------------------
     ethr =  1.09E-10,  avg # of iterations =  4.1

     negative rho (up, down):  8.502E-04 0.000E+00

     add environment contribution to local potential

     total cpu time spent up to now is     3731.5 secs

     total energy              =   -1023.40661850 Ry
     estimated scf accuracy    <       0.00000019 Ry

     total charge of GC-SCF    =       7.26004537 e
     the Fermi energy          =      -5.40271933 eV
                        (error :       0.00128067 eV)
     electrostatic embedding   =      -4.49269234 Ry
     cavitation energy         =       0.04795595 Ry
     electrolyte free energy   =      -0.10245804 Ry
     correction to one-el term =    -217.49132007 Ry

     iteration # 30     ecut=    80.00 Ry     beta= 0.20
     Davidson diagonalization with overlap

---- Real-time Memory Report at c_bands before calling an iterative solver
          1218 MiB given to the printing process from OS
             0 MiB allocation reported by mallinfo(arena+hblkhd)
        204385 MiB available memory on the node where the printing process lives
------------------
     ethr =  9.41E-11,  avg # of iterations = 12.3

     negative rho (up, down):  8.236E-04 0.000E+00

     add environment contribution to local potential

     total cpu time spent up to now is     3826.4 secs

     total energy              =   -1023.40659414 Ry
     estimated scf accuracy    <       0.00000005 Ry

     total charge of GC-SCF    =       7.26190690 e
     the Fermi energy          =      -5.40368371 eV
                        (error :       0.00031629 eV)
     electrostatic embedding   =      -4.49541074 Ry
     cavitation energy         =       0.04795595 Ry
     electrolyte free energy   =      -0.10252115 Ry
     correction to one-el term =    -217.55446439 Ry

     iteration # 31     ecut=    80.00 Ry     beta= 0.20
     Davidson diagonalization with overlap

---- Real-time Memory Report at c_bands before calling an iterative solver
          1218 MiB given to the printing process from OS
             0 MiB allocation reported by mallinfo(arena+hblkhd)
        204307 MiB available memory on the node where the printing process lives
------------------
     ethr =  2.60E-11,  avg # of iterations = 11.2

     negative rho (up, down):  8.078E-04 0.000E+00

     add environment contribution to local potential

     total cpu time spent up to now is     3926.7 secs

     total energy              =   -1023.40656791 Ry
     estimated scf accuracy    <       0.00000002 Ry

     total charge of GC-SCF    =       7.26170856 e
     the Fermi energy          =      -5.40460458 eV
                        (error :       0.00060458 eV)
     electrostatic embedding   =      -4.49801408 Ry
     cavitation energy         =       0.04795595 Ry
     electrolyte free energy   =      -0.10258167 Ry
     correction to one-el term =    -217.61815810 Ry

     iteration # 32     ecut=    80.00 Ry     beta= 0.20
     Davidson diagonalization with overlap

---- Real-time Memory Report at c_bands before calling an iterative solver
          1218 MiB given to the printing process from OS
             0 MiB allocation reported by mallinfo(arena+hblkhd)
        204264 MiB available memory on the node where the printing process lives
------------------
     ethr =  1.13E-11,  avg # of iterations = 14.8

     negative rho (up, down):  7.997E-04 0.000E+00

     add environment contribution to local potential

     total cpu time spent up to now is     4029.5 secs

     total energy              =   -1023.40656345 Ry
     estimated scf accuracy    <       0.00000001 Ry

     total charge of GC-SCF    =       7.26095987 e
     the Fermi energy          =      -5.40479453 eV
                        (error :       0.00079453 eV)
     electrostatic embedding   =      -4.49781313 Ry
     cavitation energy         =       0.04795595 Ry
     electrolyte free energy   =      -0.10257583 Ry
     correction to one-el term =    -217.61594228 Ry

     iteration # 33     ecut=    80.00 Ry     beta= 0.20
     Davidson diagonalization with overlap

---- Real-time Memory Report at c_bands before calling an iterative solver
          1218 MiB given to the printing process from OS
             0 MiB allocation reported by mallinfo(arena+hblkhd)
        204279 MiB available memory on the node where the printing process lives
------------------
     ethr =  7.15E-12,  avg # of iterations = 11.5

     negative rho (up, down):  7.980E-04 0.000E+00

     add environment contribution to local potential

     total cpu time spent up to now is     4124.4 secs

     total energy              =   -1023.40657245 Ry
     estimated scf accuracy    <          7.9E-09 Ry

     total charge of GC-SCF    =       7.26053685 e
     the Fermi energy          =      -5.40447833 eV
                        (error :       0.00047833 eV)
     electrostatic embedding   =      -4.49677225 Ry
     cavitation energy         =       0.04795595 Ry
     electrolyte free energy   =      -0.10255160 Ry
     correction to one-el term =    -217.59079807 Ry

     iteration # 34     ecut=    80.00 Ry     beta= 0.20
     Davidson diagonalization with overlap

---- Real-time Memory Report at c_bands before calling an iterative solver
          1218 MiB given to the printing process from OS
             0 MiB allocation reported by mallinfo(arena+hblkhd)
        204270 MiB available memory on the node where the printing process lives
------------------
     ethr =  4.04E-12,  avg # of iterations = 11.8

     negative rho (up, down):  7.960E-04 0.000E+00

     add environment contribution to local potential

     total cpu time spent up to now is     4219.5 secs

     total energy              =   -1023.40657885 Ry
     estimated scf accuracy    <          4.1E-09 Ry

     total charge of GC-SCF    =       7.26011634 e
     the Fermi energy          =      -5.40421448 eV
                        (error :       0.00021448 eV)
     electrostatic embedding   =      -4.49617516 Ry
     cavitation energy         =       0.04795595 Ry
     electrolyte free energy   =      -0.10253782 Ry
     correction to one-el term =    -217.57607445 Ry

     iteration # 35     ecut=    80.00 Ry     beta= 0.20
     Davidson diagonalization with overlap

---- Real-time Memory Report at c_bands before calling an iterative solver
          1218 MiB given to the printing process from OS
             0 MiB allocation reported by mallinfo(arena+hblkhd)
        204345 MiB available memory on the node where the printing process lives
------------------
     ethr =  2.07E-12,  avg # of iterations = 15.0

     negative rho (up, down):  7.910E-04 0.000E+00

     add environment contribution to local potential

     total cpu time spent up to now is     4332.4 secs

     total energy              =   -1023.40658780 Ry
     estimated scf accuracy    <          2.3E-09 Ry

     total charge of GC-SCF    =       7.26012782 e
     the Fermi energy          =      -5.40387941 eV
                        (error :       0.00012059 eV)
     electrostatic embedding   =      -4.49556982 Ry
     cavitation energy         =       0.04795595 Ry
     electrolyte free energy   =      -0.10252398 Ry
     correction to one-el term =    -217.56014912 Ry

     iteration # 36     ecut=    80.00 Ry     beta= 0.20
     Davidson diagonalization with overlap

---- Real-time Memory Report at c_bands before calling an iterative solver
          1218 MiB given to the printing process from OS
             0 MiB allocation reported by mallinfo(arena+hblkhd)
        204348 MiB available memory on the node where the printing process lives
------------------
     ethr =  1.19E-12,  avg # of iterations = 13.2

     negative rho (up, down):  7.905E-04 0.000E+00

     add environment contribution to local potential

     total cpu time spent up to now is     4425.8 secs

     total energy              =   -1023.40658644 Ry
     estimated scf accuracy    <          1.3E-09 Ry

     total charge of GC-SCF    =       7.25997090 e
     the Fermi energy          =      -5.40393677 eV
                        (error :       0.00006323 eV)
     electrostatic embedding   =      -4.49562142 Ry
     cavitation energy         =       0.04795595 Ry
     electrolyte free energy   =      -0.10252454 Ry
     correction to one-el term =    -217.56207430 Ry

     iteration # 37     ecut=    80.00 Ry     beta= 0.20
     Davidson diagonalization with overlap

---- Real-time Memory Report at c_bands before calling an iterative solver
          1218 MiB given to the printing process from OS
             0 MiB allocation reported by mallinfo(arena+hblkhd)
        204202 MiB available memory on the node where the printing process lives
------------------
     ethr =  6.80E-13,  avg # of iterations = 14.0

     negative rho (up, down):  7.863E-04 0.000E+00

     add environment contribution to local potential

     total cpu time spent up to now is     4524.3 secs

     total energy              =   -1023.40658748 Ry
     estimated scf accuracy    <          9.7E-10 Ry

     total charge of GC-SCF    =       7.25981534 e
     the Fermi energy          =      -5.40388969 eV
                        (error :       0.00011031 eV)
     electrostatic embedding   =      -4.49543085 Ry
     cavitation energy         =       0.04795595 Ry
     electrolyte free energy   =      -0.10251959 Ry
     correction to one-el term =    -217.55794309 Ry

     iteration # 38     ecut=    80.00 Ry     beta= 0.20
     Davidson diagonalization with overlap

---- Real-time Memory Report at c_bands before calling an iterative solver
          1218 MiB given to the printing process from OS
             0 MiB allocation reported by mallinfo(arena+hblkhd)
        204355 MiB available memory on the node where the printing process lives
------------------
     ethr =  4.92E-13,  avg # of iterations = 12.0

     negative rho (up, down):  7.858E-04 0.000E+00

     add environment contribution to local potential

     total cpu time spent up to now is     4614.3 secs

     total energy              =   -1023.40658916 Ry
     estimated scf accuracy    <          4.5E-10 Ry

     total charge of GC-SCF    =       7.25983955 e
     the Fermi energy          =      -5.40383667 eV
                        (error :       0.00016333 eV)
     electrostatic embedding   =      -4.49523819 Ry
     cavitation energy         =       0.04795595 Ry
     electrolyte free energy   =      -0.10251466 Ry
     correction to one-el term =    -217.55349317 Ry

     iteration # 39     ecut=    80.00 Ry     beta= 0.20
     Davidson diagonalization with overlap

---- Real-time Memory Report at c_bands before calling an iterative solver
          1218 MiB given to the printing process from OS
             0 MiB allocation reported by mallinfo(arena+hblkhd)
        204240 MiB available memory on the node where the printing process lives
------------------
     ethr =  2.27E-13,  avg # of iterations = 13.8

     negative rho (up, down):  7.867E-04 0.000E+00

     add environment contribution to local potential

     total cpu time spent up to now is     4705.8 secs

     total energy              =   -1023.40658873 Ry
     estimated scf accuracy    <          2.6E-10 Ry

     total charge of GC-SCF    =       7.26002513 e
     the Fermi energy          =      -5.40385271 eV
                        (error :       0.00014729 eV)
     electrostatic embedding   =      -4.49527495 Ry
     cavitation energy         =       0.04795595 Ry
     electrolyte free energy   =      -0.10251546 Ry
     correction to one-el term =    -217.55446072 Ry

     iteration # 40     ecut=    80.00 Ry     beta= 0.20
     Davidson diagonalization with overlap

---- Real-time Memory Report at c_bands before calling an iterative solver
          1218 MiB given to the printing process from OS
             0 MiB allocation reported by mallinfo(arena+hblkhd)
        204168 MiB available memory on the node where the printing process lives
------------------
     ethr =  1.30E-13,  avg # of iterations = 13.8

     negative rho (up, down):  7.878E-04 0.000E+00

     add environment contribution to local potential

     total cpu time spent up to now is     4811.4 secs

     total energy              =   -1023.40658599 Ry
     estimated scf accuracy    <          1.1E-10 Ry

     total charge of GC-SCF    =       7.26005478 e
     the Fermi energy          =      -5.40395816 eV
                        (error :       0.00004184 eV)
     electrostatic embedding   =      -4.49552356 Ry
     cavitation energy         =       0.04795595 Ry
     electrolyte free energy   =      -0.10252145 Ry
     correction to one-el term =    -217.56051218 Ry

     iteration # 41     ecut=    80.00 Ry     beta= 0.20
     Davidson diagonalization with overlap

---- Real-time Memory Report at c_bands before calling an iterative solver
          1218 MiB given to the printing process from OS
             0 MiB allocation reported by mallinfo(arena+hblkhd)
        204258 MiB available memory on the node where the printing process lives
------------------
     ethr =  1.00E-13,  avg # of iterations = 14.3

     negative rho (up, down):  7.880E-04 0.000E+00

     add environment contribution to local potential

     total cpu time spent up to now is     4911.1 secs

     total energy              =   -1023.40658604 Ry
     estimated scf accuracy    <          5.6E-11 Ry

     total charge of GC-SCF    =       7.26012919 e
     the Fermi energy          =      -5.40396569 eV
                        (error :       0.00003431 eV)
     electrostatic embedding   =      -4.49554879 Ry
     cavitation energy         =       0.04795595 Ry
     electrolyte free energy   =      -0.10252233 Ry
     correction to one-el term =    -217.56081024 Ry

     iteration # 42     ecut=    80.00 Ry     beta= 0.20
     Davidson diagonalization with overlap

---- Real-time Memory Report at c_bands before calling an iterative solver
          1218 MiB given to the printing process from OS
             0 MiB allocation reported by mallinfo(arena+hblkhd)
        204253 MiB available memory on the node where the printing process lives
------------------
     ethr =  1.00E-13,  avg # of iterations =  9.6

     negative rho (up, down):  7.884E-04 0.000E+00

     add environment contribution to local potential

     total cpu time spent up to now is     4990.8 secs

     total energy              =   -1023.40658490 Ry
     estimated scf accuracy    <          3.5E-11 Ry

     total charge of GC-SCF    =       7.26014472 e
     the Fermi energy          =      -5.40400805 eV
                        (error :       0.00000805 eV)
     electrostatic embedding   =      -4.49564650 Ry
     cavitation energy         =       0.04795595 Ry
     electrolyte free energy   =      -0.10252473 Ry
     correction to one-el term =    -217.56318306 Ry

     iteration # 43     ecut=    80.00 Ry     beta= 0.20
     Davidson diagonalization with overlap

---- Real-time Memory Report at c_bands before calling an iterative solver
          1218 MiB given to the printing process from OS
             0 MiB allocation reported by mallinfo(arena+hblkhd)
        203986 MiB available memory on the node where the printing process lives
------------------
     ethr =  1.00E-13,  avg # of iterations = 15.4

     negative rho (up, down):  7.883E-04 0.000E+00

     add environment contribution to local potential

     total cpu time spent up to now is     5091.5 secs

     total energy              =   -1023.40658498 Ry
     estimated scf accuracy    <          1.5E-11 Ry

     total charge of GC-SCF    =       7.26014877 e
     the Fermi energy          =      -5.40401058 eV
                        (error :       0.00001058 eV)
     electrostatic embedding   =      -4.49565763 Ry
     cavitation energy         =       0.04795595 Ry
     electrolyte free energy   =      -0.10252518 Ry
     correction to one-el term =    -217.56326085 Ry

     iteration # 44     ecut=    80.00 Ry     beta= 0.20
     Davidson diagonalization with overlap

---- Real-time Memory Report at c_bands before calling an iterative solver
          1218 MiB given to the printing process from OS
             0 MiB allocation reported by mallinfo(arena+hblkhd)
        204178 MiB available memory on the node where the printing process lives
------------------
     ethr =  1.00E-13,  avg # of iterations =  3.4

     negative rho (up, down):  7.883E-04 0.000E+00

     add environment contribution to local potential

     total cpu time spent up to now is     5147.3 secs

     total energy              =   -1023.40658482 Ry
     estimated scf accuracy    <          9.2E-12 Ry

     total charge of GC-SCF    =       7.26014442 e
     the Fermi energy          =      -5.40401604 eV
                        (error :       0.00001604 eV)
     electrostatic embedding   =      -4.49566417 Ry
     cavitation energy         =       0.04795595 Ry
     electrolyte free energy   =      -0.10252532 Ry
     correction to one-el term =    -217.56346120 Ry

     iteration # 45     ecut=    80.00 Ry     beta= 0.20
     Davidson diagonalization with overlap

---- Real-time Memory Report at c_bands before calling an iterative solver
          1218 MiB given to the printing process from OS
             0 MiB allocation reported by mallinfo(arena+hblkhd)
        204149 MiB available memory on the node where the printing process lives
------------------
     ethr =  1.00E-13,  avg # of iterations = 12.0

     negative rho (up, down):  7.881E-04 0.000E+00

     add environment contribution to local potential

     total cpu time spent up to now is     5220.1 secs

     total energy              =   -1023.40658488 Ry
     estimated scf accuracy    <          4.4E-12 Ry

     total charge of GC-SCF    =       7.26013346 e
     the Fermi energy          =      -5.40401598 eV
                        (error :       0.00001598 eV)
     electrostatic embedding   =      -4.49565694 Ry
     cavitation energy         =       0.04795595 Ry
     electrolyte free energy   =      -0.10252518 Ry
     correction to one-el term =    -217.56326731 Ry

     iteration # 46     ecut=    80.00 Ry     beta= 0.20
     Davidson diagonalization with overlap

---- Real-time Memory Report at c_bands before calling an iterative solver
          1218 MiB given to the printing process from OS
             0 MiB allocation reported by mallinfo(arena+hblkhd)
        204118 MiB available memory on the node where the printing process lives
------------------
     ethr =  1.00E-13,  avg # of iterations =  8.4

     negative rho (up, down):  7.880E-04 0.000E+00

     add environment contribution to local potential

     total cpu time spent up to now is     5283.6 secs

     total energy              =   -1023.40658495 Ry
     estimated scf accuracy    <          1.8E-12 Ry

     total charge of GC-SCF    =       7.26012203 e
     the Fermi energy          =      -5.40401388 eV
                        (error :       0.00001388 eV)
     electrostatic embedding   =      -4.49564359 Ry
     cavitation energy         =       0.04795595 Ry
     electrolyte free energy   =      -0.10252483 Ry
     correction to one-el term =    -217.56297208 Ry

     iteration # 47     ecut=    80.00 Ry     beta= 0.20
     Davidson diagonalization with overlap

---- Real-time Memory Report at c_bands before calling an iterative solver
          1218 MiB given to the printing process from OS
             0 MiB allocation reported by mallinfo(arena+hblkhd)
        204090 MiB available memory on the node where the printing process lives
------------------
     ethr =  1.00E-13,  avg # of iterations =  7.8

     negative rho (up, down):  7.878E-04 0.000E+00

     add environment contribution to local potential

     total cpu time spent up to now is     5346.8 secs

     total energy              =   -1023.40658510 Ry
     estimated scf accuracy    <          1.1E-12 Ry

     total charge of GC-SCF    =       7.26011316 e
     the Fermi energy          =      -5.40400812 eV
                        (error :       0.00000812 eV)
     electrostatic embedding   =      -4.49562907 Ry
     cavitation energy         =       0.04795595 Ry
     electrolyte free energy   =      -0.10252446 Ry
     correction to one-el term =    -217.56263111 Ry

     iteration # 48     ecut=    80.00 Ry     beta= 0.20
     Davidson diagonalization with overlap

---- Real-time Memory Report at c_bands before calling an iterative solver
          1218 MiB given to the printing process from OS
             0 MiB allocation reported by mallinfo(arena+hblkhd)
        204034 MiB available memory on the node where the printing process lives
------------------
     ethr =  1.00E-13,  avg # of iterations =  8.2

     negative rho (up, down):  7.877E-04 0.000E+00

     add environment contribution to local potential

     total cpu time spent up to now is     5409.9 secs

     total energy              =   -1023.40658525 Ry
     estimated scf accuracy    <          4.6E-13 Ry

     total charge of GC-SCF    =       7.26011404 e
     the Fermi energy          =      -5.40400150 eV
                        (error :       0.00000150 eV)
     electrostatic embedding   =      -4.49561791 Ry
     cavitation energy         =       0.04795595 Ry
     electrolyte free energy   =      -0.10252418 Ry
     correction to one-el term =    -217.56236520 Ry

     iteration # 49     ecut=    80.00 Ry     beta= 0.20
     Davidson diagonalization with overlap

---- Real-time Memory Report at c_bands before calling an iterative solver
          1218 MiB given to the printing process from OS
             0 MiB allocation reported by mallinfo(arena+hblkhd)
        204038 MiB available memory on the node where the printing process lives
------------------
     ethr =  1.00E-13,  avg # of iterations =  2.1

     negative rho (up, down):  7.877E-04 0.000E+00

     add environment contribution to local potential

     total cpu time spent up to now is     5460.8 secs

     total energy              =   -1023.40658525 Ry
     estimated scf accuracy    <          3.0E-13 Ry

     total charge of GC-SCF    =       7.26011274 e
     the Fermi energy          =      -5.40400152 eV
                        (error :       0.00000152 eV)
     electrostatic embedding   =      -4.49561902 Ry
     cavitation energy         =       0.04795595 Ry
     electrolyte free energy   =      -0.10252421 Ry
     correction to one-el term =    -217.56239278 Ry

     iteration # 50     ecut=    80.00 Ry     beta= 0.20
     Davidson diagonalization with overlap

---- Real-time Memory Report at c_bands before calling an iterative solver
          1218 MiB given to the printing process from OS
             0 MiB allocation reported by mallinfo(arena+hblkhd)
        204048 MiB available memory on the node where the printing process lives
------------------
     ethr =  1.00E-13,  avg # of iterations =  4.0

     negative rho (up, down):  7.877E-04 0.000E+00

     add environment contribution to local potential

     total cpu time spent up to now is     5514.6 secs

     total energy              =   -1023.40658524 Ry
     estimated scf accuracy    <          1.7E-13 Ry

     total charge of GC-SCF    =       7.26010935 e
     the Fermi energy          =      -5.40400132 eV
                        (error :       0.00000132 eV)
     electrostatic embedding   =      -4.49561766 Ry
     cavitation energy         =       0.04795595 Ry
     electrolyte free energy   =      -0.10252417 Ry
     correction to one-el term =    -217.56237238 Ry

     iteration # 51     ecut=    80.00 Ry     beta= 0.20
     Davidson diagonalization with overlap

---- Real-time Memory Report at c_bands before calling an iterative solver
          1218 MiB given to the printing process from OS
             0 MiB allocation reported by mallinfo(arena+hblkhd)
        204020 MiB available memory on the node where the printing process lives
------------------
     ethr =  1.00E-13,  avg # of iterations =  1.1

     negative rho (up, down):  7.877E-04 0.000E+00

     add environment contribution to local potential

     total cpu time spent up to now is     5564.1 secs

     total energy              =   -1023.40658529 Ry
     estimated scf accuracy    <          9.2E-14 Ry

     total charge of GC-SCF    =       7.26010831 e
     the Fermi energy          =      -5.40399967 eV
                        (error :       0.00000033 eV)
     electrostatic embedding   =      -4.49561311 Ry
     cavitation energy         =       0.04795595 Ry
     electrolyte free energy   =      -0.10252406 Ry
     correction to one-el term =    -217.56226567 Ry

     iteration # 52     ecut=    80.00 Ry     beta= 0.20
[...]
     atom   63 type  1   force =    -0.00005759    0.10925075   14.17428117
     atom   64 type  1   force =     0.00032366    0.06647964    5.15196158
     atom   65 type  1   force =    -0.00007280    0.08974108   11.94183296
     atom   66 type  1   force =    -0.00020392   -0.00586076  -14.35008333
     atom   67 type  1   force =    -0.00007166   -0.11477927  -11.75859827
     atom   68 type  1   force =     0.00021047    0.20121812  -13.93384814
     The core correction contribution to forces
     atom    1 type  1   force =     0.00000000    0.00000000    0.00000000
     atom    2 type  1   force =     0.00000000    0.00000000    0.00000000
     atom    3 type  1   force =     0.00000000    0.00000000    0.00000000
     atom    4 type  1   force =     0.00000000    0.00000000    0.00000000
     atom    5 type  1   force =     0.00000000    0.00000000    0.00000000
     atom    6 type  1   force =     0.00000000    0.00000000    0.00000000
     atom    7 type  1   force =     0.00000000    0.00000000    0.00000000
     atom    8 type  1   force =     0.00000000    0.00000000    0.00000000
     atom    9 type  1   force =     0.00000000    0.00000000    0.00000000
     atom   10 type  1   force =     0.00000000    0.00000000    0.00000000
     atom   11 type  1   force =     0.00000000    0.00000000    0.00000000
     atom   12 type  1   force =     0.00000000    0.00000000    0.00000000
     atom   13 type  1   force =     0.00000000    0.00000000    0.00000000
     atom   14 type  1   force =     0.00000000    0.00000000    0.00000000
     atom   15 type  1   force =     0.00000000    0.00000000    0.00000000
     atom   16 type  1   force =     0.00000000    0.00000000    0.00000000
     atom   17 type  1   force =     0.00000000    0.00000000    0.00000000
     atom   18 type  1   force =     0.00000000    0.00000000    0.00000000
     atom   19 type  1   force =     0.00000000    0.00000000    0.00000000
     atom   20 type  1   force =     0.00000000    0.00000000    0.00000000
     atom   21 type  1   force =     0.00000000    0.00000000    0.00000000
     atom   22 type  1   force =     0.00000000    0.00000000    0.00000000
     atom   23 type  1   force =     0.00000000    0.00000000    0.00000000
     atom   24 type  1   force =     0.00000000    0.00000000    0.00000000
     atom   25 type  1   force =     0.00000000    0.00000000    0.00000000
     atom   26 type  1   force =     0.00000000    0.00000000    0.00000000
     atom   27 type  1   force =     0.00000000    0.00000000    0.00000000
     atom   28 type  1   force =     0.00000000    0.00000000    0.00000000
     atom   29 type  1   force =     0.00000000    0.00000000    0.00000000
     atom   30 type  1   force =     0.00000000    0.00000000    0.00000000
     atom   31 type  1   force =     0.00000000    0.00000000    0.00000000
     atom   32 type  1   force =     0.00000000    0.00000000    0.00000000
     atom   33 type  1   force =     0.00000000    0.00000000    0.00000000
     atom   34 type  1   force =     0.00000000    0.00000000    0.00000000
     atom   35 type  1   force =     0.00000000    0.00000000    0.00000000
     atom   36 type  1   force =     0.00000000    0.00000000    0.00000000
     atom   37 type  1   force =     0.00000000    0.00000000    0.00000000
     atom   38 type  1   force =     0.00000000    0.00000000    0.00000000
     atom   39 type  1   force =     0.00000000    0.00000000    0.00000000
     atom   40 type  1   force =     0.00000000    0.00000000    0.00000000
     atom   41 type  1   force =     0.00000000    0.00000000    0.00000000
     atom   42 type  1   force =     0.00000000    0.00000000    0.00000000
     atom   43 type  1   force =     0.00000000    0.00000000    0.00000000
     atom   44 type  1   force =     0.00000000    0.00000000    0.00000000
     atom   45 type  1   force =     0.00000000    0.00000000    0.00000000
     atom   46 type  1   force =     0.00000000    0.00000000    0.00000000
     atom   47 type  1   force =     0.00000000    0.00000000    0.00000000
     atom   48 type  1   force =     0.00000000    0.00000000    0.00000000
     atom   49 type  1   force =     0.00000000    0.00000000    0.00000000
     atom   50 type  1   force =     0.00000000    0.00000000    0.00000000
     atom   51 type  1   force =     0.00000000    0.00000000    0.00000000
     atom   52 type  1   force =     0.00000000    0.00000000    0.00000000
     atom   53 type  1   force =     0.00000000    0.00000000    0.00000000
     atom   54 type  1   force =     0.00000000    0.00000000    0.00000000
     atom   55 type  1   force =     0.00000000    0.00000000    0.00000000
     atom   56 type  1   force =     0.00000000    0.00000000    0.00000000
     atom   57 type  1   force =     0.00000000    0.00000000    0.00000000
     atom   58 type  1   force =     0.00000000    0.00000000    0.00000000
     atom   59 type  1   force =     0.00000000    0.00000000    0.00000000
     atom   60 type  1   force =     0.00000000    0.00000000    0.00000000
     atom   61 type  1   force =     0.00000000    0.00000000    0.00000000
     atom   62 type  1   force =     0.00000000    0.00000000    0.00000000
     atom   63 type  1   force =     0.00000000    0.00000000    0.00000000
     atom   64 type  1   force =     0.00000000    0.00000000    0.00000000
     atom   65 type  1   force =     0.00000000    0.00000000    0.00000000
     atom   66 type  1   force =     0.00000000    0.00000000    0.00000000
     atom   67 type  1   force =     0.00000000    0.00000000    0.00000000
     atom   68 type  1   force =     0.00000000    0.00000000    0.00000000
     The Hubbard contrib.    to forces
     atom    1 type  1   force =     0.00000000    0.00000000    0.00000000
     atom    2 type  1   force =     0.00000000    0.00000000    0.00000000
     atom    3 type  1   force =     0.00000000    0.00000000    0.00000000
     atom    4 type  1   force =     0.00000000    0.00000000    0.00000000
     atom    5 type  1   force =     0.00000000    0.00000000    0.00000000
     atom    6 type  1   force =     0.00000000    0.00000000    0.00000000
     atom    7 type  1   force =     0.00000000    0.00000000    0.00000000
     atom    8 type  1   force =     0.00000000    0.00000000    0.00000000
     atom    9 type  1   force =     0.00000000    0.00000000    0.00000000
     atom   10 type  1   force =     0.00000000    0.00000000    0.00000000
     atom   11 type  1   force =     0.00000000    0.00000000    0.00000000
     atom   12 type  1   force =     0.00000000    0.00000000    0.00000000
     atom   13 type  1   force =     0.00000000    0.00000000    0.00000000
     atom   14 type  1   force =     0.00000000    0.00000000    0.00000000
     atom   15 type  1   force =     0.00000000    0.00000000    0.00000000
     atom   16 type  1   force =     0.00000000    0.00000000    0.00000000
     atom   17 type  1   force =     0.00000000    0.00000000    0.00000000
     atom   18 type  1   force =     0.00000000    0.00000000    0.00000000
     atom   19 type  1   force =     0.00000000    0.00000000    0.00000000
     atom   20 type  1   force =     0.00000000    0.00000000    0.00000000
     atom   21 type  1   force =     0.00000000    0.00000000    0.00000000
     atom   22 type  1   force =     0.00000000    0.00000000    0.00000000
     atom   23 type  1   force =     0.00000000    0.00000000    0.00000000
     atom   24 type  1   force =     0.00000000    0.00000000    0.00000000
     atom   25 type  1   force =     0.00000000    0.00000000    0.00000000
     atom   26 type  1   force =     0.00000000    0.00000000    0.00000000
     atom   27 type  1   force =     0.00000000    0.00000000    0.00000000
     atom   28 type  1   force =     0.00000000    0.00000000    0.00000000
     atom   29 type  1   force =     0.00000000    0.00000000    0.00000000
     atom   30 type  1   force =     0.00000000    0.00000000    0.00000000
     atom   31 type  1   force =     0.00000000    0.00000000    0.00000000
     atom   32 type  1   force =     0.00000000    0.00000000    0.00000000
     atom   33 type  1   force =     0.00000000    0.00000000    0.00000000
     atom   34 type  1   force =     0.00000000    0.00000000    0.00000000
     atom   35 type  1   force =     0.00000000    0.00000000    0.00000000
     atom   36 type  1   force =     0.00000000    0.00000000    0.00000000
     atom   37 type  1   force =     0.00000000    0.00000000    0.00000000
     atom   38 type  1   force =     0.00000000    0.00000000    0.00000000
     atom   39 type  1   force =     0.00000000    0.00000000    0.00000000
     atom   40 type  1   force =     0.00000000    0.00000000    0.00000000
     atom   41 type  1   force =     0.00000000    0.00000000    0.00000000
     atom   42 type  1   force =     0.00000000    0.00000000    0.00000000
     atom   43 type  1   force =     0.00000000    0.00000000    0.00000000
     atom   44 type  1   force =     0.00000000    0.00000000    0.00000000
     atom   45 type  1   force =     0.00000000    0.00000000    0.00000000
     atom   46 type  1   force =     0.00000000    0.00000000    0.00000000
     atom   47 type  1   force =     0.00000000    0.00000000    0.00000000
     atom   48 type  1   force =     0.00000000    0.00000000    0.00000000
     atom   49 type  1   force =     0.00000000    0.00000000    0.00000000
     atom   50 type  1   force =     0.00000000    0.00000000    0.00000000
     atom   51 type  1   force =     0.00000000    0.00000000    0.00000000
     atom   52 type  1   force =     0.00000000    0.00000000    0.00000000
     atom   53 type  1   force =     0.00000000    0.00000000    0.00000000
     atom   54 type  1   force =     0.00000000    0.00000000    0.00000000
     atom   55 type  1   force =     0.00000000    0.00000000    0.00000000
     atom   56 type  1   force =     0.00000000    0.00000000    0.00000000
     atom   57 type  1   force =     0.00000000    0.00000000    0.00000000
     atom   58 type  1   force =     0.00000000    0.00000000    0.00000000
     atom   59 type  1   force =     0.00000000    0.00000000    0.00000000
     atom   60 type  1   force =     0.00000000    0.00000000    0.00000000
     atom   61 type  1   force =     0.00000000    0.00000000    0.00000000
     atom   62 type  1   force =     0.00000000    0.00000000    0.00000000
     atom   63 type  1   force =     0.00000000    0.00000000    0.00000000
     atom   64 type  1   force =     0.00000000    0.00000000    0.00000000
     atom   65 type  1   force =     0.00000000    0.00000000    0.00000000
     atom   66 type  1   force =     0.00000000    0.00000000    0.00000000
     atom   67 type  1   force =     0.00000000    0.00000000    0.00000000
     atom   68 type  1   force =     0.00000000    0.00000000    0.00000000
     The SCF correction term to forces
     atom    1 type  1   force =     0.00000000    0.00000000    0.00000000
     atom    2 type  1   force =     0.00000000    0.00000000   -0.00000000
     atom    3 type  1   force =     0.00000000    0.00000000   -0.00000000
     atom    4 type  1   force =    -0.00000000   -0.00000000   -0.00000000
     atom    5 type  1   force =     0.00000000    0.00000000   -0.00000000
     atom    6 type  1   force =    -0.00000000    0.00000000   -0.00000000
     atom    7 type  1   force =    -0.00000000   -0.00000000   -0.00000000
     atom    8 type  1   force =     0.00000000   -0.00000000   -0.00000000
     atom    9 type  1   force =     0.00000000    0.00000000    0.00000000
     atom   10 type  1   force =    -0.00000000   -0.00000000   -0.00000000
     atom   11 type  1   force =    -0.00000000   -0.00000000   -0.00000000
     atom   12 type  1   force =     0.00000000   -0.00000000    0.00000000
     atom   13 type  1   force =     0.00000000   -0.00000000    0.00000000
     atom   14 type  1   force =     0.00000000    0.00000000    0.00000000
     atom   15 type  1   force =    -0.00000000    0.00000000    0.00000000
     atom   16 type  1   force =     0.00000000    0.00000000    0.00000000
     atom   17 type  1   force =     0.00000000   -0.00000000    0.00000000
     atom   18 type  1   force =     0.00000000   -0.00000000   -0.00000000
     atom   19 type  1   force =     0.00000000    0.00000000   -0.00000000
     atom   20 type  1   force =    -0.00000000   -0.00000000    0.00000000
     atom   21 type  1   force =    -0.00000000   -0.00000000   -0.00000000
     atom   22 type  1   force =     0.00000000    0.00000000    0.00000000
     atom   23 type  1   force =    -0.00000000    0.00000000    0.00000000
     atom   24 type  1   force =    -0.00000000   -0.00000000    0.00000000
     atom   25 type  1   force =    -0.00000000    0.00000000    0.00000000
     atom   26 type  1   force =    -0.00000000   -0.00000000   -0.00000000
     atom   27 type  1   force =    -0.00000000    0.00000000    0.00000000
     atom   28 type  1   force =    -0.00000000   -0.00000000    0.00000000
     atom   29 type  1   force =     0.00000000   -0.00000000    0.00000000
     atom   30 type  1   force =    -0.00000000   -0.00000000    0.00000000
     atom   31 type  1   force =    -0.00000000    0.00000000    0.00000000
     atom   32 type  1   force =    -0.00000000   -0.00000000   -0.00000000
     atom   33 type  1   force =    -0.00000000    0.00000000   -0.00000000
     atom   34 type  1   force =     0.00000000   -0.00000000   -0.00000000
     atom   35 type  1   force =     0.00000000    0.00000000    0.00000000
     atom   36 type  1   force =    -0.00000000    0.00000000   -0.00000000
     atom   37 type  1   force =    -0.00000000    0.00000000   -0.00000000
     atom   38 type  1   force =     0.00000000   -0.00000000   -0.00000000
     atom   39 type  1   force =    -0.00000000    0.00000000   -0.00000000
     atom   40 type  1   force =     0.00000000    0.00000000   -0.00000000
     atom   41 type  1   force =     0.00000000   -0.00000000   -0.00000000
     atom   42 type  1   force =    -0.00000000   -0.00000000   -0.00000000
     atom   43 type  1   force =    -0.00000000    0.00000000    0.00000000
     atom   44 type  1   force =     0.00000000   -0.00000000   -0.00000000
     atom   45 type  1   force =     0.00000000   -0.00000000   -0.00000000
     atom   46 type  1   force =     0.00000000   -0.00000000    0.00000000
     atom   47 type  1   force =    -0.00000000   -0.00000000    0.00000000
     atom   48 type  1   force =     0.00000000    0.00000000    0.00000000
     atom   49 type  1   force =    -0.00000000    0.00000000    0.00000000
     atom   50 type  1   force =     0.00000000    0.00000000    0.00000000
     atom   51 type  1   force =    -0.00000000   -0.00000000    0.00000000
     atom   52 type  1   force =    -0.00000000   -0.00000000   -0.00000000
     atom   53 type  1   force =    -0.00000000    0.00000000   -0.00000000
     atom   54 type  1   force =     0.00000000   -0.00000000    0.00000000
     atom   55 type  1   force =     0.00000000   -0.00000000   -0.00000000
     atom   56 type  1   force =     0.00000000    0.00000000    0.00000000
     atom   57 type  1   force =     0.00000000    0.00000000    0.00000000
     atom   58 type  1   force =     0.00000000   -0.00000000    0.00000000
     atom   59 type  1   force =    -0.00000000    0.00000000    0.00000000
     atom   60 type  1   force =    -0.00000000   -0.00000000   -0.00000000
     atom   61 type  1   force =     0.00000000    0.00000000    0.00000000
     atom   62 type  1   force =     0.00000000   -0.00000000    0.00000000
     atom   63 type  1   force =     0.00000000   -0.00000000    0.00000000
     atom   64 type  1   force =     0.00000000   -0.00000000    0.00000000
     atom   65 type  1   force =    -0.00000000    0.00000000    0.00000000
     atom   66 type  1   force =     0.00000000   -0.00000000   -0.00000000
     atom   67 type  1   force =     0.00000000    0.00000000   -0.00000000
     atom   68 type  1   force =    -0.00000000   -0.00000000   -0.00000000

     Total force =     0.013180     Total SCF correction =     0.000000

     Writing all to output data dir ./Li/Lithium.save/ :
     XML data file
     init_run     :     35.70s CPU     48.10s WALL (       1 calls)
     electrons    :   4868.60s CPU   6285.81s WALL (       1 calls)
     forces       :    108.44s CPU    114.74s WALL (       1 calls)

     Called by init_run:
     wfcinit      :      7.78s CPU     10.79s WALL (       1 calls)
     wfcinit:wfcr :      7.12s CPU     10.11s WALL (      13 calls)
     potinit      :      1.19s CPU      1.28s WALL (       1 calls)
     hinit0       :     11.50s CPU     20.43s WALL (       1 calls)

     Called by electrons:
     c_bands      :   3429.62s CPU   4551.55s WALL (      67 calls)
     sum_band     :    242.51s CPU    340.78s WALL (      67 calls)
     v_of_rho     :      9.51s CPU     10.92s WALL (      68 calls)
     v_h          :      0.77s CPU      0.92s WALL (      68 calls)
     v_xc         :      8.74s CPU     10.00s WALL (      68 calls)
     newd         :      5.97s CPU      8.00s WALL (      68 calls)
     PAW_pot      :      0.70s CPU      0.93s WALL (      68 calls)
     mix_rho      :     29.91s CPU     34.62s WALL (      67 calls)

     Called by c_bands:
     init_us_2    :     44.78s CPU     44.97s WALL (    1768 calls)
     cegterg      :   3254.89s CPU   4152.41s WALL (    1035 calls)

     Called by sum_band:
     sum_band:wei :      0.15s CPU      0.18s WALL (      67 calls)
     sum_band:loo :    235.03s CPU    332.64s WALL (      67 calls)
     sum_band:buf :      4.94s CPU      5.06s WALL (     871 calls)
     sum_band:ini :     22.14s CPU     22.17s WALL (     871 calls)
     sum_band:cal :     44.73s CPU     47.85s WALL (     871 calls)
     sum_band:bec :      0.35s CPU      0.41s WALL (     871 calls)
     addusdens    :      5.79s CPU      5.85s WALL (      67 calls)
                                        0.00s GPU  (      67 calls)
     addusd:skk   :      1.60s CPU      1.60s WALL (      67 calls)
                                        0.00s GPU  (      67 calls)

     Called by *egterg:
     cdiaghg      :    807.10s CPU    923.07s WALL (   11635 calls)
     cegterg:over :    244.41s CPU    264.80s WALL (   10676 calls)
     cegterg:upda :    204.67s CPU    212.63s WALL (   10676 calls)
     cegterg:last :     86.31s CPU     93.08s WALL (    1295 calls)
     cdiaghg:chol :     38.07s CPU     72.52s WALL (   11635 calls)
     cdiaghg:inve :     18.26s CPU     20.14s WALL (   11635 calls)
     cdiaghg:para :    224.93s CPU    263.89s WALL (   23270 calls)
     h_psi        :   1668.29s CPU   2411.95s WALL (   11724 calls)
     s_psi        :    196.73s CPU    197.32s WALL (   11724 calls)
     g_psi        :      3.60s CPU      3.89s WALL (   10676 calls)

     Called by h_psi:
     h_psi:calbec :    230.76s CPU    250.62s WALL (   11724 calls)
     vloc_psi     :   1223.55s CPU   1945.61s WALL (   11724 calls)
                                        0.00s GPU  (   11724 calls)
     add_vuspsi   :    200.52s CPU    201.69s WALL (   11724 calls)

     General routines
     calbec       :    277.88s CPU    301.06s WALL (   12647 calls)
     fft          :     10.35s CPU     20.29s WALL (     884 calls)
     ffts         :     15.15s CPU     18.18s WALL (    8253 calls)
     fftw         :   1334.84s CPU   2124.69s WALL ( 1165251 calls)
     interpolate  :      1.66s CPU      1.84s WALL (      68 calls)

     Parallel routines

     PAW routines
     PAW_pot      :      0.70s CPU      0.93s WALL (      68 calls)

     Environ routines

     PWSCF        :      1h23m CPU      1h47m WALL


   This run was terminated on:  12:45:49  21Jan2025            

=------------------------------------------------------------------------------=
   JOB DONE.
=------------------------------------------------------------------------------=
