
     Program PWSCF v.7.4 starts on  2Jan2025 at 10:45:29 

     This program is part of the open-source Quantum ESPRESSO suite
     for quantum simulation of materials; please cite
         "P. Giannozzi et al., J. Phys.:Condens. Matter 21 395502 (2009);
         "P. Giannozzi et al., J. Phys.:Condens. Matter 29 465901 (2017);
         "P. Giannozzi et al., J. Chem. Phys. 152 154105 (2020);
          URL http://www.quantum-espresso.org", 
     in publications or presentations arising from this work. More details at
     http://www.quantum-espresso.org/quote

     Parallel version (MPI & OpenMP), running on     512 processor cores
     Number of MPI processes:               512
     Threads/MPI process:                     1

     MPI processes distributed on     4 nodes
     228994 MiB available memory on the printing compute node when the environment starts

     Reading input from espresso.pwi
Warning: card &CELL ignored
Warning: card    PRESS_CONV_THR   = 0.1 ignored
Warning: card    CELL_DOFREE      = 'ALL' ignored
Warning: card / ignored
Warning: card &FCP ignored
Warning: card / ignored
Warning: card &RISM ignored
Warning: card / ignored

     Current dimensions of program PWSCF are:
     Max number of different atomic species (ntypx) = 10
     Max number of k-points (npk) =  40000
     Max angular momentum in pseudopotentials (lmaxx) =  4

     IMPORTANT: XC functional enforced from input :
     Exchange-correlation= PBE
                           (   1   4   3   4   0   0   0)
     Any further DFT definition will be discarded
     Please, verify this is what you really want


     Reading input from environ.in:
     * using ionic solvent mode
     * setting boundary derivatives method to SSCS default
     * setting electrolyte-boundary derivatives method to SSCS default

Environ Warning (1001): card EOF ignored

     

     K-points division:     npool     =       2
     R & G space division:  proc/nbgrp/npool/nimage =     256
     Subspace diagonalization in iterative solution of the eigenvalue problem:
     a serial algorithm will be used


     Parallelization info
     --------------------
     sticks:   dense  smooth     PW     G-vecs:    dense   smooth      PW
     Min          39      15      4                23005     5783     788
     Max          40      16      5                23062     5870     851
     Sum       10033    4007   1075              5896473  1491071  208783

     Using Slab Decomposition



     bravais-lattice index     =           12
     lattice parameter (alat)  =      11.2436  a.u.
     unit-cell volume          =   15431.5264 (a.u.)^3
     number of atoms/cell      =           28
     number of atomic types    =            1
     number of electrons       =        84.00
     number of Kohn-Sham states=           63
     kinetic-energy cutoff     =      80.0000  Ry
     charge density cutoff     =     800.0000  Ry
     scf convergence threshold =      1.0E-06
     mixing beta               =       0.2000
     number of iterations used =            8  local-TF  mixing
     energy convergence thresh.=      1.0E-05
     force convergence thresh. =      3.9E-04
     Exchange-correlation= PBE
                           (   1   4   3   4   0   0   0)
     nstep                     =          999


     ================================================================================

                                  Environ Setup Summary

     ================================================================================

     Please cite

          O. Andreussi, I. Dabo and N. Marzari, J. Chem. Phys. 136, 064102 (2012)
          F. Nattino, M. Truscott, N. Marzari, and O. Andreussi, J. Chem. Phys. 150, 041722 (2019)

     in publications or presentations arising from this work.

     ================================================================================

     Parameters
     ==========

     compensation onset threshold      =               0.1000E+00
     static permittivity               =                    89.90
     surface tension in input (dyn/cm) =                    37.30
     surface tension in internal units =               0.4792E-04

     Solvent Boundary
     ================

     solvent mode                      =                    ionic
     derivatives method                =                   lowmem
     electrolyte derivatives method    =                   lowmem
     numerical core for derivatives    =                      fft
     switching function adopted        =                     SCCS
     density limit for vacuum region   =               0.5000E-02
     density limit for bulk solvent    =               0.1000E-03
     soft-sphere radius mode           =                    bondi
     soft-sphere softness              =                     0.50
     alpha                             =                     1.32

     Electrostatic Setup
     ===================

     electrostatic problem to solve    =                    modpb
     numerical solver adopted          =                   newton
     type of auxiliary density adopted =                     none
     numerical core for poisson        =                      fft
     adopting a nested solver scheme
     inner solver                      =                       cg
     inner core                        =                      fft
     type of pbc corrections           =                parabolic
     numerical core for corrections    =                      1da

     ================================================================================


     >>>>> Grand-Canonical SCF is activated <<<<<
     Initial Total Charge  =     0.000000 e
     Target Fermi Energy   =    -2.904000 eV
     Thr. of Fermi Energy  =     0.001000 eV
     Wave-shift of Kerker  =     0.400000 bohr^-1
     Wave-shift of Hartree =     1.500000 bohr^-1
     Mixing Rate of Fermi  =     0.050000

     celldm(1)=  11.243615  celldm(2)=   1.258306  celldm(3)=   8.704589
     celldm(4)=  -0.132454  celldm(5)=   0.000000  celldm(6)=   0.000000

     crystal axes: (cart. coord. in units of alat)
               a(1) = (   1.000000   0.000000   0.000000 )  
               a(2) = (  -0.166667   1.247219   0.000000 )  
               a(3) = (   0.000000   0.000000   8.704589 )  

     reciprocal axes: (cart. coord. in units 2 pi/alat)
               b(1) = (  1.000000  0.133631 -0.000000 )  
               b(2) = (  0.000000  0.801784  0.000000 )  
               b(3) = (  0.000000 -0.000000  0.114882 )  


     PseudoPot. # 1 for Li read from file:
     /work/e89/e89/ba3g18/Repos/Pseudopotentials/Pslibrary/Li.pbe-sl-kjpaw_psl.1.0.0.UPF
     MD5 check sum: 3f4d2cafebb47c6c3aa8ed472e6f074d
     Pseudo is Projector augmented-wave, Zval =  3.0
     Generated using 'atomic' code by A. Dal Corso  v.7.4
     Shape of augmentation charge: PSQ
     Using radial grid of 1017 points,  4 beta functions with: 
                l(1) =   0
                l(2) =   0
                l(3) =   1
                l(4) =   1
     Q(r) pseudized with 0 coefficients 


     atomic species   valence    mass     pseudopotential
     Li                3.00     6.94000     Li( 1.00)

     No symmetry found


                                    s                        frac. trans.

      isym =  1     identity                                     

 cryst.   s( 1) = (     1          0          0      )
                  (     0          1          0      )
                  (     0          0          1      )

 cart.    s( 1) = (  1.0000000  0.0000000  0.0000000 )
                  (  0.0000000  1.0000000  0.0000000 )
                  (  0.0000000  0.0000000  1.0000000 )


     point group C_1 (1)    
     there are  1 classes
     the character table:

       E    
A      1.00

     the symmetry operations in each class and the name of the first element:

     E        1
          identity                                               

   Cartesian axes

     site n.     atom                  positions (alat units)
         1        Li     tau(   1) = (   0.0461527  -0.0421070   5.3576242  )
         2        Li     tau(   2) = (  -0.0461472   0.8438920   3.3469648  )
         3        Li     tau(   3) = (   0.1277859   0.3571317   3.4916267  )
         4        Li     tau(   4) = (   0.1714210   1.1680815   3.6818215  )
         5        Li     tau(   5) = (   0.3011134   0.7103495   3.7856439  )
         6        Li     tau(   6) = (  -0.0004688   0.2804061   3.9696468  )
         7        Li     tau(   7) = (  -0.0265281   1.0614705   4.1162921  )
         8        Li     tau(   8) = (   0.1802878   0.6323309   4.2748329  )
         9        Li     tau(   9) = (   0.3197151   0.1694517   4.4297579  )
        10        Li     tau(  10) = (   0.3598618   0.9875309   4.5882970  )
        11        Li     tau(  11) = (   0.0004703   0.5213766   4.7349417  )
        12        Li     tau(  12) = (   0.1988891   0.0914357   4.9189459  )
        13        Li     tau(  13) = (   0.1619093   0.8809203   5.0227667  )
        14        Li     tau(  14) = (   0.3722073   0.4446538   5.2129610  )
        15        Li     tau(  15) = (   0.5461557  -0.0421072   5.3576241  )
        16        Li     tau(  16) = (   0.4538311   0.8438919   3.3469661  )
        17        Li     tau(  17) = (   0.6277967   0.3571319   3.4916281  )
        18        Li     tau(  18) = (   0.6714235   1.1680850   3.6818235  )
        19        Li     tau(  19) = (   0.8011091   0.7103467   3.7856442  )
        20        Li     tau(  20) = (   0.4995343   0.2804081   3.9696482  )
        21        Li     tau(  21) = (   0.4734722   1.0614701   4.1162928  )
        22        Li     tau(  22) = (   0.6802878   0.6323300   4.2748311  )
        23        Li     tau(  23) = (   0.8197148   0.1694515   4.4297578  )
        24        Li     tau(  24) = (   0.8598625   0.9875305   4.5882978  )
        25        Li     tau(  25) = (   0.5004701   0.5213762   4.7349423  )
        26        Li     tau(  26) = (   0.6988872   0.0914355   4.9189457  )
        27        Li     tau(  27) = (   0.6619100   0.8809203   5.0227669  )
        28        Li     tau(  28) = (   0.8722090   0.4446539   5.2129617  )

   Crystallographic axes

     site n.     atom                  positions (cryst. coord.)
         1        Li     tau(   1) = (  0.0405259 -0.0337607  0.6154942  )
         2        Li     tau(   2) = (  0.0666228  0.6766189  0.3845058  )
         3        Li     tau(   3) = (  0.1755097  0.2863424  0.4011248  )
         4        Li     tau(   4) = (  0.3275128  0.9365488  0.4229748  )
         5        Li     tau(   5) = (  0.3960380  0.5695467  0.4349021  )
         6        Li     tau(   6) = (  0.0370021  0.2248251  0.4560407  )
         7        Li     tau(   7) = (  0.1153172  0.8510699  0.4728876  )
         8        Li     tau(   8) = (  0.2647867  0.5069927  0.4911011  )
         9        Li     tau(   9) = (  0.3423591  0.1358636  0.5088991  )
        10        Li     tau(  10) = (  0.4918264  0.7917863  0.5271124  )
        11        Li     tau(  11) = (  0.0701423  0.4180313  0.5439592  )
        12        Li     tau(  12) = (  0.2111077  0.0733117  0.5650980  )
        13        Li     tau(  13) = (  0.2796275  0.7063076  0.5770251  )
        14        Li     tau(  14) = (  0.4316268  0.3565162  0.5988750  )
        15        Li     tau(  15) = (  0.5405289 -0.0337609  0.6154942  )
        16        Li     tau(  16) = (  0.5666011  0.6766189  0.3845059  )
        17        Li     tau(  17) = (  0.6755206  0.2863426  0.4011250  )
        18        Li     tau(  18) = (  0.8275157  0.9365516  0.4229750  )
        19        Li     tau(  19) = (  0.8960334  0.5695445  0.4349021  )
        20        Li     tau(  20) = (  0.5370055  0.2248267  0.4560409  )
        21        Li     tau(  21) = (  0.6153174  0.8510695  0.4728877  )
        22        Li     tau(  22) = (  0.7647866  0.5069920  0.4911009  )
        23        Li     tau(  23) = (  0.8423588  0.1358635  0.5088991  )
        24        Li     tau(  24) = (  0.9918271  0.7917860  0.5271125  )
        25        Li     tau(  25) = (  0.5701421  0.4180310  0.5439593  )
        26        Li     tau(  26) = (  0.7111058  0.0733115  0.5650980  )
        27        Li     tau(  27) = (  0.7796282  0.7063076  0.5770252  )
        28        Li     tau(  28) = (  0.9316285  0.3565163  0.5988751  )

     number of k points=    50  Marzari-Vanderbilt smearing, width (Ry)=  0.0100
                       cart. coord. in units 2pi/alat
        k(    1) = (   0.0000000   0.0000000   0.0000000), wk =   0.0202020
        k(    2) = (   0.0000000   0.0890871   0.0000000), wk =   0.0404040
        k(    3) = (   0.0000000   0.1781742   0.0000000), wk =   0.0404040
        k(    4) = (   0.0000000   0.2672613   0.0000000), wk =   0.0404040
        k(    5) = (   0.0000000   0.3563484   0.0000000), wk =   0.0404040
        k(    6) = (   0.0909091   0.0121483   0.0000000), wk =   0.0404040
        k(    7) = (   0.0909091   0.1012354   0.0000000), wk =   0.0404040
        k(    8) = (   0.0909091   0.1903224   0.0000000), wk =   0.0404040
        k(    9) = (   0.0909091   0.2794095   0.0000000), wk =   0.0404040
        k(   10) = (   0.0909091   0.3684966   0.0000000), wk =   0.0404040
        k(   11) = (   0.0909091  -0.3442001   0.0000000), wk =   0.0404040
        k(   12) = (   0.0909091  -0.2551130   0.0000000), wk =   0.0404040
        k(   13) = (   0.0909091  -0.1660259   0.0000000), wk =   0.0404040
        k(   14) = (   0.0909091  -0.0769388   0.0000000), wk =   0.0404040
        k(   15) = (   0.1818182   0.0242965   0.0000000), wk =   0.0404040
        k(   16) = (   0.1818182   0.1133836   0.0000000), wk =   0.0404040
        k(   17) = (   0.1818182   0.2024707   0.0000000), wk =   0.0404040
        k(   18) = (   0.1818182   0.2915578   0.0000000), wk =   0.0404040
        k(   19) = (   0.1818182   0.3806449   0.0000000), wk =   0.0404040
        k(   20) = (   0.1818182  -0.3320518   0.0000000), wk =   0.0404040
        k(   21) = (   0.1818182  -0.2429647   0.0000000), wk =   0.0404040
        k(   22) = (   0.1818182  -0.1538777   0.0000000), wk =   0.0404040
        k(   23) = (   0.1818182  -0.0647906   0.0000000), wk =   0.0404040
        k(   24) = (   0.2727273   0.0364448   0.0000000), wk =   0.0404040
        k(   25) = (   0.2727273   0.1255319   0.0000000), wk =   0.0404040
        k(   26) = (   0.2727273   0.2146190   0.0000000), wk =   0.0404040
        k(   27) = (   0.2727273   0.3037061   0.0000000), wk =   0.0404040
        k(   28) = (   0.2727273   0.3927932   0.0000000), wk =   0.0404040
        k(   29) = (   0.2727273  -0.3199036   0.0000000), wk =   0.0404040
        k(   30) = (   0.2727273  -0.2308165   0.0000000), wk =   0.0404040
        k(   31) = (   0.2727273  -0.1417294   0.0000000), wk =   0.0404040
        k(   32) = (   0.2727273  -0.0526423   0.0000000), wk =   0.0404040
        k(   33) = (   0.3636364   0.0485931   0.0000000), wk =   0.0404040
        k(   34) = (   0.3636364   0.1376801   0.0000000), wk =   0.0404040
        k(   35) = (   0.3636364   0.2267672   0.0000000), wk =   0.0404040
        k(   36) = (   0.3636364   0.3158543   0.0000000), wk =   0.0404040
        k(   37) = (   0.3636364   0.4049414   0.0000000), wk =   0.0404040
        k(   38) = (   0.3636364  -0.3077553   0.0000000), wk =   0.0404040
        k(   39) = (   0.3636364  -0.2186682   0.0000000), wk =   0.0404040
        k(   40) = (   0.3636364  -0.1295811   0.0000000), wk =   0.0404040
        k(   41) = (   0.3636364  -0.0404940   0.0000000), wk =   0.0404040
        k(   42) = (   0.4545455   0.0607413   0.0000000), wk =   0.0404040
        k(   43) = (   0.4545455   0.1498284   0.0000000), wk =   0.0404040
        k(   44) = (   0.4545455   0.2389155   0.0000000), wk =   0.0404040
        k(   45) = (   0.4545455   0.3280026   0.0000000), wk =   0.0404040
        k(   46) = (   0.4545455   0.4170897   0.0000000), wk =   0.0404040
        k(   47) = (   0.4545455  -0.2956070   0.0000000), wk =   0.0404040
        k(   48) = (   0.4545455  -0.2065200   0.0000000), wk =   0.0404040
        k(   49) = (   0.4545455  -0.1174329   0.0000000), wk =   0.0404040
        k(   50) = (   0.4545455  -0.0283458   0.0000000), wk =   0.0404040

                       cryst. coord.
        k(    1) = (   0.0000000   0.0000000   0.0000000), wk =   0.0202020
        k(    2) = (   0.0000000   0.1111111   0.0000000), wk =   0.0404040
        k(    3) = (   0.0000000   0.2222222   0.0000000), wk =   0.0404040
        k(    4) = (   0.0000000   0.3333333   0.0000000), wk =   0.0404040
        k(    5) = (   0.0000000   0.4444444   0.0000000), wk =   0.0404040
        k(    6) = (   0.0909091  -0.0000000   0.0000000), wk =   0.0404040
        k(    7) = (   0.0909091   0.1111111   0.0000000), wk =   0.0404040
        k(    8) = (   0.0909091   0.2222222   0.0000000), wk =   0.0404040
        k(    9) = (   0.0909091   0.3333333   0.0000000), wk =   0.0404040
        k(   10) = (   0.0909091   0.4444444   0.0000000), wk =   0.0404040
        k(   11) = (   0.0909091  -0.4444444   0.0000000), wk =   0.0404040
        k(   12) = (   0.0909091  -0.3333333   0.0000000), wk =   0.0404040
        k(   13) = (   0.0909091  -0.2222222   0.0000000), wk =   0.0404040
        k(   14) = (   0.0909091  -0.1111111   0.0000000), wk =   0.0404040
        k(   15) = (   0.1818182  -0.0000000   0.0000000), wk =   0.0404040
        k(   16) = (   0.1818182   0.1111111   0.0000000), wk =   0.0404040
        k(   17) = (   0.1818182   0.2222222   0.0000000), wk =   0.0404040
        k(   18) = (   0.1818182   0.3333333   0.0000000), wk =   0.0404040
        k(   19) = (   0.1818182   0.4444444   0.0000000), wk =   0.0404040
        k(   20) = (   0.1818182  -0.4444444   0.0000000), wk =   0.0404040
        k(   21) = (   0.1818182  -0.3333333   0.0000000), wk =   0.0404040
        k(   22) = (   0.1818182  -0.2222222   0.0000000), wk =   0.0404040
        k(   23) = (   0.1818182  -0.1111111   0.0000000), wk =   0.0404040
        k(   24) = (   0.2727273   0.0000000   0.0000000), wk =   0.0404040
        k(   25) = (   0.2727273   0.1111111   0.0000000), wk =   0.0404040
        k(   26) = (   0.2727273   0.2222222   0.0000000), wk =   0.0404040
        k(   27) = (   0.2727273   0.3333333   0.0000000), wk =   0.0404040
        k(   28) = (   0.2727273   0.4444444   0.0000000), wk =   0.0404040
        k(   29) = (   0.2727273  -0.4444444   0.0000000), wk =   0.0404040
        k(   30) = (   0.2727273  -0.3333333   0.0000000), wk =   0.0404040
        k(   31) = (   0.2727273  -0.2222222   0.0000000), wk =   0.0404040
        k(   32) = (   0.2727273  -0.1111111   0.0000000), wk =   0.0404040
        k(   33) = (   0.3636364  -0.0000000   0.0000000), wk =   0.0404040
        k(   34) = (   0.3636364   0.1111111   0.0000000), wk =   0.0404040
        k(   35) = (   0.3636364   0.2222222   0.0000000), wk =   0.0404040
        k(   36) = (   0.3636364   0.3333333   0.0000000), wk =   0.0404040
        k(   37) = (   0.3636364   0.4444444   0.0000000), wk =   0.0404040
        k(   38) = (   0.3636364  -0.4444444   0.0000000), wk =   0.0404040
        k(   39) = (   0.3636364  -0.3333333   0.0000000), wk =   0.0404040
        k(   40) = (   0.3636364  -0.2222222   0.0000000), wk =   0.0404040
        k(   41) = (   0.3636364  -0.1111111   0.0000000), wk =   0.0404040
        k(   42) = (   0.4545455  -0.0000000   0.0000000), wk =   0.0404040
        k(   43) = (   0.4545455   0.1111111   0.0000000), wk =   0.0404040
        k(   44) = (   0.4545455   0.2222222   0.0000000), wk =   0.0404040
        k(   45) = (   0.4545455   0.3333333   0.0000000), wk =   0.0404040
        k(   46) = (   0.4545455   0.4444444   0.0000000), wk =   0.0404040
        k(   47) = (   0.4545455  -0.4444444   0.0000000), wk =   0.0404040
        k(   48) = (   0.4545455  -0.3333333   0.0000000), wk =   0.0404040
        k(   49) = (   0.4545455  -0.2222222   0.0000000), wk =   0.0404040
        k(   50) = (   0.4545455  -0.1111111   0.0000000), wk =   0.0404040

     Dense  grid:  5896473 G-vectors     FFT dimensions: ( 108, 128, 900)

     Smooth grid:  1491071 G-vectors     FFT dimensions: (  72,  81, 576)

     Dynamical RAM for                 wfc:       0.70 MB

     Dynamical RAM for     wfc (w. buffer):      18.20 MB

     Dynamical RAM for           str. fact:       0.35 MB

     Dynamical RAM for           local pot:       0.00 MB

     Dynamical RAM for          nlocal pot:       2.49 MB

     Dynamical RAM for                qrad:       0.65 MB

     Dynamical RAM for          rho,v,vnew:       2.32 MB

     Dynamical RAM for               rhoin:       0.77 MB

     Dynamical RAM for            rho*nmix:       5.62 MB

     Dynamical RAM for           G-vectors:       1.36 MB

     Dynamical RAM for          h,s,v(r/c):       2.91 MB

     Dynamical RAM for          <psi|beta>:       0.22 MB

     Dynamical RAM for                 psi:       2.80 MB

     Dynamical RAM for                hpsi:       2.80 MB

     Dynamical RAM for                spsi:       2.80 MB

     Dynamical RAM for      wfcinit/wfcrot:       1.49 MB

     Dynamical RAM for           addusdens:      12.65 MB

     Dynamical RAM for          addusforce:      22.17 MB

     Estimated static dynamical RAM per process >      28.95 MB

     Estimated max dynamical RAM per process >      89.97 MB

     Estimated total dynamical RAM >      26.96 GB

     Initial potential from superposition of free atoms

     starting charge      83.8710, renormalised to      84.0000

     negative rho (up, down):  2.632E-03 0.000E+00
     Starting wfcs are random
     Checking if some PAW data can be deallocated... 

     total cpu time spent up to now is       22.3 secs

     Self-consistent Calculation

     iteration #  1     ecut=    80.00 Ry     beta= 0.20
     Davidson diagonalization with overlap

---- Real-time Memory Report at c_bands before calling an iterative solver
           339 MiB given to the printing process from OS
             0 MiB allocation reported by mallinfo(arena+hblkhd)
        218023 MiB available memory on the node where the printing process lives
------------------
     c_bands:  1 eigenvalues not converged
     c_bands:  1 eigenvalues not converged
     ethr =  1.00E-12,  avg # of iterations =114.8

     negative rho (up, down):  1.950E-03 0.000E+00

     add environment contribution to local potential

     total cpu time spent up to now is      220.1 secs

     total energy              =    -420.97440023 Ry
     estimated scf accuracy    <       0.09611268 Ry

     total charge of GC-SCF    =       0.00916520 e
     the Fermi energy          =      -4.38777536 eV
                        (error :       1.48377536 eV)
     electrostatic embedding   =       0.00000000 Ry
     cavitation energy         =       0.01864385 Ry
     electrolyte free energy   =       0.00664192 Ry
     correction to one-el term =      -0.00000000 Ry

     iteration #  2     ecut=    80.00 Ry     beta= 0.20
     Davidson diagonalization with overlap

---- Real-time Memory Report at c_bands before calling an iterative solver
           339 MiB given to the printing process from OS
             0 MiB allocation reported by mallinfo(arena+hblkhd)
        218120 MiB available memory on the node where the printing process lives
------------------
     ethr =  1.00E-05,  avg # of iterations = 21.7

     negative rho (up, down):  1.515E-03 0.000E+00

     add environment contribution to local potential

     total cpu time spent up to now is      258.7 secs

     total energy              =    -421.05013149 Ry
     estimated scf accuracy    <       0.03544190 Ry

     total charge of GC-SCF    =       0.01122323 e
     the Fermi energy          =      -3.39791747 eV
                        (error :       0.49391747 eV)
     electrostatic embedding   =      -0.02422574 Ry
     cavitation energy         =       0.01864385 Ry
     electrolyte free energy   =      -0.00341139 Ry
     correction to one-el term =       0.15581454 Ry

     iteration #  3     ecut=    80.00 Ry     beta= 0.20
     Davidson diagonalization with overlap

---- Real-time Memory Report at c_bands before calling an iterative solver
           339 MiB given to the printing process from OS
             0 MiB allocation reported by mallinfo(arena+hblkhd)
        218075 MiB available memory on the node where the printing process lives
------------------
     ethr =  1.00E-05,  avg # of iterations = 10.4

     negative rho (up, down):  1.126E-03 0.000E+00

     add environment contribution to local potential

     total cpu time spent up to now is      281.2 secs

     total energy              =    -420.97950613 Ry
     estimated scf accuracy    <       0.02010583 Ry

     total charge of GC-SCF    =       0.02264019 e
     the Fermi energy          =      -3.29103864 eV
                        (error :       0.38703864 eV)
     electrostatic embedding   =      -0.02238156 Ry
     cavitation energy         =       0.01864385 Ry
     electrolyte free energy   =      -0.00321214 Ry
     correction to one-el term =       0.35872893 Ry

     iteration #  4     ecut=    80.00 Ry     beta= 0.20
     Davidson diagonalization with overlap

---- Real-time Memory Report at c_bands before calling an iterative solver
           339 MiB given to the printing process from OS
             0 MiB allocation reported by mallinfo(arena+hblkhd)
        218098 MiB available memory on the node where the printing process lives
------------------
     ethr =  1.00E-05,  avg # of iterations = 22.0

     negative rho (up, down):  9.598E-04 0.000E+00

     add environment contribution to local potential

     total cpu time spent up to now is      318.7 secs

     total energy              =    -421.01691559 Ry
     estimated scf accuracy    <       0.00317262 Ry

     total charge of GC-SCF    =       0.02665434 e
     the Fermi energy          =      -2.84163597 eV
                        (error :       0.06236403 eV)
     electrostatic embedding   =      -0.01882243 Ry
     cavitation energy         =       0.01864385 Ry
     electrolyte free energy   =      -0.00151881 Ry
     correction to one-el term =       0.93969059 Ry

     iteration #  5     ecut=    80.00 Ry     beta= 0.20
     Davidson diagonalization with overlap

---- Real-time Memory Report at c_bands before calling an iterative solver
           339 MiB given to the printing process from OS
             0 MiB allocation reported by mallinfo(arena+hblkhd)
        218095 MiB available memory on the node where the printing process lives
------------------
     ethr =  3.78E-06,  avg # of iterations =  8.0

     negative rho (up, down):  8.212E-04 0.000E+00

     add environment contribution to local potential

     total cpu time spent up to now is      338.5 secs

     total energy              =    -421.01784838 Ry
     estimated scf accuracy    <       0.00200511 Ry

     total charge of GC-SCF    =       0.03438229 e
     the Fermi energy          =      -2.82706795 eV
                        (error :       0.07693205 eV)
     electrostatic embedding   =      -0.01934345 Ry
     cavitation energy         =       0.01864385 Ry
     electrolyte free energy   =      -0.00129604 Ry
     correction to one-el term =       1.72936353 Ry

     iteration #  6     ecut=    80.00 Ry     beta= 0.20
     Davidson diagonalization with overlap

---- Real-time Memory Report at c_bands before calling an iterative solver
           339 MiB given to the printing process from OS
             0 MiB allocation reported by mallinfo(arena+hblkhd)
        218086 MiB available memory on the node where the printing process lives
------------------
     ethr =  2.39E-06,  avg # of iterations = 10.3

     negative rho (up, down):  7.503E-04 0.000E+00

     add environment contribution to local potential

     total cpu time spent up to now is      360.8 secs

     total energy              =    -421.02021133 Ry
     estimated scf accuracy    <       0.00058344 Ry

     total charge of GC-SCF    =       0.05609249 e
     the Fermi energy          =      -2.77797579 eV
                        (error :       0.12602421 eV)
     electrostatic embedding   =      -0.02089465 Ry
     cavitation energy         =       0.01864385 Ry
     electrolyte free energy   =      -0.00099755 Ry
     correction to one-el term =       2.43966313 Ry

     iteration #  7     ecut=    80.00 Ry     beta= 0.20
     Davidson diagonalization with overlap

---- Real-time Memory Report at c_bands before calling an iterative solver
           339 MiB given to the printing process from OS
             0 MiB allocation reported by mallinfo(arena+hblkhd)
        218041 MiB available memory on the node where the printing process lives
------------------
     ethr =  6.95E-07,  avg # of iterations = 13.6

     negative rho (up, down):  6.705E-04 0.000E+00

     add environment contribution to local potential

     total cpu time spent up to now is      388.7 secs

     total energy              =    -421.02037460 Ry
     estimated scf accuracy    <       0.00016710 Ry

     total charge of GC-SCF    =       0.06449306 e
     the Fermi energy          =      -2.74635783 eV
                        (error :       0.15764217 eV)
     electrostatic embedding   =      -0.02517504 Ry
     cavitation energy         =       0.01864385 Ry
     electrolyte free energy   =      -0.00087975 Ry
     correction to one-el term =       3.18271413 Ry

     iteration #  8     ecut=    80.00 Ry     beta= 0.20
     Davidson diagonalization with overlap

---- Real-time Memory Report at c_bands before calling an iterative solver
           339 MiB given to the printing process from OS
             0 MiB allocation reported by mallinfo(arena+hblkhd)
        218045 MiB available memory on the node where the printing process lives
------------------
     ethr =  1.99E-07,  avg # of iterations = 12.0

     negative rho (up, down):  6.287E-04 0.000E+00

     add environment contribution to local potential

     total cpu time spent up to now is      412.7 secs

     total energy              =    -421.01969231 Ry
     estimated scf accuracy    <       0.00008270 Ry

     total charge of GC-SCF    =       0.08640100 e
     the Fermi energy          =      -2.77226950 eV
                        (error :       0.13173050 eV)
     electrostatic embedding   =      -0.02500393 Ry
     cavitation energy         =       0.01864385 Ry
     electrolyte free energy   =      -0.00098339 Ry
     correction to one-el term =       2.84463519 Ry

     iteration #  9     ecut=    80.00 Ry     beta= 0.20
     Davidson diagonalization with overlap

---- Real-time Memory Report at c_bands before calling an iterative solver
           339 MiB given to the printing process from OS
             0 MiB allocation reported by mallinfo(arena+hblkhd)
        217995 MiB available memory on the node where the printing process lives
------------------
     ethr =  9.86E-08,  avg # of iterations = 14.1

     negative rho (up, down):  5.664E-04 0.000E+00

     add environment contribution to local potential

     total cpu time spent up to now is      440.6 secs

     total energy              =    -421.02001593 Ry
     estimated scf accuracy    <       0.00008930 Ry

     total charge of GC-SCF    =       0.10492040 e
     the Fermi energy          =      -2.81912535 eV
                        (error :       0.08487465 eV)
     electrostatic embedding   =      -0.02452659 Ry
     cavitation energy         =       0.01864385 Ry
     electrolyte free energy   =      -0.00116267 Ry
     correction to one-el term =       1.99657741 Ry

     iteration # 10     ecut=    80.00 Ry     beta= 0.20
     Davidson diagonalization with overlap

---- Real-time Memory Report at c_bands before calling an iterative solver
           339 MiB given to the printing process from OS
             0 MiB allocation reported by mallinfo(arena+hblkhd)
        217975 MiB available memory on the node where the printing process lives
------------------
     ethr =  9.86E-08,  avg # of iterations =  4.7

     negative rho (up, down):  5.078E-04 0.000E+00

     add environment contribution to local potential

     total cpu time spent up to now is      455.9 secs

     total energy              =    -421.02002591 Ry
     estimated scf accuracy    <       0.00004686 Ry

     total charge of GC-SCF    =       0.12872163 e
     the Fermi energy          =      -2.81193397 eV
                        (error :       0.09206603 eV)
     electrostatic embedding   =      -0.02410060 Ry
     cavitation energy         =       0.01864385 Ry
     electrolyte free energy   =      -0.00115633 Ry
     correction to one-el term =       1.31366120 Ry

     iteration # 11     ecut=    80.00 Ry     beta= 0.20
     Davidson diagonalization with overlap

---- Real-time Memory Report at c_bands before calling an iterative solver
           339 MiB given to the printing process from OS
             0 MiB allocation reported by mallinfo(arena+hblkhd)
        217962 MiB available memory on the node where the printing process lives
------------------
     ethr =  5.59E-08,  avg # of iterations =  9.8

     negative rho (up, down):  4.475E-04 0.000E+00

     add environment contribution to local potential

     total cpu time spent up to now is      477.2 secs

     total energy              =    -421.01999486 Ry
     estimated scf accuracy    <       0.00001552 Ry

     total charge of GC-SCF    =       0.17611807 e
     the Fermi energy          =      -2.81724297 eV
                        (error :       0.08675703 eV)
     electrostatic embedding   =      -0.02340305 Ry
     cavitation energy         =       0.01864385 Ry
     electrolyte free energy   =      -0.00119925 Ry
     correction to one-el term =       0.38938187 Ry

     iteration # 12     ecut=    80.00 Ry     beta= 0.20
     Davidson diagonalization with overlap

---- Real-time Memory Report at c_bands before calling an iterative solver
           339 MiB given to the printing process from OS
             0 MiB allocation reported by mallinfo(arena+hblkhd)
        217972 MiB available memory on the node where the printing process lives
------------------
     ethr =  1.85E-08,  avg # of iterations = 19.0

     negative rho (up, down):  4.128E-04 0.000E+00

     add environment contribution to local potential

     total cpu time spent up to now is      510.7 secs

     total energy              =    -421.02083141 Ry
     estimated scf accuracy    <       0.00001086 Ry

     total charge of GC-SCF    =       0.18827975 e
     the Fermi energy          =      -2.83774527 eV
                        (error :       0.06625473 eV)
     electrostatic embedding   =      -0.02267810 Ry
     cavitation energy         =       0.01864385 Ry
     electrolyte free energy   =      -0.00130835 Ry
     correction to one-el term =      -1.43110607 Ry

     iteration # 13     ecut=    80.00 Ry     beta= 0.20
     Davidson diagonalization with overlap

---- Real-time Memory Report at c_bands before calling an iterative solver
           339 MiB given to the printing process from OS
             0 MiB allocation reported by mallinfo(arena+hblkhd)
        217987 MiB available memory on the node where the printing process lives
------------------
     ethr =  1.30E-08,  avg # of iterations = 10.4

     negative rho (up, down):  3.878E-04 0.000E+00

     add environment contribution to local potential

     total cpu time spent up to now is      532.0 secs

     total energy              =    -421.02070083 Ry
     estimated scf accuracy    <       0.00000576 Ry

     total charge of GC-SCF    =       0.22384979 e
     the Fermi energy          =      -2.83755986 eV
                        (error :       0.06644014 eV)
     electrostatic embedding   =      -0.02273603 Ry
     cavitation energy         =       0.01864385 Ry
     electrolyte free energy   =      -0.00131941 Ry
     correction to one-el term =      -1.87473763 Ry

     iteration # 14     ecut=    80.00 Ry     beta= 0.20
     Davidson diagonalization with overlap

---- Real-time Memory Report at c_bands before calling an iterative solver
           339 MiB given to the printing process from OS
             0 MiB allocation reported by mallinfo(arena+hblkhd)
        217986 MiB available memory on the node where the printing process lives
------------------
     ethr =  6.88E-09,  avg # of iterations = 17.0

     negative rho (up, down):  3.697E-04 0.000E+00

     add environment contribution to local potential

     total cpu time spent up to now is      561.9 secs

     total energy              =    -421.02097950 Ry
     estimated scf accuracy    <       0.00000330 Ry

     total charge of GC-SCF    =       0.25118976 e
     the Fermi energy          =      -2.84553374 eV
                        (error :       0.05846626 eV)
     electrostatic embedding   =      -0.02335721 Ry
     cavitation energy         =       0.01864385 Ry
     electrolyte free energy   =      -0.00137985 Ry
     correction to one-el term =      -3.10491427 Ry

     iteration # 15     ecut=    80.00 Ry     beta= 0.20
     Davidson diagonalization with overlap

---- Real-time Memory Report at c_bands before calling an iterative solver
           339 MiB given to the printing process from OS
             0 MiB allocation reported by mallinfo(arena+hblkhd)
        217983 MiB available memory on the node where the printing process lives
------------------
     ethr =  3.94E-09,  avg # of iterations = 17.7

     negative rho (up, down):  3.579E-04 0.000E+00

     add environment contribution to local potential

     total cpu time spent up to now is      592.9 secs

     total energy              =    -421.02113537 Ry
     estimated scf accuracy    <       0.00000263 Ry

     total charge of GC-SCF    =       0.29332643 e
     the Fermi energy          =      -2.85337049 eV
                        (error :       0.05062951 eV)
     electrostatic embedding   =      -0.02428007 Ry
     cavitation energy         =       0.01864385 Ry
     electrolyte free energy   =      -0.00143643 Ry
     correction to one-el term =      -4.03677469 Ry

     iteration # 16     ecut=    80.00 Ry     beta= 0.20
     Davidson diagonalization with overlap

---- Real-time Memory Report at c_bands before calling an iterative solver
           339 MiB given to the printing process from OS
             0 MiB allocation reported by mallinfo(arena+hblkhd)
        217955 MiB available memory on the node where the printing process lives
------------------
     ethr =  3.14E-09,  avg # of iterations = 23.8

     negative rho (up, down):  3.527E-04 0.000E+00

     add environment contribution to local potential

     total cpu time spent up to now is      629.9 secs

     total energy              =    -421.02170703 Ry
     estimated scf accuracy    <       0.00000195 Ry

     total charge of GC-SCF    =       0.36127024 e
     the Fermi energy          =      -2.86541884 eV
                        (error :       0.03858116 eV)
     electrostatic embedding   =      -0.02642723 Ry
     cavitation energy         =       0.01864385 Ry
     electrolyte free energy   =      -0.00153012 Ry
     correction to one-el term =      -5.45807057 Ry

     iteration # 17     ecut=    80.00 Ry     beta= 0.20
     Davidson diagonalization with overlap

---- Real-time Memory Report at c_bands before calling an iterative solver
           339 MiB given to the printing process from OS
             0 MiB allocation reported by mallinfo(arena+hblkhd)
        217960 MiB available memory on the node where the printing process lives
------------------
     ethr =  2.33E-09,  avg # of iterations = 31.4

     negative rho (up, down):  3.444E-04 0.000E+00

     add environment contribution to local potential

     total cpu time spent up to now is      681.6 secs

     total energy              =    -421.02162773 Ry
     estimated scf accuracy    <       0.00000165 Ry

     total charge of GC-SCF    =       0.39051492 e
     the Fermi energy          =      -2.88771059 eV
                        (error :       0.01628941 eV)
     electrostatic embedding   =      -0.03167126 Ry
     cavitation energy         =       0.01864385 Ry
     electrolyte free energy   =      -0.00170980 Ry
     correction to one-el term =      -7.76946353 Ry

     iteration # 18     ecut=    80.00 Ry     beta= 0.20
     Davidson diagonalization with overlap

---- Real-time Memory Report at c_bands before calling an iterative solver
           339 MiB given to the printing process from OS
             0 MiB allocation reported by mallinfo(arena+hblkhd)
        217944 MiB available memory on the node where the printing process lives
------------------
     ethr =  1.97E-09,  avg # of iterations = 20.9

     negative rho (up, down):  3.384E-04 0.000E+00

     add environment contribution to local potential

     total cpu time spent up to now is      716.1 secs

     total energy              =    -421.02162311 Ry
     estimated scf accuracy    <       0.00000028 Ry

     total charge of GC-SCF    =       0.40429441 e
     the Fermi energy          =      -2.89469061 eV
                        (error :       0.00930939 eV)
     electrostatic embedding   =      -0.03465691 Ry
     cavitation energy         =       0.01864385 Ry
     electrolyte free energy   =      -0.00178563 Ry
     correction to one-el term =      -8.77772572 Ry

     iteration # 19     ecut=    80.00 Ry     beta= 0.20
     Davidson diagonalization with overlap

---- Real-time Memory Report at c_bands before calling an iterative solver
           339 MiB given to the printing process from OS
             0 MiB allocation reported by mallinfo(arena+hblkhd)
        217964 MiB available memory on the node where the printing process lives
------------------
     c_bands:  1 eigenvalues not converged
     c_bands:  1 eigenvalues not converged
     ethr =  3.32E-10,  avg # of iterations = 34.8

     negative rho (up, down):  3.321E-04 0.000E+00

     add environment contribution to local potential

     total cpu time spent up to now is      768.0 secs

     total energy              =    -421.02162401 Ry
     estimated scf accuracy    <       0.00000021 Ry

     total charge of GC-SCF    =       0.41171011 e
     the Fermi energy          =      -2.89923034 eV
                        (error :       0.00476966 eV)
     electrostatic embedding   =      -0.03621317 Ry
     cavitation energy         =       0.01864385 Ry
     electrolyte free energy   =      -0.00182622 Ry
     correction to one-el term =      -9.24506514 Ry

     iteration # 20     ecut=    80.00 Ry     beta= 0.20
     Davidson diagonalization with overlap

---- Real-time Memory Report at c_bands before calling an iterative solver
           339 MiB given to the printing process from OS
             0 MiB allocation reported by mallinfo(arena+hblkhd)
        217938 MiB available memory on the node where the printing process lives
------------------
     c_bands:  1 eigenvalues not converged
     ethr =  2.47E-10,  avg # of iterations = 21.6

     negative rho (up, down):  3.268E-04 0.000E+00

     add environment contribution to local potential

     total cpu time spent up to now is      804.4 secs

     total energy              =    -421.02162746 Ry
     estimated scf accuracy    <       0.00000006 Ry

     total charge of GC-SCF    =       0.41789679 e
     the Fermi energy          =      -2.90126267 eV
                        (error :       0.00273733 eV)
     electrostatic embedding   =      -0.03708353 Ry
     cavitation energy         =       0.01864385 Ry
     electrolyte free energy   =      -0.00184752 Ry
     correction to one-el term =      -9.50334443 Ry

     iteration # 21     ecut=    80.00 Ry     beta= 0.20
     Davidson diagonalization with overlap

---- Real-time Memory Report at c_bands before calling an iterative solver
           339 MiB given to the printing process from OS
             0 MiB allocation reported by mallinfo(arena+hblkhd)
        217959 MiB available memory on the node where the printing process lives
------------------
     ethr =  7.01E-11,  avg # of iterations = 25.8

     negative rho (up, down):  3.072E-04 0.000E+00

     total cpu time spent up to now is      842.2 secs

     End of self-consistent calculation

          k = 0.0000 0.0000 0.0000 (186229 PWs)   bands (ev):

   -50.3239 -50.3238 -50.3160 -50.3159 -49.9953 -49.9952 -49.9873 -49.9872
   -49.4883 -49.4881 -49.4799 -49.4798 -49.4504 -49.4447 -49.4401 -49.4376
   -49.4341 -49.4326 -49.4260 -49.4253 -49.3996 -49.3994 -49.3918 -49.3916
   -49.3914 -49.3870 -49.3839 -49.3793  -6.3434  -5.9757  -5.3298  -4.5123
    -4.3191  -4.2730  -3.9630  -3.9579  -3.4632  -3.3234  -3.2789  -3.1586
    -3.1486  -2.8708  -2.8453  -2.7472  -2.5464  -2.4969  -2.4854  -2.3122
    -2.2032  -2.1639  -1.8178  -1.7577  -1.5430  -1.0429  -0.9171  -0.8491
    -0.6349  -0.1988  -0.1867  -0.1768  -0.0449   0.0380   0.0739

     occupation numbers 
     1.0000   1.0000   1.0000   1.0000   1.0000   1.0000   1.0000   1.0000
     1.0000   1.0000   1.0000   1.0000   1.0000   1.0000   1.0000   1.0000
     1.0000   1.0000   1.0000   1.0000   1.0000   1.0000   1.0000   1.0000
     1.0000   1.0000   1.0000   1.0000   1.0000   1.0000   1.0000   1.0000
     1.0000   1.0000   1.0000   1.0000   1.0000   1.0010   1.0040   1.0525
     1.0594   0.2541   0.1650   0.0172   0.0000   0.0000   0.0000   0.0000
     0.0000   0.0000   0.0000   0.0000   0.0000   0.0000   0.0000   0.0000
     0.0000   0.0000   0.0000   0.0000   0.0000   0.0000   0.0000

          k = 0.0000 0.0891 0.0000 (186265 PWs)   bands (ev):

   -50.3239 -50.3238 -50.3160 -50.3159 -49.9953 -49.9952 -49.9873 -49.9872
   -49.4883 -49.4881 -49.4799 -49.4798 -49.4504 -49.4447 -49.4400 -49.4376
   -49.4341 -49.4326 -49.4260 -49.4253 -49.3996 -49.3994 -49.3918 -49.3916
   -49.3914 -49.3870 -49.3839 -49.3793  -6.3183  -5.9508  -5.3060  -4.7470
    -4.4480  -4.3663  -3.8490  -3.7130  -3.5499  -3.3877  -3.1936  -3.0742
    -2.9170  -2.8970  -2.8866  -2.7893  -2.5857  -2.4749  -2.4609  -2.3089
    -2.2279  -2.1215  -1.7984  -1.7698  -1.5502  -1.0577  -1.0547  -0.7787
    -0.6585  -0.3705  -0.1601  -0.1463  -0.0226   0.0744   0.2897

     occupation numbers 
     1.0000   1.0000   1.0000   1.0000   1.0000   1.0000   1.0000   1.0000
     1.0000   1.0000   1.0000   1.0000   1.0000   1.0000   1.0000   1.0000
     1.0000   1.0000   1.0000   1.0000   1.0000   1.0000   1.0000   1.0000
     1.0000   1.0000   1.0000   1.0000   1.0000   1.0000   1.0000   1.0000
     1.0000   1.0000   1.0000   1.0000   1.0000   1.0001   1.0303   1.0765
     0.4721   0.3699   0.3210   0.0513   0.0000   0.0000   0.0000   0.0000
     0.0000   0.0000   0.0000   0.0000   0.0000   0.0000   0.0000   0.0000
     0.0000   0.0000   0.0000   0.0000   0.0000   0.0000   0.0000

          k = 0.0000 0.1782 0.0000 (186243 PWs)   bands (ev):

   -50.3239 -50.3238 -50.3160 -50.3159 -49.9953 -49.9952 -49.9873 -49.9872
   -49.4883 -49.4881 -49.4799 -49.4798 -49.4502 -49.4449 -49.4400 -49.4377
   -49.4342 -49.4327 -49.4260 -49.4253 -49.3996 -49.3994 -49.3918 -49.3916
   -49.3914 -49.3870 -49.3839 -49.3793  -6.2431  -5.8763  -5.2374  -5.1134
    -4.7295  -4.4031  -4.0372  -3.4609  -3.3651  -3.1926  -3.1717  -2.9840
    -2.9662  -2.8711  -2.6890  -2.6736  -2.6016  -2.4515  -2.3999  -2.3447
    -2.2492  -2.0986  -1.8908  -1.6397  -1.6151  -1.2660  -1.0081  -0.9660
    -0.6828  -0.3530  -0.0997  -0.0405   0.0667   0.1641   0.3381

     occupation numbers 
     1.0000   1.0000   1.0000   1.0000   1.0000   1.0000   1.0000   1.0000
     1.0000   1.0000   1.0000   1.0000   1.0000   1.0000   1.0000   1.0000
     1.0000   1.0000   1.0000   1.0000   1.0000   1.0000   1.0000   1.0000
     1.0000   1.0000   1.0000   1.0000   1.0000   1.0000   1.0000   1.0000
     1.0000   1.0000   1.0000   1.0000   1.0002   1.0308   1.0436   0.8301
     0.7409   0.2553   0.0028   0.0016   0.0001   0.0000   0.0000   0.0000
     0.0000   0.0000   0.0000   0.0000   0.0000   0.0000   0.0000   0.0000
     0.0000   0.0000   0.0000   0.0000   0.0000   0.0000   0.0000

          k = 0.0000 0.2673 0.0000 (186330 PWs)   bands (ev):

   -50.3239 -50.3238 -50.3160 -50.3159 -49.9953 -49.9952 -49.9873 -49.9872
   -49.4883 -49.4881 -49.4799 -49.4798 -49.4501 -49.4450 -49.4400 -49.4377
   -49.4342 -49.4327 -49.4260 -49.4254 -49.3996 -49.3995 -49.3917 -49.3916
   -49.3914 -49.3869 -49.3839 -49.3793  -6.1177  -5.7533  -5.4366  -5.1693
    -4.9963  -4.4694  -4.1669  -3.5920  -3.2050  -3.1535  -2.9040  -2.8985
    -2.7965  -2.7376  -2.7000  -2.5758  -2.4852  -2.4571  -2.3555  -2.2965
    -2.2278  -1.9846  -1.9594  -1.7791  -1.5371  -1.4612  -1.2322  -1.0507
    -0.4677  -0.3266  -0.0763   0.1137   0.2101   0.2314   0.2379

     occupation numbers 
     1.0000   1.0000   1.0000   1.0000   1.0000   1.0000   1.0000   1.0000
     1.0000   1.0000   1.0000   1.0000   1.0000   1.0000   1.0000   1.0000
     1.0000   1.0000   1.0000   1.0000   1.0000   1.0000   1.0000   1.0000
     1.0000   1.0000   1.0000   1.0000   1.0000   1.0000   1.0000   1.0000
     1.0000   1.0000   1.0000   1.0000   1.0243   1.0560   0.4047   0.3773
     0.0606   0.0131   0.0041   0.0000   0.0000   0.0000   0.0000   0.0000
     0.0000   0.0000   0.0000   0.0000   0.0000   0.0000   0.0000   0.0000
     0.0000   0.0000   0.0000   0.0000   0.0000   0.0000   0.0000

          k = 0.0000 0.3563 0.0000 (186318 PWs)   bands (ev):

   -50.3239 -50.3238 -50.3160 -50.3159 -49.9953 -49.9952 -49.9873 -49.9872
   -49.4882 -49.4881 -49.4799 -49.4798 -49.4500 -49.4451 -49.4400 -49.4377
   -49.4342 -49.4327 -49.4260 -49.4254 -49.3997 -49.3995 -49.3917 -49.3916
   -49.3914 -49.3869 -49.3839 -49.3793  -5.9423  -5.7200  -5.5726  -5.3590
    -4.9094  -4.6994  -4.0449  -3.8155  -3.0916  -3.0845  -2.9719  -2.8588
    -2.7097  -2.6652  -2.5957  -2.5268  -2.4644  -2.3158  -2.2732  -2.1521
    -2.1189  -1.9951  -1.9538  -1.8928  -1.6882  -1.4311  -1.3183  -1.2397
    -0.3182  -0.2637  -0.1366   0.1397   0.2753   0.3568   0.3922

     occupation numbers 
     1.0000   1.0000   1.0000   1.0000   1.0000   1.0000   1.0000   1.0000
     1.0000   1.0000   1.0000   1.0000   1.0000   1.0000   1.0000   1.0000
     1.0000   1.0000   1.0000   1.0000   1.0000   1.0000   1.0000   1.0000
     1.0000   1.0000   1.0000   1.0000   1.0000   1.0000   1.0000   1.0000
     1.0000   1.0000   1.0000   1.0000   1.0831   1.0816   0.7704   0.2089
     0.0056   0.0012   0.0001   0.0000   0.0000   0.0000   0.0000   0.0000
     0.0000   0.0000   0.0000   0.0000   0.0000   0.0000   0.0000   0.0000
     0.0000   0.0000   0.0000   0.0000   0.0000   0.0000   0.0000

          k = 0.0909 0.0121 0.0000 (186373 PWs)   bands (ev):

   -50.3237 -50.3236 -50.3162 -50.3161 -49.9951 -49.9950 -49.9875 -49.9874
   -49.4881 -49.4880 -49.4801 -49.4799 -49.4502 -49.4445 -49.4403 -49.4378
   -49.4340 -49.4325 -49.4262 -49.4255 -49.3995 -49.3993 -49.3917 -49.3916
   -49.3916 -49.3868 -49.3841 -49.3794  -6.3167  -5.9489  -5.3025  -4.4876
    -4.3259  -4.2068  -3.9890  -3.8754  -3.6914  -3.4339  -3.3647  -3.3274
    -3.2137  -2.8177  -2.7173  -2.6576  -2.5683  -2.4645  -2.3859  -2.2655
    -2.1601  -2.1321  -1.8560  -1.7829  -1.5572  -1.0914  -1.0171  -0.8181
    -0.7023  -0.3775  -0.1664  -0.1416  -0.0105   0.0714   0.0954

     occupation numbers 
     1.0000   1.0000   1.0000   1.0000   1.0000   1.0000   1.0000   1.0000
     1.0000   1.0000   1.0000   1.0000   1.0000   1.0000   1.0000   1.0000
     1.0000   1.0000   1.0000   1.0000   1.0000   1.0000   1.0000   1.0000
     1.0000   1.0000   1.0000   1.0000   1.0000   1.0000   1.0000   1.0000
     1.0000   1.0000   1.0000   1.0000   1.0000   1.0000   1.0002   1.0009
     1.0204   0.0966   0.0071   0.0009   0.0000   0.0000   0.0000   0.0000
     0.0000   0.0000   0.0000   0.0000   0.0000   0.0000   0.0000   0.0000
     0.0000   0.0000   0.0000   0.0000   0.0000   0.0000   0.0000

          k = 0.0909 0.1012 0.0000 (186296 PWs)   bands (ev):

   -50.3237 -50.3236 -50.3162 -50.3161 -49.9951 -49.9950 -49.9875 -49.9874
   -49.4881 -49.4880 -49.4801 -49.4799 -49.4501 -49.4446 -49.4403 -49.4378
   -49.4340 -49.4325 -49.4262 -49.4255 -49.3995 -49.3993 -49.3917 -49.3916
   -49.3916 -49.3868 -49.3841 -49.3794  -6.2848  -5.9173  -5.2726  -4.7723
    -4.4190  -4.3887  -3.7631  -3.7305  -3.7192  -3.4938  -3.3960  -3.3239
    -2.9096  -2.8272  -2.8235  -2.5078  -2.4852  -2.4394  -2.3235  -2.2423
    -2.1002  -2.0879  -1.9214  -1.7206  -1.5600  -1.3098  -1.0277  -0.7497
    -0.7345  -0.6389  -0.1192  -0.1017   0.0192   0.1133   0.1173

     occupation numbers 
     1.0000   1.0000   1.0000   1.0000   1.0000   1.0000   1.0000   1.0000
     1.0000   1.0000   1.0000   1.0000   1.0000   1.0000   1.0000   1.0000
     1.0000   1.0000   1.0000   1.0000   1.0000   1.0000   1.0000   1.0000
     1.0000   1.0000   1.0000   1.0000   1.0000   1.0000   1.0000   1.0000
     1.0000   1.0000   1.0000   1.0000   1.0000   1.0000   1.0001   1.0010
     0.4332   0.1172   0.1087   0.0000   0.0000   0.0000   0.0000   0.0000
     0.0000   0.0000   0.0000   0.0000   0.0000   0.0000   0.0000   0.0000
     0.0000   0.0000   0.0000   0.0000   0.0000   0.0000   0.0000

          k = 0.0909 0.1903 0.0000 (186330 PWs)   bands (ev):

   -50.3237 -50.3236 -50.3162 -50.3161 -49.9951 -49.9950 -49.9875 -49.9874
   -49.4881 -49.4880 -49.4801 -49.4799 -49.4500 -49.4447 -49.4403 -49.4378
   -49.4340 -49.4325 -49.4262 -49.4255 -49.3995 -49.3993 -49.3917 -49.3916
   -49.3916 -49.3868 -49.3841 -49.3794  -6.2027  -5.8361  -5.1990  -5.1341
    -4.7472  -4.3713  -4.0449  -3.7236  -3.4345  -3.3820  -3.2688  -3.1596
    -2.8957  -2.7972  -2.5495  -2.4574  -2.4131  -2.3966  -2.3100  -2.1945
    -2.1369  -2.0549  -1.9860  -1.6673  -1.5915  -1.4430  -1.1024  -0.9730
    -0.6295  -0.5488  -0.0590   0.0128   0.1183   0.1300   0.2116

     occupation numbers 
     1.0000   1.0000   1.0000   1.0000   1.0000   1.0000   1.0000   1.0000
     1.0000   1.0000   1.0000   1.0000   1.0000   1.0000   1.0000   1.0000
     1.0000   1.0000   1.0000   1.0000   1.0000   1.0000   1.0000   1.0000
     1.0000   1.0000   1.0000   1.0000   1.0000   1.0000   1.0000   1.0000
     1.0000   1.0000   1.0000   1.0000   1.0000   1.0001   1.0054   1.0518
     0.3636   0.0616   0.0000   0.0000   0.0000   0.0000   0.0000   0.0000
     0.0000   0.0000   0.0000   0.0000   0.0000   0.0000   0.0000   0.0000
     0.0000   0.0000   0.0000   0.0000   0.0000   0.0000   0.0000

          k = 0.0909 0.2794 0.0000 (186389 PWs)   bands (ev):

   -50.3237 -50.3236 -50.3162 -50.3161 -49.9951 -49.9950 -49.9875 -49.9874
   -49.4881 -49.4879 -49.4801 -49.4799 -49.4499 -49.4449 -49.4402 -49.4378
   -49.4340 -49.4325 -49.4262 -49.4255 -49.3995 -49.3993 -49.3917 -49.3916
   -49.3915 -49.3868 -49.3841 -49.3794  -6.0703  -5.7068  -5.4503  -5.1524
    -4.9795  -4.4700  -4.1303  -3.6719  -3.5920  -3.3242  -3.1638  -2.8121
    -2.7361  -2.6743  -2.5673  -2.4248  -2.4070  -2.3804  -2.3071  -2.1599
    -2.0796  -1.9897  -1.9094  -1.8304  -1.4934  -1.4905  -1.3524  -1.0364
    -0.4278  -0.3997  -0.0490   0.1296   0.1711   0.2684   0.2757

     occupation numbers 
     1.0000   1.0000   1.0000   1.0000   1.0000   1.0000   1.0000   1.0000
     1.0000   1.0000   1.0000   1.0000   1.0000   1.0000   1.0000   1.0000
     1.0000   1.0000   1.0000   1.0000   1.0000   1.0000   1.0000   1.0000
     1.0000   1.0000   1.0000   1.0000   1.0000   1.0000   1.0000   1.0000
     1.0000   1.0000   1.0000   1.0000   1.0000   1.0010   1.0489   0.0858
     0.0125   0.0017   0.0000   0.0000   0.0000   0.0000   0.0000   0.0000
     0.0000   0.0000   0.0000   0.0000   0.0000   0.0000   0.0000   0.0000
     0.0000   0.0000   0.0000   0.0000   0.0000   0.0000   0.0000

          k = 0.0909 0.3685 0.0000 (186431 PWs)   bands (ev):

   -50.3237 -50.3236 -50.3162 -50.3161 -49.9951 -49.9950 -49.9875 -49.9874
   -49.4881 -49.4879 -49.4801 -49.4799 -49.4498 -49.4450 -49.4402 -49.4378
   -49.4340 -49.4326 -49.4262 -49.4255 -49.3995 -49.3993 -49.3917 -49.3916
   -49.3915 -49.3868 -49.3841 -49.3794  -5.8881  -5.7259  -5.5206  -5.3636
    -4.8583  -4.7019  -3.9967  -3.8118  -3.5775  -3.2256  -3.0465  -2.8439
    -2.8357  -2.6574  -2.5422  -2.4659  -2.4107  -2.2798  -2.2302  -2.0921
    -2.0553  -1.8876  -1.8607  -1.8047  -1.6757  -1.3864  -1.3370  -1.2314
    -0.3329  -0.2125  -0.1174   0.1383   0.3283   0.3999   0.4402

     occupation numbers 
     1.0000   1.0000   1.0000   1.0000   1.0000   1.0000   1.0000   1.0000
     1.0000   1.0000   1.0000   1.0000   1.0000   1.0000   1.0000   1.0000
     1.0000   1.0000   1.0000   1.0000   1.0000   1.0000   1.0000   1.0000
     1.0000   1.0000   1.0000   1.0000   1.0000   1.0000   1.0000   1.0000
     1.0000   1.0000   1.0000   1.0000   1.0000   1.0158   1.0416   0.1609
     0.1381   0.0009   0.0000   0.0000   0.0000   0.0000   0.0000   0.0000
     0.0000   0.0000   0.0000   0.0000   0.0000   0.0000   0.0000   0.0000
     0.0000   0.0000   0.0000   0.0000   0.0000   0.0000   0.0000

          k = 0.0909-0.3442 0.0000 (186485 PWs)   bands (ev):

   -50.3237 -50.3236 -50.3162 -50.3161 -49.9951 -49.9950 -49.9875 -49.9874
   -49.4881 -49.4879 -49.4801 -49.4799 -49.4498 -49.4450 -49.4402 -49.4378
   -49.4340 -49.4326 -49.4262 -49.4255 -49.3995 -49.3993 -49.3917 -49.3916
   -49.3915 -49.3868 -49.3841 -49.3794  -5.9428  -5.6620  -5.5686  -5.3005
    -4.9048  -4.6415  -4.0362  -3.7596  -3.4438  -3.1107  -3.0767  -3.0571
    -2.8130  -2.8081  -2.5272  -2.5259  -2.3928  -2.3580  -2.2865  -2.1769
    -2.1233  -1.9194  -1.8615  -1.7358  -1.5387  -1.4138  -1.2487  -1.1807
    -0.2797  -0.2542  -0.0946   0.2114   0.2807   0.3657   0.4012

     occupation numbers 
     1.0000   1.0000   1.0000   1.0000   1.0000   1.0000   1.0000   1.0000
     1.0000   1.0000   1.0000   1.0000   1.0000   1.0000   1.0000   1.0000
     1.0000   1.0000   1.0000   1.0000   1.0000   1.0000   1.0000   1.0000
     1.0000   1.0000   1.0000   1.0000   1.0000   1.0000   1.0000   1.0000
     1.0000   1.0000   1.0000   1.0000   1.0000   1.0806   1.0780   1.0589
     0.0874   0.0786   0.0000   0.0000   0.0000   0.0000   0.0000   0.0000
     0.0000   0.0000   0.0000   0.0000   0.0000   0.0000   0.0000   0.0000
     0.0000   0.0000   0.0000   0.0000   0.0000   0.0000   0.0000

          k = 0.0909-0.2551 0.0000 (186443 PWs)   bands (ev):

   -50.3237 -50.3236 -50.3162 -50.3161 -49.9951 -49.9950 -49.9875 -49.9874
   -49.4881 -49.4879 -49.4801 -49.4799 -49.4499 -49.4448 -49.4402 -49.4378
   -49.4340 -49.4325 -49.4262 -49.4255 -49.3995 -49.3993 -49.3917 -49.3916
   -49.3916 -49.3868 -49.3841 -49.3794  -6.1114  -5.7460  -5.3683  -5.1415
    -4.9479  -4.4169  -4.1418  -3.5347  -3.3036  -3.2702  -3.1835  -3.0032
    -2.9267  -2.9217  -2.6671  -2.5534  -2.5093  -2.4949  -2.3376  -2.2614
    -2.2392  -2.0212  -1.9467  -1.6334  -1.5203  -1.3412  -1.0577  -1.0045
    -0.4752  -0.2470  -0.0423   0.1250   0.2216   0.2657   0.3310

     occupation numbers 
     1.0000   1.0000   1.0000   1.0000   1.0000   1.0000   1.0000   1.0000
     1.0000   1.0000   1.0000   1.0000   1.0000   1.0000   1.0000   1.0000
     1.0000   1.0000   1.0000   1.0000   1.0000   1.0000   1.0000   1.0000
     1.0000   1.0000   1.0000   1.0000   1.0000   1.0000   1.0000   1.0000
     1.0000   1.0000   1.0000   1.0000   1.0019   1.0052   1.0361   0.9143
     0.5245   0.4972   0.0013   0.0000   0.0000   0.0000   0.0000   0.0000
     0.0000   0.0000   0.0000   0.0000   0.0000   0.0000   0.0000   0.0000
     0.0000   0.0000   0.0000   0.0000   0.0000   0.0000   0.0000

          k = 0.0909-0.1660 0.0000 (186362 PWs)   bands (ev):

   -50.3237 -50.3236 -50.3162 -50.3161 -49.9951 -49.9950 -49.9875 -49.9874
   -49.4881 -49.4880 -49.4801 -49.4799 -49.4500 -49.4447 -49.4402 -49.4378
   -49.4340 -49.4325 -49.4262 -49.4255 -49.3995 -49.3993 -49.3917 -49.3916
   -49.3916 -49.3868 -49.3841 -49.3794  -6.2300  -5.8628  -5.2217  -5.0380
    -4.6557  -4.3809  -3.9694  -3.4742  -3.4332  -3.4025  -3.1704  -3.1249
    -3.0723  -3.0039  -2.7691  -2.6243  -2.5957  -2.5582  -2.4220  -2.3149
    -2.1264  -2.0765  -2.0348  -1.6241  -1.5915  -1.1588  -0.9881  -0.8130
    -0.6725  -0.2382  -0.0754  -0.0240   0.0846   0.1838   0.3650

     occupation numbers 
     1.0000   1.0000   1.0000   1.0000   1.0000   1.0000   1.0000   1.0000
     1.0000   1.0000   1.0000   1.0000   1.0000   1.0000   1.0000   1.0000
     1.0000   1.0000   1.0000   1.0000   1.0000   1.0000   1.0000   1.0000
     1.0000   1.0000   1.0000   1.0000   1.0000   1.0000   1.0000   1.0000
     1.0000   1.0000   1.0000   1.0000   1.0000   1.0000   1.0444   1.0744
     1.0750   0.9172   0.0311   0.0002   0.0001   0.0000   0.0000   0.0000
     0.0000   0.0000   0.0000   0.0000   0.0000   0.0000   0.0000   0.0000
     0.0000   0.0000   0.0000   0.0000   0.0000   0.0000   0.0000

          k = 0.0909-0.0769 0.0000 (186293 PWs)   bands (ev):

   -50.3237 -50.3236 -50.3162 -50.3161 -49.9951 -49.9950 -49.9875 -49.9874
   -49.4881 -49.4880 -49.4801 -49.4799 -49.4502 -49.4446 -49.4403 -49.4378
   -49.4340 -49.4325 -49.4262 -49.4255 -49.3995 -49.3993 -49.3917 -49.3916
   -49.3916 -49.3868 -49.3841 -49.3794  -6.2984  -5.9306  -5.2849  -4.6674
    -4.4220  -4.2858  -3.8843  -3.6526  -3.6058  -3.5470  -3.3815  -3.2880
    -2.9294  -2.8678  -2.8406  -2.7650  -2.6184  -2.4749  -2.4460  -2.3249
    -2.1597  -2.0942  -1.9006  -1.7502  -1.5804  -1.0331  -1.0270  -0.7627
    -0.6979  -0.2337  -0.1363  -0.1204   0.0047   0.0984   0.2019

     occupation numbers 
     1.0000   1.0000   1.0000   1.0000   1.0000   1.0000   1.0000   1.0000
     1.0000   1.0000   1.0000   1.0000   1.0000   1.0000   1.0000   1.0000
     1.0000   1.0000   1.0000   1.0000   1.0000   1.0000   1.0000   1.0000
     1.0000   1.0000   1.0000   1.0000   1.0000   1.0000   1.0000   1.0000
     1.0000   1.0000   1.0000   1.0000   1.0000   1.0000   1.0001   1.0031
     0.5397   0.2421   0.1516   0.0279   0.0002   0.0000   0.0000   0.0000
     0.0000   0.0000   0.0000   0.0000   0.0000   0.0000   0.0000   0.0000
     0.0000   0.0000   0.0000   0.0000   0.0000   0.0000   0.0000

          k = 0.1818 0.0243 0.0000 (186409 PWs)   bands (ev):

   -50.3233 -50.3232 -50.3166 -50.3165 -49.9946 -49.9945 -49.9879 -49.9878
   -49.4876 -49.4875 -49.4806 -49.4804 -49.4496 -49.4441 -49.4409 -49.4381
   -49.4335 -49.4320 -49.4267 -49.4259 -49.3990 -49.3988 -49.3922 -49.3920
   -49.3912 -49.3864 -49.3846 -49.3799  -6.2367  -5.8685  -5.2209  -4.4160
    -4.2863  -4.1896  -4.0675  -3.9600  -3.8411  -3.7342  -3.3480  -3.2841
    -3.2319  -3.0721  -2.8954  -2.6279  -2.5542  -2.4011  -2.3676  -2.0371
    -2.0096  -1.9288  -1.8607  -1.7315  -1.6787  -1.4559  -0.9693  -0.9409
    -0.7253  -0.6487  -0.1249  -0.0701  -0.0361   0.0928   0.1714

     occupation numbers 
     1.0000   1.0000   1.0000   1.0000   1.0000   1.0000   1.0000   1.0000
     1.0000   1.0000   1.0000   1.0000   1.0000   1.0000   1.0000   1.0000
     1.0000   1.0000   1.0000   1.0000   1.0000   1.0000   1.0000   1.0000
     1.0000   1.0000   1.0000   1.0000   1.0000   1.0000   1.0000   1.0000
     1.0000   1.0000   1.0000   1.0000   1.0000   1.0000   1.0004   1.0035
     1.0137   1.0749   0.3620   0.0003   0.0000   0.0000   0.0000   0.0000
     0.0000   0.0000   0.0000   0.0000   0.0000   0.0000   0.0000   0.0000
     0.0000   0.0000   0.0000   0.0000   0.0000   0.0000   0.0000

          k = 0.1818 0.1134 0.0000 (186374 PWs)   bands (ev):

   -50.3233 -50.3232 -50.3166 -50.3165 -49.9946 -49.9945 -49.9879 -49.9878
   -49.4876 -49.4875 -49.4806 -49.4804 -49.4496 -49.4442 -49.4409 -49.4381
   -49.4335 -49.4320 -49.4267 -49.4259 -49.3990 -49.3988 -49.3922 -49.3920
   -49.3912 -49.3864 -49.3846 -49.3799  -6.1979  -5.8302  -5.1848  -4.7434
    -4.3646  -4.3248  -4.2242  -3.8711  -3.6935  -3.5957  -3.3869  -3.2505
    -3.1908  -2.8477  -2.6797  -2.6033  -2.4758  -2.3392  -2.2323  -2.1726
    -2.0342  -1.9932  -1.8539  -1.8228  -1.6042  -1.4590  -1.1334  -0.9434
    -0.6583  -0.6293  -0.2157  -0.0134   0.0127   0.1300   0.1845

     occupation numbers 
     1.0000   1.0000   1.0000   1.0000   1.0000   1.0000   1.0000   1.0000
     1.0000   1.0000   1.0000   1.0000   1.0000   1.0000   1.0000   1.0000
     1.0000   1.0000   1.0000   1.0000   1.0000   1.0000   1.0000   1.0000
     1.0000   1.0000   1.0000   1.0000   1.0000   1.0000   1.0000   1.0000
     1.0000   1.0000   1.0000   1.0000   1.0000   1.0000   1.0001   1.0087
     1.0318   0.1723   0.0020   0.0001   0.0000   0.0000   0.0000   0.0000
     0.0000   0.0000   0.0000   0.0000   0.0000   0.0000   0.0000   0.0000
     0.0000   0.0000   0.0000   0.0000   0.0000   0.0000   0.0000

          k = 0.1818 0.2025 0.0000 (186449 PWs)   bands (ev):

   -50.3233 -50.3232 -50.3166 -50.3165 -49.9946 -49.9945 -49.9879 -49.9878
   -49.4876 -49.4875 -49.4806 -49.4804 -49.4494 -49.4443 -49.4409 -49.4381
   -49.4335 -49.4321 -49.4267 -49.4259 -49.3990 -49.3988 -49.3922 -49.3920
   -49.3911 -49.3863 -49.3846 -49.3799  -6.1088  -5.7423  -5.1069  -5.1000
    -4.7093  -4.2868  -4.2106  -3.9922  -3.8532  -3.3547  -3.2246  -3.1154
    -3.0809  -2.7437  -2.6136  -2.4680  -2.4394  -2.3226  -2.3069  -2.2449
    -1.9780  -1.9452  -1.8930  -1.7324  -1.4806  -1.4753  -1.1716  -0.8809
    -0.7712  -0.5125  -0.0655   0.0454   0.1300   0.1363   0.2397

     occupation numbers 
     1.0000   1.0000   1.0000   1.0000   1.0000   1.0000   1.0000   1.0000
     1.0000   1.0000   1.0000   1.0000   1.0000   1.0000   1.0000   1.0000
     1.0000   1.0000   1.0000   1.0000   1.0000   1.0000   1.0000   1.0000
     1.0000   1.0000   1.0000   1.0000   1.0000   1.0000   1.0000   1.0000
     1.0000   1.0000   1.0000   1.0000   1.0000   1.0003   1.0162   1.0789
     1.0802   0.0156   0.0002   0.0000   0.0000   0.0000   0.0000   0.0000
     0.0000   0.0000   0.0000   0.0000   0.0000   0.0000   0.0000   0.0000
     0.0000   0.0000   0.0000   0.0000   0.0000   0.0000   0.0000

          k = 0.1818 0.2916 0.0000 (186554 PWs)   bands (ev):

   -50.3233 -50.3232 -50.3166 -50.3165 -49.9946 -49.9945 -49.9879 -49.9878
   -49.4876 -49.4874 -49.4806 -49.4804 -49.4493 -49.4444 -49.4409 -49.4382
   -49.4335 -49.4321 -49.4267 -49.4259 -49.3990 -49.3988 -49.3922 -49.3920
   -49.3911 -49.3863 -49.3845 -49.3799  -5.9694  -5.6068  -5.4095  -5.0911
    -4.8978  -4.4176  -4.1495  -4.0337  -3.7883  -3.5346  -3.1584  -3.0607
    -2.9613  -2.6713  -2.6546  -2.5812  -2.3608  -2.2664  -2.1900  -2.1178
    -2.0716  -1.7969  -1.6960  -1.6104  -1.5541  -1.3805  -1.2512  -0.9602
    -0.6641  -0.2709   0.0364   0.0379   0.2055   0.2936   0.3315

     occupation numbers 
     1.0000   1.0000   1.0000   1.0000   1.0000   1.0000   1.0000   1.0000
     1.0000   1.0000   1.0000   1.0000   1.0000   1.0000   1.0000   1.0000
     1.0000   1.0000   1.0000   1.0000   1.0000   1.0000   1.0000   1.0000
     1.0000   1.0000   1.0000   1.0000   1.0000   1.0000   1.0000   1.0000
     1.0000   1.0000   1.0000   1.0000   1.0000   1.0000   1.0526   1.0636
     0.7147   0.0015   0.0008   0.0000   0.0000   0.0000   0.0000   0.0000
     0.0000   0.0000   0.0000   0.0000   0.0000   0.0000   0.0000   0.0000
     0.0000   0.0000   0.0000   0.0000   0.0000   0.0000   0.0000

          k = 0.1818 0.3806 0.0000 (186504 PWs)   bands (ev):

   -50.3233 -50.3232 -50.3166 -50.3165 -49.9946 -49.9945 -49.9879 -49.9878
   -49.4876 -49.4874 -49.4806 -49.4804 -49.4492 -49.4445 -49.4408 -49.4382
   -49.4335 -49.4321 -49.4267 -49.4259 -49.3990 -49.3988 -49.3922 -49.3920
   -49.3911 -49.3863 -49.3845 -49.3799  -5.7801  -5.6786  -5.4139  -5.3143
    -4.7522  -4.6488  -4.0422  -3.8933  -3.7473  -3.6785  -3.2834  -3.0852
    -2.9428  -2.8971  -2.7628  -2.4709  -2.3445  -2.1779  -2.1108  -1.9553
    -1.9339  -1.7807  -1.7653  -1.6167  -1.3430  -1.2927  -1.2819  -1.1529
    -0.4475  -0.1009  -0.0386   0.1224   0.2344   0.3357   0.4124

     occupation numbers 
     1.0000   1.0000   1.0000   1.0000   1.0000   1.0000   1.0000   1.0000
     1.0000   1.0000   1.0000   1.0000   1.0000   1.0000   1.0000   1.0000
     1.0000   1.0000   1.0000   1.0000   1.0000   1.0000   1.0000   1.0000
     1.0000   1.0000   1.0000   1.0000   1.0000   1.0000   1.0000   1.0000
     1.0000   1.0000   1.0000   1.0000   1.0000   1.0000   1.0035   1.0818
     0.6136   0.3703   0.0263   0.0000   0.0000   0.0000   0.0000   0.0000
     0.0000   0.0000   0.0000   0.0000   0.0000   0.0000   0.0000   0.0000
     0.0000   0.0000   0.0000   0.0000   0.0000   0.0000   0.0000

          k = 0.1818-0.3321 0.0000 (186497 PWs)   bands (ev):

   -50.3233 -50.3232 -50.3166 -50.3165 -49.9946 -49.9945 -49.9879 -49.9878
   -49.4876 -49.4874 -49.4806 -49.4804 -49.4492 -49.4445 -49.4408 -49.4382
   -49.4335 -49.4321 -49.4267 -49.4259 -49.3990 -49.3988 -49.3922 -49.3920
   -49.3911 -49.3863 -49.3845 -49.3799  -5.8897  -5.5585  -5.5020  -5.1884
    -4.8444  -4.5285  -3.9701  -3.8902  -3.6449  -3.5754  -3.5077  -3.2489
    -3.0016  -2.8385  -2.6925  -2.6756  -2.4684  -2.1930  -2.0684  -1.9901
    -1.9634  -1.8819  -1.7668  -1.6773  -1.3349  -1.2721  -1.0828  -1.0570
    -0.2683  -0.1863   0.0079   0.1449   0.3080   0.3475   0.4198

     occupation numbers 
     1.0000   1.0000   1.0000   1.0000   1.0000   1.0000   1.0000   1.0000
     1.0000   1.0000   1.0000   1.0000   1.0000   1.0000   1.0000   1.0000
     1.0000   1.0000   1.0000   1.0000   1.0000   1.0000   1.0000   1.0000
     1.0000   1.0000   1.0000   1.0000   1.0000   1.0000   1.0000   1.0000
     1.0000   1.0000   1.0000   1.0000   1.0000   1.0000   1.0000   1.0091
     0.9079   0.1456   0.0032   0.0018   0.0000   0.0000   0.0000   0.0000
     0.0000   0.0000   0.0000   0.0000   0.0000   0.0000   0.0000   0.0000
     0.0000   0.0000   0.0000   0.0000   0.0000   0.0000   0.0000

          k = 0.1818-0.2430 0.0000 (186494 PWs)   bands (ev):

   -50.3233 -50.3232 -50.3166 -50.3165 -49.9946 -49.9945 -49.9879 -49.9878
   -49.4876 -49.4875 -49.4806 -49.4804 -49.4493 -49.4444 -49.4408 -49.4382
   -49.4335 -49.4321 -49.4267 -49.4259 -49.3990 -49.3988 -49.3922 -49.3920
   -49.3911 -49.3863 -49.3845 -49.3799  -6.0516  -5.6850  -5.2454  -5.0664
    -4.8371  -4.3139  -4.0539  -3.7938  -3.6950  -3.4604  -3.4214  -3.3277
    -3.0988  -2.8972  -2.8666  -2.6520  -2.5858  -2.4278  -2.2546  -2.1289
    -1.9459  -1.8722  -1.7545  -1.7283  -1.4402  -1.2742  -0.9007  -0.8247
    -0.4243  -0.2923   0.0530   0.2057   0.2229   0.3032   0.3114

     occupation numbers 
     1.0000   1.0000   1.0000   1.0000   1.0000   1.0000   1.0000   1.0000
     1.0000   1.0000   1.0000   1.0000   1.0000   1.0000   1.0000   1.0000
     1.0000   1.0000   1.0000   1.0000   1.0000   1.0000   1.0000   1.0000
     1.0000   1.0000   1.0000   1.0000   1.0000   1.0000   1.0000   1.0000
     1.0000   1.0000   1.0000   1.0000   1.0000   1.0000   1.0000   1.0009
     1.0832   0.3708   0.2374   0.0007   0.0000   0.0000   0.0000   0.0000
     0.0000   0.0000   0.0000   0.0000   0.0000   0.0000   0.0000   0.0000
     0.0000   0.0000   0.0000   0.0000   0.0000   0.0000   0.0000

          k = 0.1818-0.1539 0.0000 (186399 PWs)   bands (ev):

   -50.3233 -50.3232 -50.3166 -50.3165 -49.9946 -49.9945 -49.9879 -49.9878
   -49.4876 -49.4875 -49.4806 -49.4804 -49.4495 -49.4442 -49.4409 -49.4382
   -49.4335 -49.4321 -49.4267 -49.4259 -49.3990 -49.3988 -49.3922 -49.3920
   -49.3911 -49.3863 -49.3845 -49.3799  -6.1635  -5.7955  -5.1517  -4.9075
    -4.5261  -4.3040  -3.9738  -3.8426  -3.6384  -3.4559  -3.3838  -3.3501
    -3.1403  -3.0398  -2.9771  -2.9366  -2.5323  -2.4608  -2.3256  -2.2244
    -1.9892  -1.9557  -1.8164  -1.5478  -1.5439  -1.3005  -0.9165  -0.7314
    -0.5997  -0.3967   0.0060   0.0138   0.0616   0.1708   0.2702

     occupation numbers 
     1.0000   1.0000   1.0000   1.0000   1.0000   1.0000   1.0000   1.0000
     1.0000   1.0000   1.0000   1.0000   1.0000   1.0000   1.0000   1.0000
     1.0000   1.0000   1.0000   1.0000   1.0000   1.0000   1.0000   1.0000
     1.0000   1.0000   1.0000   1.0000   1.0000   1.0000   1.0000   1.0000
     1.0000   1.0000   1.0000   1.0000   1.0000   1.0000   1.0001   1.0004
     1.0650   1.0279   0.7964   0.5794   0.0000   0.0000   0.0000   0.0000
     0.0000   0.0000   0.0000   0.0000   0.0000   0.0000   0.0000   0.0000
     0.0000   0.0000   0.0000   0.0000   0.0000   0.0000   0.0000

          k = 0.1818-0.0648 0.0000 (186337 PWs)   bands (ev):

   -50.3233 -50.3232 -50.3166 -50.3165 -49.9946 -49.9945 -49.9879 -49.9878
   -49.4876 -49.4875 -49.4806 -49.4804 -49.4496 -49.4441 -49.4409 -49.4382
   -49.4335 -49.4320 -49.4267 -49.4259 -49.3990 -49.3988 -49.3922 -49.3920
   -49.3912 -49.3864 -49.3846 -49.3799  -6.2252  -5.8569  -5.2095  -4.5341
    -4.3385  -4.1489  -4.1061  -3.8635  -3.7629  -3.5725  -3.4552  -3.3084
    -3.1940  -3.1663  -2.8900  -2.7962  -2.7123  -2.4156  -2.3533  -2.1213
    -2.0072  -1.9451  -1.8528  -1.6607  -1.5839  -1.2445  -0.9663  -0.9556
    -0.6880  -0.4681  -0.0495  -0.0494  -0.0236   0.1008   0.1889

     occupation numbers 
     1.0000   1.0000   1.0000   1.0000   1.0000   1.0000   1.0000   1.0000
     1.0000   1.0000   1.0000   1.0000   1.0000   1.0000   1.0000   1.0000
     1.0000   1.0000   1.0000   1.0000   1.0000   1.0000   1.0000   1.0000
     1.0000   1.0000   1.0000   1.0000   1.0000   1.0000   1.0000   1.0000
     1.0000   1.0000   1.0000   1.0000   1.0000   1.0000   1.0000   1.0016
     1.0301   1.0472   0.3365   0.0602   0.0061   0.0000   0.0000   0.0000
     0.0000   0.0000   0.0000   0.0000   0.0000   0.0000   0.0000   0.0000
     0.0000   0.0000   0.0000   0.0000   0.0000   0.0000   0.0000

          k = 0.2727 0.0364 0.0000 (186443 PWs)   bands (ev):

   -50.3225 -50.3224 -50.3174 -50.3173 -49.9939 -49.9938 -49.9887 -49.9886
   -49.4868 -49.4867 -49.4813 -49.4812 -49.4487 -49.4434 -49.4420 -49.4388
   -49.4327 -49.4314 -49.4274 -49.4266 -49.3982 -49.3980 -49.3929 -49.3928
   -49.3904 -49.3857 -49.3853 -49.3806  -6.1033  -5.7346  -5.0853  -4.6390
    -4.3040  -4.2795  -4.1802  -3.8964  -3.8494  -3.6439  -3.5385  -3.2182
    -3.1851  -3.1682  -2.8689  -2.8384  -2.7469  -2.4803  -2.2068  -2.1409
    -2.1004  -1.8799  -1.8593  -1.7861  -1.5061  -1.3981  -1.2721  -0.9601
    -0.8172  -0.5723  -0.5034  -0.1038   0.0868   0.1392   0.1630

     occupation numbers 
     1.0000   1.0000   1.0000   1.0000   1.0000   1.0000   1.0000   1.0000
     1.0000   1.0000   1.0000   1.0000   1.0000   1.0000   1.0000   1.0000
     1.0000   1.0000   1.0000   1.0000   1.0000   1.0000   1.0000   1.0000
     1.0000   1.0000   1.0000   1.0000   1.0000   1.0000   1.0000   1.0000
     1.0000   1.0000   1.0000   1.0000   1.0000   1.0000   1.0000   1.0186
     1.0352   1.0459   0.2463   0.1454   0.0170   0.0000   0.0000   0.0000
     0.0000   0.0000   0.0000   0.0000   0.0000   0.0000   0.0000   0.0000
     0.0000   0.0000   0.0000   0.0000   0.0000   0.0000   0.0000

          k = 0.2727 0.1255 0.0000 (186536 PWs)   bands (ev):

   -50.3225 -50.3224 -50.3174 -50.3173 -49.9939 -49.9938 -49.9887 -49.9886
   -49.4868 -49.4867 -49.4813 -49.4812 -49.4486 -49.4435 -49.4420 -49.4387
   -49.4327 -49.4314 -49.4274 -49.4266 -49.3982 -49.3981 -49.3930 -49.3928
   -49.3904 -49.3856 -49.3853 -49.3806  -6.0576  -5.6896  -5.0432  -4.6679
    -4.6611  -4.3054  -4.2778  -4.1836  -3.6630  -3.5950  -3.3871  -3.2294
    -2.9922  -2.8833  -2.7564  -2.7239  -2.5762  -2.4739  -2.4114  -2.2827
    -2.1750  -1.9056  -1.8383  -1.7412  -1.5563  -1.4224  -1.2976  -0.8067
    -0.7838  -0.6117  -0.4636  -0.1219   0.1552   0.1963   0.2702

     occupation numbers 
     1.0000   1.0000   1.0000   1.0000   1.0000   1.0000   1.0000   1.0000
     1.0000   1.0000   1.0000   1.0000   1.0000   1.0000   1.0000   1.0000
     1.0000   1.0000   1.0000   1.0000   1.0000   1.0000   1.0000   1.0000
     1.0000   1.0000   1.0000   1.0000   1.0000   1.0000   1.0000   1.0000
     1.0000   1.0000   1.0000   1.0000   1.0000   1.0000   1.0001   1.0145
     0.8678   0.3063   0.0222   0.0087   0.0000   0.0000   0.0000   0.0000
     0.0000   0.0000   0.0000   0.0000   0.0000   0.0000   0.0000   0.0000
     0.0000   0.0000   0.0000   0.0000   0.0000   0.0000   0.0000

          k = 0.2727 0.2146 0.0000 (186561 PWs)   bands (ev):

   -50.3225 -50.3224 -50.3174 -50.3173 -49.9939 -49.9938 -49.9887 -49.9886
   -49.4868 -49.4867 -49.4813 -49.4812 -49.4485 -49.4436 -49.4419 -49.4388
   -49.4328 -49.4314 -49.4274 -49.4266 -49.3982 -49.3981 -49.3930 -49.3928
   -49.3904 -49.3856 -49.3853 -49.3806  -5.9614  -5.5948  -5.0130  -4.9610
    -4.6474  -4.6161  -4.2822  -4.1518  -3.8784  -3.6357  -3.2224  -3.0401
    -2.9496  -2.8906  -2.7922  -2.6764  -2.5295  -2.3775  -2.2713  -2.1345
    -2.0909  -2.0461  -1.7710  -1.7699  -1.3669  -1.3085  -1.2439  -0.9325
    -0.7313  -0.3328  -0.3153  -0.2149   0.1683   0.2104   0.2750

     occupation numbers 
     1.0000   1.0000   1.0000   1.0000   1.0000   1.0000   1.0000   1.0000
     1.0000   1.0000   1.0000   1.0000   1.0000   1.0000   1.0000   1.0000
     1.0000   1.0000   1.0000   1.0000   1.0000   1.0000   1.0000   1.0000
     1.0000   1.0000   1.0000   1.0000   1.0000   1.0000   1.0000   1.0000
     1.0000   1.0000   1.0000   1.0000   1.0000   1.0000   1.0169   1.0286
     0.6514   0.3393   0.0548   0.0018   0.0000   0.0000   0.0000   0.0000
     0.0000   0.0000   0.0000   0.0000   0.0000   0.0000   0.0000   0.0000
     0.0000   0.0000   0.0000   0.0000   0.0000   0.0000   0.0000

          k = 0.2727 0.3037 0.0000 (186567 PWs)   bands (ev):

   -50.3225 -50.3224 -50.3174 -50.3173 -49.9939 -49.9938 -49.9887 -49.9886
   -49.4868 -49.4867 -49.4813 -49.4812 -49.4484 -49.4437 -49.4419 -49.4388
   -49.4328 -49.4314 -49.4274 -49.4266 -49.3983 -49.3981 -49.3930 -49.3928
   -49.3904 -49.3856 -49.3853 -49.3806  -5.8148  -5.4539  -5.3144  -4.9832
    -4.7544  -4.5779  -4.3120  -4.2105  -3.8790  -3.5659  -3.4202  -3.4083
    -3.0488  -2.8974  -2.7367  -2.4909  -2.4046  -2.3781  -2.0691  -2.0006
    -2.0004  -1.8209  -1.6388  -1.6231  -1.4345  -1.2079  -1.0054  -0.9009
    -0.8213  -0.3865  -0.0830   0.0295   0.1581   0.1783   0.1854

     occupation numbers 
     1.0000   1.0000   1.0000   1.0000   1.0000   1.0000   1.0000   1.0000
     1.0000   1.0000   1.0000   1.0000   1.0000   1.0000   1.0000   1.0000
     1.0000   1.0000   1.0000   1.0000   1.0000   1.0000   1.0000   1.0000
     1.0000   1.0000   1.0000   1.0000   1.0000   1.0000   1.0000   1.0000
     1.0000   1.0000   1.0000   1.0000   1.0000   1.0000   1.0000   1.0000
     1.0458   0.3718   0.0127   0.0000   0.0000   0.0000   0.0000   0.0000
     0.0000   0.0000   0.0000   0.0000   0.0000   0.0000   0.0000   0.0000
     0.0000   0.0000   0.0000   0.0000   0.0000   0.0000   0.0000

          k = 0.2727 0.3928 0.0000 (186565 PWs)   bands (ev):

   -50.3225 -50.3224 -50.3174 -50.3173 -49.9939 -49.9938 -49.9887 -49.9886
   -49.4868 -49.4867 -49.4813 -49.4812 -49.4483 -49.4438 -49.4418 -49.4389
   -49.4328 -49.4314 -49.4274 -49.4266 -49.3983 -49.3981 -49.3930 -49.3928
   -49.3903 -49.3856 -49.3853 -49.3806  -5.6186  -5.5778  -5.2532  -5.2113
    -4.5930  -4.5392  -4.4602  -4.0918  -3.7383  -3.7375  -3.6203  -3.4996
    -3.3107  -2.8332  -2.7833  -2.6151  -2.4543  -2.1633  -2.0098  -1.9986
    -1.7571  -1.6402  -1.6073  -1.4520  -1.2531  -1.1230  -1.1226  -1.0006
    -0.6011  -0.3200  -0.0109   0.0681   0.0948   0.2492   0.2928

     occupation numbers 
     1.0000   1.0000   1.0000   1.0000   1.0000   1.0000   1.0000   1.0000
     1.0000   1.0000   1.0000   1.0000   1.0000   1.0000   1.0000   1.0000
     1.0000   1.0000   1.0000   1.0000   1.0000   1.0000   1.0000   1.0000
     1.0000   1.0000   1.0000   1.0000   1.0000   1.0000   1.0000   1.0000
     1.0000   1.0000   1.0000   1.0000   1.0000   1.0000   1.0000   1.0000
[...]
     atom   18 type  1   force =     0.00018882   -0.00006736   -0.00008388
     atom   19 type  1   force =    -0.00012769   -0.00001119   -0.00007402
     atom   20 type  1   force =    -0.00005499    0.00015100   -0.00018309
     atom   21 type  1   force =     0.00020805   -0.00007639    0.00029794
     atom   22 type  1   force =    -0.00000254    0.00002142    0.00004581
     atom   23 type  1   force =     0.00001819   -0.00002442   -0.00015326
     atom   24 type  1   force =    -0.00020162    0.00007149   -0.00038640
     atom   25 type  1   force =     0.00005817   -0.00015405    0.00013194
     atom   26 type  1   force =     0.00013720    0.00001109    0.00006727
     atom   27 type  1   force =    -0.00020206    0.00006416    0.00012768
     atom   28 type  1   force =     0.00009028   -0.00026555   -0.00001594
     The non-local contrib.  to forces
     atom    1 type  1   force =     0.00094460   -0.01025903    0.08712501
     atom    2 type  1   force =    -0.00092716    0.01022620   -0.08712192
     atom    3 type  1   force =     0.00027638   -0.01562289   -0.05555304
     atom    4 type  1   force =     0.00114603    0.00352567   -0.01012307
     atom    5 type  1   force =    -0.00015699   -0.00262255   -0.00052967
     atom    6 type  1   force =     0.00023589    0.00144341    0.00161505
     atom    7 type  1   force =    -0.00096303   -0.00096034    0.00156804
     atom    8 type  1   force =     0.00027642   -0.00040660   -0.00019554
     atom    9 type  1   force =    -0.00028415    0.00040272    0.00007839
     atom   10 type  1   force =     0.00094979    0.00092308   -0.00163336
     atom   11 type  1   force =    -0.00024913   -0.00141851   -0.00167067
     atom   12 type  1   force =     0.00015012    0.00261068    0.00052769
     atom   13 type  1   force =    -0.00114445   -0.00355065    0.01019926
     atom   14 type  1   force =    -0.00026114    0.01567374    0.05566690
     atom   15 type  1   force =     0.00094333   -0.01025910    0.08712524
     atom   16 type  1   force =    -0.00091933    0.01022555   -0.08712165
     atom   17 type  1   force =     0.00027357   -0.01562240   -0.05555401
     atom   18 type  1   force =     0.00114560    0.00352292   -0.01012448
     atom   19 type  1   force =    -0.00015642   -0.00262164   -0.00053035
     atom   20 type  1   force =     0.00023426    0.00144274    0.00161431
     atom   21 type  1   force =    -0.00096323   -0.00096030    0.00156784
     atom   22 type  1   force =     0.00027650   -0.00040642   -0.00019508
     atom   23 type  1   force =    -0.00028383    0.00040264    0.00007863
     atom   24 type  1   force =     0.00094933    0.00092316   -0.00163358
     atom   25 type  1   force =    -0.00024907   -0.00141821   -0.00167060
     atom   26 type  1   force =     0.00015022    0.00261074    0.00052757
     atom   27 type  1   force =    -0.00114460   -0.00355099    0.01019900
     atom   28 type  1   force =    -0.00026162    0.01567375    0.05566658
     The ionic contribution  to forces
     atom    1 type  1   force =    -0.00278951   -0.14904364   13.12971573
     atom    2 type  1   force =     0.00262741    0.14884678  -13.12759121
     atom    3 type  1   force =    -0.00148605   -0.27749597  -11.91859502
     atom    4 type  1   force =    -0.00243489    0.17416316   -9.62381333
     atom    5 type  1   force =     0.00050698   -0.04778746   -7.65068574
     atom    6 type  1   force =    -0.00079867    0.00283398   -5.26092740
     atom    7 type  1   force =     0.00512616    0.01420707   -3.28997337
     atom    8 type  1   force =    -0.00174457   -0.02740326   -1.05492896
     atom    9 type  1   force =     0.00186613    0.02755224    1.05248211
     atom   10 type  1   force =    -0.00505833   -0.01477710    3.28803647
     atom   11 type  1   force =     0.00086283   -0.00219165    5.26016647
     atom   12 type  1   force =    -0.00045269    0.04763779    7.64967418
     atom   13 type  1   force =     0.00235990   -0.17463053    9.62599515
     atom   14 type  1   force =     0.00141047    0.27809929   11.92044089
     atom   15 type  1   force =    -0.00280664   -0.14904495   13.12971990
     atom   16 type  1   force =     0.00274388    0.14884491  -13.12758675
     atom   17 type  1   force =    -0.00153846   -0.27748767  -11.91859564
     atom   18 type  1   force =    -0.00244508    0.17411783   -9.62381584
     atom   19 type  1   force =     0.00051226   -0.04776437   -7.65069504
     atom   20 type  1   force =    -0.00082690    0.00282412   -5.26093431
     atom   21 type  1   force =     0.00512400    0.01420783   -3.28996618
     atom   22 type  1   force =    -0.00174289   -0.02739821   -1.05493291
     atom   23 type  1   force =     0.00187239    0.02755015    1.05249336
     atom   24 type  1   force =    -0.00506364   -0.01477561    3.28803552
     atom   25 type  1   force =     0.00086410   -0.00218768    5.26017233
     atom   26 type  1   force =    -0.00044838    0.04763929    7.64968262
     atom   27 type  1   force =     0.00235753   -0.17463589    9.62599165
     atom   28 type  1   force =     0.00140267    0.27809954   11.92043533
     The local contribution  to forces
     atom    1 type  1   force =     0.00195570    0.14523747  -13.24061147
     atom    2 type  1   force =    -0.00182422   -0.14492231   13.23869244
     atom    3 type  1   force =     0.00103744    0.27874116   11.98393797
     atom    4 type  1   force =     0.00167120   -0.17356169    9.63293894
     atom    5 type  1   force =    -0.00049473    0.05143600    7.65956359
     atom    6 type  1   force =     0.00054452   -0.00563303    5.26188990
     atom    7 type  1   force =    -0.00401305   -0.01276832    3.29033249
     atom    8 type  1   force =     0.00151020    0.02804692    1.05623427
     atom    9 type  1   force =    -0.00160934   -0.02819385   -1.05374139
     atom   10 type  1   force =     0.00396506    0.01336854   -3.28838424
     atom   11 type  1   force =    -0.00059169    0.00496327   -5.26110019
     atom   12 type  1   force =     0.00045600   -0.05127356   -7.65852511
     atom   13 type  1   force =    -0.00160941    0.17407072   -9.63517049
     atom   14 type  1   force =    -0.00098622   -0.27946947  -11.98578934
     atom   15 type  1   force =     0.00197316    0.14523885  -13.24061580
     atom   16 type  1   force =    -0.00194181   -0.14491960   13.23868729
     atom   17 type  1   force =     0.00108880    0.27873223   11.98393933
     atom   18 type  1   force =     0.00168085   -0.17351568    9.63294206
     atom   19 type  1   force =    -0.00049922    0.05141282    7.65957292
     atom   20 type  1   force =     0.00057355   -0.00562315    5.26189706
     atom   21 type  1   force =    -0.00401069   -0.01276902    3.29032523
     atom   22 type  1   force =     0.00150846    0.02804186    1.05623833
     atom   23 type  1   force =    -0.00161572   -0.02819177   -1.05375290
     atom   24 type  1   force =     0.00397061    0.01336695   -3.28838334
     atom   25 type  1   force =    -0.00059306    0.00495917   -5.26110625
     atom   26 type  1   force =     0.00045203   -0.05127510   -7.65853358
     atom   27 type  1   force =    -0.00160695    0.17407618   -9.63516673
     atom   28 type  1   force =    -0.00097856   -0.27946972  -11.98578334
     The core correction contribution to forces
     atom    1 type  1   force =     0.00000000    0.00000000    0.00000000
     atom    2 type  1   force =     0.00000000    0.00000000    0.00000000
     atom    3 type  1   force =     0.00000000    0.00000000    0.00000000
     atom    4 type  1   force =     0.00000000    0.00000000    0.00000000
     atom    5 type  1   force =     0.00000000    0.00000000    0.00000000
     atom    6 type  1   force =     0.00000000    0.00000000    0.00000000
     atom    7 type  1   force =     0.00000000    0.00000000    0.00000000
     atom    8 type  1   force =     0.00000000    0.00000000    0.00000000
     atom    9 type  1   force =     0.00000000    0.00000000    0.00000000
     atom   10 type  1   force =     0.00000000    0.00000000    0.00000000
     atom   11 type  1   force =     0.00000000    0.00000000    0.00000000
     atom   12 type  1   force =     0.00000000    0.00000000    0.00000000
     atom   13 type  1   force =     0.00000000    0.00000000    0.00000000
     atom   14 type  1   force =     0.00000000    0.00000000    0.00000000
     atom   15 type  1   force =     0.00000000    0.00000000    0.00000000
     atom   16 type  1   force =     0.00000000    0.00000000    0.00000000
     atom   17 type  1   force =     0.00000000    0.00000000    0.00000000
     atom   18 type  1   force =     0.00000000    0.00000000    0.00000000
     atom   19 type  1   force =     0.00000000    0.00000000    0.00000000
     atom   20 type  1   force =     0.00000000    0.00000000    0.00000000
     atom   21 type  1   force =     0.00000000    0.00000000    0.00000000
     atom   22 type  1   force =     0.00000000    0.00000000    0.00000000
     atom   23 type  1   force =     0.00000000    0.00000000    0.00000000
     atom   24 type  1   force =     0.00000000    0.00000000    0.00000000
     atom   25 type  1   force =     0.00000000    0.00000000    0.00000000
     atom   26 type  1   force =     0.00000000    0.00000000    0.00000000
     atom   27 type  1   force =     0.00000000    0.00000000    0.00000000
     atom   28 type  1   force =     0.00000000    0.00000000    0.00000000
     The Hubbard contrib.    to forces
     atom    1 type  1   force =     0.00000000    0.00000000    0.00000000
     atom    2 type  1   force =     0.00000000    0.00000000    0.00000000
     atom    3 type  1   force =     0.00000000    0.00000000    0.00000000
     atom    4 type  1   force =     0.00000000    0.00000000    0.00000000
     atom    5 type  1   force =     0.00000000    0.00000000    0.00000000
     atom    6 type  1   force =     0.00000000    0.00000000    0.00000000
     atom    7 type  1   force =     0.00000000    0.00000000    0.00000000
     atom    8 type  1   force =     0.00000000    0.00000000    0.00000000
     atom    9 type  1   force =     0.00000000    0.00000000    0.00000000
     atom   10 type  1   force =     0.00000000    0.00000000    0.00000000
     atom   11 type  1   force =     0.00000000    0.00000000    0.00000000
     atom   12 type  1   force =     0.00000000    0.00000000    0.00000000
     atom   13 type  1   force =     0.00000000    0.00000000    0.00000000
     atom   14 type  1   force =     0.00000000    0.00000000    0.00000000
     atom   15 type  1   force =     0.00000000    0.00000000    0.00000000
     atom   16 type  1   force =     0.00000000    0.00000000    0.00000000
     atom   17 type  1   force =     0.00000000    0.00000000    0.00000000
     atom   18 type  1   force =     0.00000000    0.00000000    0.00000000
     atom   19 type  1   force =     0.00000000    0.00000000    0.00000000
     atom   20 type  1   force =     0.00000000    0.00000000    0.00000000
     atom   21 type  1   force =     0.00000000    0.00000000    0.00000000
     atom   22 type  1   force =     0.00000000    0.00000000    0.00000000
     atom   23 type  1   force =     0.00000000    0.00000000    0.00000000
     atom   24 type  1   force =     0.00000000    0.00000000    0.00000000
     atom   25 type  1   force =     0.00000000    0.00000000    0.00000000
     atom   26 type  1   force =     0.00000000    0.00000000    0.00000000
     atom   27 type  1   force =     0.00000000    0.00000000    0.00000000
     atom   28 type  1   force =     0.00000000    0.00000000    0.00000000
     The SCF correction term to forces
     atom    1 type  1   force =    -0.00000003   -0.00000078    0.00000006
     atom    2 type  1   force =    -0.00000003    0.00000075   -0.00000004
     atom    3 type  1   force =     0.00000005   -0.00000028   -0.00000054
     atom    4 type  1   force =    -0.00000014    0.00000010    0.00000425
     atom    5 type  1   force =     0.00000015   -0.00000025   -0.00000077
     atom    6 type  1   force =     0.00000003    0.00000010   -0.00000020
     atom    7 type  1   force =    -0.00000012    0.00000001   -0.00000038
     atom    8 type  1   force =     0.00000000   -0.00000009   -0.00000019
     atom    9 type  1   force =     0.00000001    0.00000013    0.00000031
     atom   10 type  1   force =     0.00000011   -0.00000005    0.00000050
     atom   11 type  1   force =    -0.00000003   -0.00000006    0.00000033
     atom   12 type  1   force =    -0.00000016    0.00000024    0.00000079
     atom   13 type  1   force =     0.00000018   -0.00000010   -0.00000410
     atom   14 type  1   force =    -0.00000005    0.00000035    0.00000074
     atom   15 type  1   force =    -0.00000004   -0.00000079    0.00000005
     atom   16 type  1   force =    -0.00000004    0.00000071   -0.00000011
     atom   17 type  1   force =     0.00000003   -0.00000027   -0.00000056
     atom   18 type  1   force =    -0.00000014    0.00000008    0.00000428
     atom   19 type  1   force =     0.00000016   -0.00000024   -0.00000074
     atom   20 type  1   force =     0.00000003    0.00000010   -0.00000021
     atom   21 type  1   force =    -0.00000011    0.00000000   -0.00000038
     atom   22 type  1   force =     0.00000000   -0.00000009   -0.00000020
     atom   23 type  1   force =     0.00000000    0.00000013    0.00000031
     atom   24 type  1   force =     0.00000011   -0.00000005    0.00000051
     atom   25 type  1   force =    -0.00000003   -0.00000007    0.00000033
     atom   26 type  1   force =    -0.00000016    0.00000024    0.00000079
     atom   27 type  1   force =     0.00000016   -0.00000010   -0.00000412
     atom   28 type  1   force =    -0.00000006    0.00000036    0.00000073

     Total force =     0.001363     Total SCF correction =     0.000009
     Energy error            =      3.8E-06 Ry
     Gradient error          =      3.9E-04 Ry/Bohr

     bfgs converged in  16 scf cycles and  15 bfgs steps
     (criteria: energy <  1.0E-05 Ry, force <  3.9E-04 Ry/Bohr)

     End of BFGS Geometry Optimization

     Final energy             =    -421.0230569751 Ry

     File ./Li/Lithium.bfgs deleted, as requested
Begin final coordinates

ATOMIC_POSITIONS (angstrom)
Li               0.2707248215       -0.2480378621       31.8251776843
Li              -0.2709925338        5.0190563439       19.9616705276
Li               0.7533934850        2.1191020027       20.7754632746
Li               1.0183154713        6.9731688330       21.8372417392
Li               1.7961702652        4.2207606483       22.5522467168
Li              -0.0044551464        1.6511058446       23.6321088295
Li              -0.1506907229        6.3221803248       24.4711096581
Li               1.0764784743        3.7677873699       25.4365006845
Li               1.8987009622        1.0025818161       26.3584744952
Li               2.1341242932        5.8691043493       27.3229493498
Li               0.0045834846        3.1193023680       28.1609818146
Li               1.1789286743        0.5497562490       29.2383782331
Li               0.9647650703        5.2180636357       29.9529167682
Li               2.2213370972        2.6511657478       31.0126771451
Li               3.2456676462       -0.2480460008       31.8251800736
Li               2.7038718574        5.0190493639       19.9616771668
Li               3.7283598039        2.1191056826       20.7754680308
Li               3.9932550116        6.9731887917       21.8372505460
Li               4.7710911670        4.2207553516       22.5522519951
Li               2.9704859505        1.6511105547       23.6321112554
Li               2.8242413567        6.3221796121       24.4711138445
Li               4.0514102991        3.7677847938       25.4364946893
Li               4.8736309008        1.0025830976       26.3584778775
Li               5.1090586675        5.8691036981       27.3229503032
Li               2.9795160879        3.1193003459       28.1609842288
Li               4.1538564354        0.5497568069       29.2383832765
Li               3.9396992503        5.2180673822       29.9529167803
Li               5.1962744946        2.6511698662       31.0126743903
End final coordinates



     Writing all to output data dir ./Li/Lithium.save/ :
     XML data file
     init_run     :     12.77s CPU     22.08s WALL (       1 calls)
     electrons    :   6596.67s CPU   8511.75s WALL (      16 calls)
     update_pot   :      1.01s CPU      1.24s WALL (      15 calls)
     forces       :    109.05s CPU    118.94s WALL (      16 calls)

     Called by init_run:
     wfcinit      :      2.34s CPU      3.31s WALL (       1 calls)
     wfcinit:wfcr :      2.23s CPU      3.20s WALL (      25 calls)
     potinit      :      0.86s CPU      0.93s WALL (       1 calls)
     hinit0       :      4.56s CPU     12.70s WALL (       1 calls)

     Called by electrons:
     c_bands      :   5497.54s CPU   7134.94s WALL (     304 calls)
     sum_band     :    321.14s CPU    455.80s WALL (     304 calls)
     v_of_rho     :     14.61s CPU     17.47s WALL (     306 calls)
     v_h          :      1.35s CPU      1.64s WALL (     306 calls)
     v_xc         :     13.26s CPU     15.82s WALL (     306 calls)
     newd         :      6.73s CPU      7.48s WALL (     306 calls)
     PAW_pot      :      2.36s CPU      3.37s WALL (     321 calls)
     mix_rho      :     42.54s CPU     54.80s WALL (     304 calls)

     Called by c_bands:
     init_us_2    :     26.61s CPU     29.38s WALL (   16000 calls)
     cegterg      :   5280.14s CPU   6616.87s WALL (    9175 calls)

     Called by sum_band:
     sum_band:wei :      0.60s CPU      0.72s WALL (     304 calls)
     sum_band:loo :    311.85s CPU    445.04s WALL (     304 calls)
     sum_band:buf :      3.17s CPU      3.51s WALL (    7600 calls)
     sum_band:ini :     11.75s CPU     12.45s WALL (    7600 calls)
     sum_band:cal :     38.75s CPU     47.91s WALL (    7975 calls)
     sum_band:bec :      0.73s CPU      0.82s WALL (    7975 calls)
     addusdens    :      6.56s CPU      6.87s WALL (     304 calls)
                                        0.00s GPU  (     304 calls)
     addusd:skk   :      1.32s CPU      1.36s WALL (     304 calls)
                                        0.00s GPU  (     304 calls)

     Called by *egterg:
     cdiaghg      :   1551.59s CPU   1614.21s WALL (  127241 calls)
     cegterg:over :    310.73s CPU    352.09s WALL (  119017 calls)
     cegterg:upda :    220.81s CPU    230.87s WALL (  119017 calls)
     cegterg:last :     58.82s CPU     59.76s WALL (   12335 calls)
     h_psi        :   2819.96s CPU   4009.93s WALL (  128217 calls)
     s_psi        :    169.58s CPU    177.42s WALL (  128217 calls)
     g_psi        :      3.02s CPU      3.22s WALL (  119017 calls)

     Called by h_psi:
     h_psi:calbec :    261.50s CPU    332.81s WALL (  128217 calls)
     vloc_psi     :   2367.56s CPU   3468.47s WALL (  128217 calls)
                                        0.00s GPU  (  128217 calls)
     add_vuspsi   :    179.43s CPU    195.94s WALL (  128217 calls)

     General routines
     calbec       :    307.00s CPU    388.44s WALL (  137792 calls)
     fft          :     15.00s CPU     26.46s WALL (    4007 calls)
     ffts         :     32.69s CPU     42.34s WALL (   34312 calls)
     fftw         :   2532.71s CPU   3720.61s WALL ( 4798984 calls)
     interpolate  :      2.03s CPU      2.36s WALL (     306 calls)

     Parallel routines

     PAW routines
     PAW_pot      :      2.36s CPU      3.37s WALL (     321 calls)

     Environ routines

     PWSCF        :      1h53m CPU      2h25m WALL


   This run was terminated on:  13:11: 0   2Jan2025            

=------------------------------------------------------------------------------=
   JOB DONE.
=------------------------------------------------------------------------------=
