
     Program PWSCF v.7.4 starts on 12Jan2025 at  5:46:51 
        Git branch: develop
        Last git commit: e877ff360aceba4b8d76ffc2fb1c70545fc5dd57
        Last git commit date: Sat Jan 4 12:56:15 2025 +0000
        Last git commit subject: Merge branch 'orthoU' into 'develop'

     This program is part of the open-source Quantum ESPRESSO suite
     for quantum simulation of materials; please cite
         "P. Giannozzi et al., J. Phys.:Condens. Matter 21 395502 (2009);
         "P. Giannozzi et al., J. Phys.:Condens. Matter 29 465901 (2017);
         "P. Giannozzi et al., J. Chem. Phys. 152 154105 (2020);
          URL http://www.quantum-espresso.org", 
     in publications or presentations arising from this work. More details at
     http://www.quantum-espresso.org/quote

     Parallel version (MPI), running on   440 processors

     MPI processes distributed on    11 nodes
     175711 MiB available memory on the printing compute node when the environment starts
 
     Reading input from espresso.pwi
Warning: card &CELL ignored
Warning: card    PRESS_CONV_THR   = 0.1 ignored
Warning: card    CELL_DOFREE      = 'ALL' ignored
Warning: card / ignored
Warning: card &FCP ignored
Warning: card / ignored
Warning: card &RISM ignored
Warning: card / ignored

     Current dimensions of program PWSCF are:
     Max number of different atomic species (ntypx) = 10
     Max number of k-points (npk) =  40000
     Max angular momentum in pseudopotentials (lmaxx) =  4

     IMPORTANT: XC functional enforced from input :
     Exchange-correlation= PBE
                           (   1   4   3   4   0   0   0)
     Any further DFT definition will be discarded
     Please, verify this is what you really want

 
     Reading input from environ.in:
     * using ionic solvent mode
     * setting boundary derivatives method to SSCS default
     * setting electrolyte-boundary derivatives method to SSCS default

Environ Warning (1001): card EOF ignored

     
 
     K-points division:     npool     =       2
     R & G space division:  proc/nbgrp/npool/nimage =     220
     Subspace diagonalization in iterative solution of the eigenvalue problem:
     one sub-group per band group will be used
     scalapack distributed-memory algorithm (size of sub-group:  2*  2 procs)

 
     Parallelization info
     --------------------
     sticks:   dense  smooth     PW     G-vecs:    dense   smooth      PW
     Min         100      40     10                61138    15460    2064
     Max         101      41     11                61185    15485    2119
     Sum       22119    8865   2329             13455463  3404289  459339
 
     Using Slab Decomposition
 


     bravais-lattice index     =           12
     lattice parameter (alat)  =      18.3607  a.u.
     unit-cell volume          =   35212.2554 (a.u.)^3
     number of atoms/cell      =           68
     number of atomic types    =            1
     number of electrons       =       204.00
     number of Kohn-Sham states=          153
     kinetic-energy cutoff     =      80.0000  Ry
     charge density cutoff     =     800.0000  Ry
     scf convergence threshold =      1.0E-14
     mixing beta               =       0.2000
     number of iterations used =            8  local-TF  mixing
     Exchange-correlation= PBE
                           (   1   4   3   4   0   0   0)

     ================================================================================
 
                                  Environ Setup Summary

     ================================================================================
 
     Please cite

          O. Andreussi, I. Dabo and N. Marzari, J. Chem. Phys. 136, 064102 (2012)
          F. Nattino, M. Truscott, N. Marzari, and O. Andreussi, J. Chem. Phys. 150, 041722 (2019)

     in publications or presentations arising from this work.

     ================================================================================
 
     Parameters
     ==========

     compensation onset threshold      =               0.1000E+00
     static permittivity               =                    89.90
     surface tension in input (dyn/cm) =                    37.30
     surface tension in internal units =               0.4792E-04

     Solvent Boundary
     ================

     solvent mode                      =                    ionic
     derivatives method                =                   lowmem
     electrolyte derivatives method    =                   lowmem
     numerical core for derivatives    =                      fft
     switching function adopted        =                     SCCS
     density limit for vacuum region   =               0.5000E-02
     density limit for bulk solvent    =               0.1000E-03
     soft-sphere radius mode           =                    bondi
     soft-sphere softness              =                     0.50
     alpha                             =                     1.32

     Electrostatic Setup
     ===================

     electrostatic problem to solve    =                    modpb
     numerical solver adopted          =                   newton
     type of auxiliary density adopted =                     none
     numerical core for poisson        =                      fft
     adopting a nested solver scheme
     inner solver                      =                       cg
     inner core                        =                      fft
     type of pbc corrections           =                parabolic
     numerical core for corrections    =                      1da

     ================================================================================
 

     >>>>> Grand-Canonical SCF is activated <<<<<
     Initial Total Charge  =     0.000000 e
     Target Fermi Energy   =    -4.404000 eV
     Thr. of Fermi Energy  =     0.001000 eV
     Wave-shift of Kerker  =     0.400000 bohr^-1
     Wave-shift of Hartree =     1.500000 bohr^-1
     Mixing Rate of Fermi  =     0.050000

     celldm(1)=  18.360747  celldm(2)=   1.060660  celldm(3)=   5.518976
     celldm(4)=  -0.235702  celldm(5)=   0.000000  celldm(6)=   0.000000

     crystal axes: (cart. coord. in units of alat)
               a(1) = (   1.000000   0.000000   0.000000 )  
               a(2) = (  -0.250000   1.030776   0.000000 )  
               a(3) = (   0.000000   0.000000   5.518976 )  

     reciprocal axes: (cart. coord. in units 2 pi/alat)
               b(1) = (  1.000000  0.242536  0.000000 )  
               b(2) = (  0.000000  0.970143  0.000000 )  
               b(3) = (  0.000000  0.000000  0.181193 )  


     PseudoPot. # 1 for Li read from file:
     /home/mmm1182/Repos/Pseudopotentials/pslibrary/Li.pbe-sl-kjpaw_psl.1.0.0.UPF
     MD5 check sum: f40bb4162937df3f7c561f1969c76545
     Pseudo is Projector augmented-wave, Zval =  3.0
     Generated using 'atomic' code by A. Dal Corso  v.7.3.1
     Shape of augmentation charge: PSQ
     Using radial grid of 1017 points,  4 beta functions with: 
                l(1) =   0
                l(2) =   0
                l(3) =   1
                l(4) =   1
     Q(r) pseudized with 0 coefficients 


     atomic species   valence    mass     pseudopotential
     Li                3.00     6.94000     Li( 1.00)

     No symmetry found


                                    s                        frac. trans.

      isym =  1     identity                                     

 cryst.   s( 1) = (     1          0          0      )
                  (     0          1          0      )
                  (     0          0          1      )

 cart.    s( 1) = (  1.0000000  0.0000000  0.0000000 )
                  (  0.0000000  1.0000000  0.0000000 )
                  (  0.0000000  0.0000000  1.0000000 )


     point group C_1 (1)    
     there are  1 classes
     the character table:

       E    
A      1.00

     the symmetry operations in each class and the name of the first element:

     E        1
          identity                                               

   Cartesian axes

     site n.     atom                  positions (alat units)
         1        Li     tau(   1) = (  -0.0001142   0.0774960   2.0112794  )
         2        Li     tau(   2) = (   0.0001827   0.5974003   3.4734171  )
         3        Li     tau(   3) = (   0.2501633   0.8027197   3.2688905  )
         4        Li     tau(   4) = (   0.2502478   0.2011898   3.2944862  )
         5        Li     tau(   5) = (   0.0001916   0.3668656   3.1771828  )
         6        Li     tau(   6) = (   0.2500515   0.5566172   2.9929444  )
         7        Li     tau(   7) = (   0.2499845   0.9076212   2.6526923  )
         8        Li     tau(   8) = (   0.0002039   0.9690241   3.1088236  )
         9        Li     tau(   9) = (   0.0000547   0.1237789   2.9087189  )
        10        Li     tau(  10) = (   0.2499499   0.3083519   2.7155646  )
        11        Li     tau(  11) = (  -0.0000917   0.4791902   2.5572250  )
        12        Li     tau(  12) = (   0.2498614   0.6647137   2.3670288  )
        13        Li     tau(  13) = (   0.0000406   0.7246636   2.8358101  )
        14        Li     tau(  14) = (   0.2498885   0.0487262   2.5066932  )
        15        Li     tau(  15) = (  -0.0002510   0.2344387   2.3107195  )
        16        Li     tau(  16) = (   0.2497872   0.3822641   2.0882831  )
        17        Li     tau(  17) = (  -0.0001933   0.8365824   2.2330041  )
        18        Li     tau(  18) = (   0.0002292   0.0686274   3.2083222  )
        19        Li     tau(  19) = (   0.0001450   0.6691863   3.1519840  )
        20        Li     tau(  20) = (   0.2500909   0.8548840   2.9615791  )
        21        Li     tau(  21) = (   0.2501110   0.2544903   3.0122778  )
        22        Li     tau(  22) = (   0.0000089   0.4264416   2.8660079  )
        23        Li     tau(  23) = (   0.2499610   0.6093796   2.6828114  )
        24        Li     tau(  24) = (   0.2498011   0.9670059   2.3418208  )
        25        Li     tau(  25) = (   0.0000472   1.0257892   2.8032336  )
        26        Li     tau(  26) = (  -0.0000645   0.1795762   2.6101205  )
        27        Li     tau(  27) = (   0.2497942   0.3649072   2.4101315  )
        28        Li     tau(  28) = (  -0.0001594   0.5311165   2.2502975  )
        29        Li     tau(  29) = (   0.2498614   0.7364388   2.0457780  )
        30        Li     tau(  30) = (  -0.0000504   0.7773748   2.5259114  )
        31        Li     tau(  31) = (   0.2497541   0.1018265   2.2246421  )
        32        Li     tau(  32) = (   0.0002529   0.2257523   3.5078419  )
        33        Li     tau(  33) = (   0.2501961   0.4971917   3.2861434  )
        34        Li     tau(  34) = (   0.0002037   0.9515874   3.4310076  )
        35        Li     tau(  35) = (   0.4996878   0.0774959   2.0112771  )
        36        Li     tau(  36) = (   0.5002232   0.5973901   3.4734375  )
        37        Li     tau(  37) = (   0.7501679   0.8027216   3.2688879  )
        38        Li     tau(  38) = (   0.7502473   0.2012051   3.2945278  )
        39        Li     tau(  39) = (   0.5001814   0.3668677   3.1771744  )
        40        Li     tau(  40) = (   0.7500457   0.5566162   2.9929182  )
        41        Li     tau(  41) = (   0.7500028   0.9076197   2.6526973  )
        42        Li     tau(  42) = (   0.5002047   0.9690308   3.1088107  )
        43        Li     tau(  43) = (   0.5000637   0.1237823   2.9087122  )
        44        Li     tau(  44) = (   0.7499525   0.3083550   2.7155677  )
        45        Li     tau(  45) = (   0.4999086   0.4791921   2.5572173  )
        46        Li     tau(  46) = (   0.7498468   0.6647062   2.3670130  )
        47        Li     tau(  47) = (   0.5000461   0.7246625   2.8358419  )
        48        Li     tau(  48) = (   0.7498849   0.0487376   2.5066149  )
        49        Li     tau(  49) = (   0.4997836   0.2344328   2.3107230  )
        50        Li     tau(  50) = (   0.7497939   0.3822956   2.0882589  )
        51        Li     tau(  51) = (   0.4998075   0.8365442   2.2331165  )
        52        Li     tau(  52) = (   0.5002381   0.0686270   3.2083139  )
        53        Li     tau(  53) = (   0.5001470   0.6691914   3.1520014  )
        54        Li     tau(  54) = (   0.7500938   0.8548829   2.9615837  )
        55        Li     tau(  55) = (   0.7501103   0.2544921   3.0122987  )
        56        Li     tau(  56) = (   0.5000034   0.4264427   2.8659990  )
        57        Li     tau(  57) = (   0.7499555   0.6093767   2.6827951  )
        58        Li     tau(  58) = (   0.7498244   0.9670078   2.3418216  )
        59        Li     tau(  59) = (   0.5000463   1.0257900   2.8031935  )
        60        Li     tau(  60) = (   0.4999413   0.1795814   2.6101200  )
        61        Li     tau(  61) = (   0.7497960   0.3649044   2.4101160  )
        62        Li     tau(  62) = (   0.4998266   0.5310979   2.2502865  )
        63        Li     tau(  63) = (   0.7497369   0.7364529   2.0457671  )
        64        Li     tau(  64) = (   0.4999543   0.7773802   2.5259795  )
        65        Li     tau(  65) = (   0.7497514   0.1017766   2.2245054  )
        66        Li     tau(  66) = (   0.5001842   0.2257460   3.5078346  )
        67        Li     tau(  67) = (   0.7501881   0.4972048   3.2861022  )
        68        Li     tau(  68) = (   0.5002129   0.9515678   3.4309974  )

   Crystallographic axes

     site n.     atom                  positions (cryst. coord.)
         1        Li     tau(   1) = (  0.0186813  0.0751822  0.3644298  )
         2        Li     tau(   2) = (  0.1450736  0.5795636  0.6293590  )
         3        Li     tau(   3) = (  0.4448515  0.7787528  0.5923002  )
         4        Li     tau(   4) = (  0.2990436  0.1951829  0.5969379  )
         5        Li     tau(   5) = (  0.0891696  0.3559120  0.5756834  )
         6        Li     tau(   6) = (  0.3850510  0.5399982  0.5423007  )
         7        Li     tau(   7) = (  0.4701151  0.8805223  0.4806494  )
         8        Li     tau(   8) = (  0.2352269  0.9400918  0.5632972  )
         9        Li     tau(   9) = (  0.0300755  0.1200832  0.5270396  )
        10        Li     tau(  10) = (  0.3247363  0.2991454  0.4920414  )
        11        Li     tau(  11) = (  0.1161290  0.4648829  0.4633514  )
        12        Li     tau(  12) = (  0.4110783  0.6448673  0.4288891  )
        13        Li     tau(  13) = (  0.1757974  0.7030272  0.5138290  )
        14        Li     tau(  14) = (  0.2617063  0.0472713  0.4541953  )
        15        Li     tau(  15) = (  0.0566088  0.2274390  0.4186863  )
        16        Li     tau(  16) = (  0.3424999  0.3708508  0.3783824  )
        17        Li     tau(  17) = (  0.2027078  0.8116045  0.4046048  )
        18        Li     tau(  18) = (  0.0168738  0.0665783  0.5813256  )
        19        Li     tau(  19) = (  0.1624466  0.6492063  0.5711175  )
        20        Li     tau(  20) = (  0.4574308  0.8293597  0.5366175  )
        21        Li     tau(  21) = (  0.3118340  0.2468919  0.5458037  )
        22        Li     tau(  22) = (  0.1034362  0.4137093  0.5193007  )
        23        Li     tau(  23) = (  0.3977573  0.5911853  0.4861067  )
        24        Li     tau(  24) = (  0.4843346  0.9381339  0.4243216  )
        25        Li     tau(  25) = (  0.2488377  0.9951621  0.5079264  )
        26        Li     tau(  26) = (  0.0434892  0.1742146  0.4729356  )
        27        Li     tau(  27) = (  0.3382972  0.3540121  0.4366990  )
        28        Li     tau(  28) = (  0.1286554  0.5152589  0.4077382  )
        29        Li     tau(  29) = (  0.4284741  0.7144509  0.3706807  )
        30        Li     tau(  30) = (  0.1884908  0.7541646  0.4576776  )
        31        Li     tau(  31) = (  0.2744507  0.0987862  0.4030897  )
        32        Li     tau(  32) = (  0.0550059  0.2190120  0.6355965  )
        33        Li     tau(  33) = (  0.3707828  0.4823470  0.5954263  )
        34        Li     tau(  34) = (  0.2309977  0.9231758  0.6216747  )
        35        Li     tau(  35) = (  0.5184833  0.0751821  0.3644294  )
        36        Li     tau(  36) = (  0.6451116  0.5795537  0.6293627  )
        37        Li     tau(  37) = (  0.9448565  0.7787547  0.5922997  )
        38        Li     tau(  38) = (  0.7990467  0.1951977  0.5969455  )
        39        Li     tau(  39) = (  0.5891599  0.3559141  0.5756819  )
        40        Li     tau(  40) = (  0.8850450  0.5399972  0.5422959  )
        41        Li     tau(  41) = (  0.9701330  0.8805208  0.4806503  )
        42        Li     tau(  42) = (  0.7352293  0.9400983  0.5632948  )
        43        Li     tau(  43) = (  0.5300854  0.1200866  0.5270384  )
        44        Li     tau(  44) = (  0.8247396  0.2991484  0.4920419  )
        45        Li     tau(  45) = (  0.6161298  0.4648848  0.4633500  )
        46        Li     tau(  46) = (  0.9110618  0.6448600  0.4288863  )
        47        Li     tau(  47) = (  0.6758027  0.7030262  0.5138348  )
        48        Li     tau(  48) = (  0.7617055  0.0472824  0.4541812  )
        49        Li     tau(  49) = (  0.5566420  0.2274333  0.4186869  )
        50        Li     tau(  50) = (  0.8425142  0.3708814  0.3783780  )
        51        Li     tau(  51) = (  0.7026993  0.8115674  0.4046252  )
        52        Li     tau(  52) = (  0.5168826  0.0665780  0.5813241  )
        53        Li     tau(  53) = (  0.6624498  0.6492112  0.5711207  )
        54        Li     tau(  54) = (  0.9574335  0.8293585  0.5366183  )
        55        Li     tau(  55) = (  0.8118337  0.2468937  0.5458075  )
        56        Li     tau(  56) = (  0.6034310  0.4137103  0.5192990  )
        57        Li     tau(  57) = (  0.8977511  0.5911825  0.4861038  )
        58        Li     tau(  58) = (  0.9843583  0.9381357  0.4243218  )
        59        Li     tau(  59) = (  0.7488370  0.9951628  0.5079191  )
        60        Li     tau(  60) = (  0.5434962  0.1742196  0.4729356  )
        61        Li     tau(  61) = (  0.8382984  0.3540094  0.4366962  )
        62        Li     tau(  62) = (  0.6286368  0.5152408  0.4077362  )
        63        Li     tau(  63) = (  0.9283531  0.7144646  0.3706788  )
        64        Li     tau(  64) = (  0.6884968  0.7541699  0.4576899  )
        65        Li     tau(  65) = (  0.7744358  0.0987378  0.4030649  )
        66        Li     tau(  66) = (  0.5549357  0.2190059  0.6355952  )
        67        Li     tau(  67) = (  0.8707781  0.4823597  0.5954188  )
        68        Li     tau(  68) = (  0.7310021  0.9231567  0.6216728  )

     number of k points=    25  Marzari-Vanderbilt smearing, width (Ry)=  0.0100
                       cart. coord. in units 2pi/alat
        k(    1) = (   0.0000000   0.0000000   0.0000000), wk =   0.0408163
        k(    2) = (   0.0000000   0.1385918   0.0000000), wk =   0.0816327
        k(    3) = (   0.0000000   0.2771837   0.0000000), wk =   0.0816327
        k(    4) = (   0.0000000   0.4157755   0.0000000), wk =   0.0816327
        k(    5) = (   0.1428571   0.0346480   0.0000000), wk =   0.0816327
        k(    6) = (   0.1428571   0.1732398   0.0000000), wk =   0.0816327
        k(    7) = (   0.1428571   0.3118316   0.0000000), wk =   0.0816327
        k(    8) = (   0.1428571   0.4504235   0.0000000), wk =   0.0816327
        k(    9) = (   0.1428571  -0.3811276   0.0000000), wk =   0.0816327
        k(   10) = (   0.1428571  -0.2425357   0.0000000), wk =   0.0816327
        k(   11) = (   0.1428571  -0.1039439   0.0000000), wk =   0.0816327
        k(   12) = (   0.2857143   0.0692959   0.0000000), wk =   0.0816327
        k(   13) = (   0.2857143   0.2078878   0.0000000), wk =   0.0816327
        k(   14) = (   0.2857143   0.3464796   0.0000000), wk =   0.0816327
        k(   15) = (   0.2857143   0.4850714   0.0000000), wk =   0.0816327
        k(   16) = (   0.2857143  -0.3464796   0.0000000), wk =   0.0816327
        k(   17) = (   0.2857143  -0.2078878   0.0000000), wk =   0.0816327
        k(   18) = (   0.2857143  -0.0692959   0.0000000), wk =   0.0816327
        k(   19) = (   0.4285714   0.1039439   0.0000000), wk =   0.0816327
        k(   20) = (   0.4285714   0.2425357   0.0000000), wk =   0.0816327
        k(   21) = (   0.4285714   0.3811276   0.0000000), wk =   0.0816327
        k(   22) = (   0.4285714   0.5197194   0.0000000), wk =   0.0816327
        k(   23) = (   0.4285714  -0.3118316   0.0000000), wk =   0.0816327
        k(   24) = (   0.4285714  -0.1732398   0.0000000), wk =   0.0816327
        k(   25) = (   0.4285714  -0.0346480   0.0000000), wk =   0.0816327

                       cryst. coord.
        k(    1) = (   0.0000000   0.0000000   0.0000000), wk =   0.0408163
        k(    2) = (   0.0000000   0.1428571   0.0000000), wk =   0.0816327
        k(    3) = (   0.0000000   0.2857143   0.0000000), wk =   0.0816327
        k(    4) = (   0.0000000   0.4285714   0.0000000), wk =   0.0816327
        k(    5) = (   0.1428571   0.0000000   0.0000000), wk =   0.0816327
        k(    6) = (   0.1428571   0.1428571   0.0000000), wk =   0.0816327
        k(    7) = (   0.1428571   0.2857143   0.0000000), wk =   0.0816327
        k(    8) = (   0.1428571   0.4285714   0.0000000), wk =   0.0816327
        k(    9) = (   0.1428571  -0.4285714   0.0000000), wk =   0.0816327
        k(   10) = (   0.1428571  -0.2857143   0.0000000), wk =   0.0816327
        k(   11) = (   0.1428571  -0.1428571   0.0000000), wk =   0.0816327
        k(   12) = (   0.2857143   0.0000000   0.0000000), wk =   0.0816327
        k(   13) = (   0.2857143   0.1428571   0.0000000), wk =   0.0816327
        k(   14) = (   0.2857143   0.2857143   0.0000000), wk =   0.0816327
        k(   15) = (   0.2857143   0.4285714   0.0000000), wk =   0.0816327
        k(   16) = (   0.2857143  -0.4285714   0.0000000), wk =   0.0816327
        k(   17) = (   0.2857143  -0.2857143   0.0000000), wk =   0.0816327
        k(   18) = (   0.2857143  -0.1428571   0.0000000), wk =   0.0816327
        k(   19) = (   0.4285714   0.0000000   0.0000000), wk =   0.0816327
        k(   20) = (   0.4285714   0.1428571   0.0000000), wk =   0.0816327
        k(   21) = (   0.4285714   0.2857143   0.0000000), wk =   0.0816327
        k(   22) = (   0.4285714   0.4285714   0.0000000), wk =   0.0816327
        k(   23) = (   0.4285714  -0.4285714   0.0000000), wk =   0.0816327
        k(   24) = (   0.4285714  -0.2857143   0.0000000), wk =   0.0816327
        k(   25) = (   0.4285714  -0.1428571   0.0000000), wk =   0.0816327

     Dense  grid: 13455463 G-vectors     FFT dimensions: ( 180, 180, 960)

     Smooth grid:  3404289 G-vectors     FFT dimensions: ( 108, 120, 600)

     Dynamical RAM for                 wfc:       4.51 MB

     Dynamical RAM for     wfc (w. buffer):      63.18 MB

     Dynamical RAM for           str. fact:       0.93 MB

     Dynamical RAM for           local pot:       0.00 MB

     Dynamical RAM for          nlocal pot:      16.05 MB

     Dynamical RAM for                qrad:       0.65 MB

     Dynamical RAM for          rho,v,vnew:       6.51 MB

     Dynamical RAM for               rhoin:       2.17 MB

     Dynamical RAM for            rho*nmix:      14.93 MB

     Dynamical RAM for           G-vectors:       3.62 MB

     Dynamical RAM for          h,s,v(r/c):       4.29 MB

     Dynamical RAM for          <psi|beta>:       1.27 MB

     Dynamical RAM for                 psi:      18.05 MB

     Dynamical RAM for                hpsi:      18.05 MB

     Dynamical RAM for                spsi:      18.05 MB

     Dynamical RAM for      wfcinit/wfcrot:       9.56 MB

     Dynamical RAM for           addusdens:      52.24 MB

     Dynamical RAM for          addusforce:     114.81 MB

     Estimated static dynamical RAM per process >     101.14 MB

     Estimated max dynamical RAM per process >     230.88 MB

     Estimated total dynamical RAM >      96.00 GB

     Initial potential from superposition of free atoms

     starting charge     203.6866, renormalised to     204.0000

     negative rho (up, down):  5.611E-03 0.000E+00
     Starting wfcs are random
     Checking if some PAW data can be deallocated... 

     total cpu time spent up to now is       30.4 secs

     per-process dynamical memory:   237.6 Mb

     Self-consistent Calculation

     iteration #  1     ecut=    80.00 Ry     beta= 0.20
     Davidson diagonalization with overlap

---- Real-time Memory Report at c_bands before calling an iterative solver
          1480 MiB given to the printing process from OS
           231 MiB allocation reported by mallinfo(arena+hblkhd)
        166844 MiB available memory on the node where the printing process lives
------------------
     c_bands:  1 eigenvalues not converged
     c_bands:  1 eigenvalues not converged
     c_bands:  1 eigenvalues not converged
     c_bands:  1 eigenvalues not converged
     ethr =  1.00E-12,  avg # of iterations =135.0

     negative rho (up, down):  4.144E-03 0.000E+00

     total cpu time spent up to now is      509.0 secs

     total energy              =   -1022.21024742 Ry
     estimated scf accuracy    <       0.19677020 Ry

     total charge of GC-SCF    =       0.17322411 e
     the Fermi energy          =      -4.28826985 eV
                        (error :       0.11573015 eV)
     electrostatic embedding   =       0.00000000 Ry
     cavitation energy         =       0.04608969 Ry
     electrolyte free energy   =       0.01515579 Ry
     correction to one-el term =       0.00000000 Ry

     iteration #  2     ecut=    80.00 Ry     beta= 0.20
     Davidson diagonalization with overlap

---- Real-time Memory Report at c_bands before calling an iterative solver
          1480 MiB given to the printing process from OS
           320 MiB allocation reported by mallinfo(arena+hblkhd)
        163648 MiB available memory on the node where the printing process lives
------------------
     ethr =  1.00E-05,  avg # of iterations = 13.3

     negative rho (up, down):  3.232E-03 0.000E+00

     add environment contribution to local potential

     total cpu time spent up to now is      580.0 secs

     total energy              =   -1022.67857630 Ry
     estimated scf accuracy    <       0.09450478 Ry

     total charge of GC-SCF    =       0.27271355 e
     the Fermi energy          =      -3.49040066 eV
                        (error :       0.91359934 eV)
     electrostatic embedding   =       0.00157639 Ry
     cavitation energy         =       0.04608969 Ry
     electrolyte free energy   =       0.01515579 Ry
     correction to one-el term =       0.00000000 Ry

     iteration #  3     ecut=    80.00 Ry     beta= 0.20
     Davidson diagonalization with overlap

---- Real-time Memory Report at c_bands before calling an iterative solver
          1480 MiB given to the printing process from OS
           320 MiB allocation reported by mallinfo(arena+hblkhd)
        163565 MiB available memory on the node where the printing process lives
------------------
     ethr =  1.00E-05,  avg # of iterations = 33.2

     negative rho (up, down):  2.542E-03 0.000E+00

     add environment contribution to local potential

     total cpu time spent up to now is      693.7 secs

     total energy              =   -1022.57311526 Ry
     estimated scf accuracy    <       0.04956563 Ry

     total charge of GC-SCF    =       0.50736180 e
     the Fermi energy          =      -3.10572149 eV
                        (error :       1.29827851 eV)
     electrostatic embedding   =      -0.04279284 Ry
     cavitation energy         =       0.04608969 Ry
     electrolyte free energy   =      -0.00840725 Ry
     correction to one-el term =      -7.82746343 Ry

     iteration #  4     ecut=    80.00 Ry     beta= 0.20
     Davidson diagonalization with overlap

---- Real-time Memory Report at c_bands before calling an iterative solver
          1480 MiB given to the printing process from OS
           322 MiB allocation reported by mallinfo(arena+hblkhd)
        163448 MiB available memory on the node where the printing process lives
------------------
     ethr =  1.00E-05,  avg # of iterations = 19.0

     negative rho (up, down):  2.022E-03 0.000E+00

     add environment contribution to local potential

     total cpu time spent up to now is      776.0 secs

     total energy              =   -1022.58802189 Ry
     estimated scf accuracy    <       0.04482781 Ry

     total charge of GC-SCF    =       0.73888178 e
     the Fermi energy          =      -3.60144823 eV
                        (error :       0.80255177 eV)
     electrostatic embedding   =      -0.04206169 Ry
     cavitation energy         =       0.04608969 Ry
     electrolyte free energy   =      -0.01142482 Ry
     correction to one-el term =     -12.19526317 Ry

     iteration #  5     ecut=    80.00 Ry     beta= 0.20
     Davidson diagonalization with overlap

---- Real-time Memory Report at c_bands before calling an iterative solver
          1480 MiB given to the printing process from OS
           322 MiB allocation reported by mallinfo(arena+hblkhd)
        163445 MiB available memory on the node where the printing process lives
------------------
     ethr =  1.00E-05,  avg # of iterations = 20.9

     negative rho (up, down):  1.603E-03 0.000E+00

     add environment contribution to local potential

     total cpu time spent up to now is      865.3 secs

     total energy              =   -1022.37680775 Ry
     estimated scf accuracy    <       0.02120532 Ry

     total charge of GC-SCF    =       1.80102772 e
     the Fermi energy          =      -3.30542577 eV
                        (error :       1.09857423 eV)
     electrostatic embedding   =      -0.05717925 Ry
     cavitation energy         =       0.04608969 Ry
     electrolyte free energy   =      -0.00951786 Ry
     correction to one-el term =     -19.14713115 Ry

     iteration #  6     ecut=    80.00 Ry     beta= 0.20
     Davidson diagonalization with overlap

---- Real-time Memory Report at c_bands before calling an iterative solver
          1480 MiB given to the printing process from OS
           323 MiB allocation reported by mallinfo(arena+hblkhd)
        163440 MiB available memory on the node where the printing process lives
------------------
     ethr =  1.00E-05,  avg # of iterations = 23.6

     negative rho (up, down):  1.378E-03 0.000E+00

     add environment contribution to local potential

     total cpu time spent up to now is      968.2 secs

     total energy              =   -1022.82415692 Ry
     estimated scf accuracy    <       0.01106965 Ry

     total charge of GC-SCF    =       2.27662593 e
     the Fermi energy          =      -2.81887903 eV
                        (error :       1.58512097 eV)
     electrostatic embedding   =      -0.27088908 Ry
     cavitation energy         =       0.04608969 Ry
     electrolyte free energy   =      -0.00685397 Ry
     correction to one-el term =     -47.58808973 Ry

     iteration #  7     ecut=    80.00 Ry     beta= 0.20
     Davidson diagonalization with overlap

---- Real-time Memory Report at c_bands before calling an iterative solver
          1480 MiB given to the printing process from OS
           324 MiB allocation reported by mallinfo(arena+hblkhd)
        163430 MiB available memory on the node where the printing process lives
------------------
     ethr =  5.49E-06,  avg # of iterations = 16.0

     negative rho (up, down):  1.260E-02 0.000E+00

     add environment contribution to local potential

     total cpu time spent up to now is     1044.4 secs

     total energy              =   -1022.69880751 Ry
     estimated scf accuracy    <       0.00488405 Ry

     total charge of GC-SCF    =       3.02408462 e
     the Fermi energy          =      -2.97819189 eV
                        (error :       1.42580811 eV)
     electrostatic embedding   =      -0.41667220 Ry
     cavitation energy         =       0.04608969 Ry
     electrolyte free energy   =      -0.00963599 Ry
     correction to one-el term =     -62.12729336 Ry

     iteration #  8     ecut=    80.00 Ry     beta= 0.20
     Davidson diagonalization with overlap

---- Real-time Memory Report at c_bands before calling an iterative solver
          1480 MiB given to the printing process from OS
           324 MiB allocation reported by mallinfo(arena+hblkhd)
        163423 MiB available memory on the node where the printing process lives
------------------
     ethr =  2.43E-06,  avg # of iterations = 30.9

     negative rho (up, down):  1.375E-02 0.000E+00

     add environment contribution to local potential

     total cpu time spent up to now is     1150.0 secs

     total energy              =   -1022.97922530 Ry
     estimated scf accuracy    <       0.02681952 Ry

     total charge of GC-SCF    =       3.02369848 e
     the Fermi energy          =      -3.62793094 eV
                        (error :       0.77606906 eV)
     electrostatic embedding   =      -0.69968791 Ry
     cavitation energy         =       0.04608969 Ry
     electrolyte free energy   =      -0.01845688 Ry
     correction to one-el term =     -82.85435454 Ry

     iteration #  9     ecut=    80.00 Ry     beta= 0.20
     Davidson diagonalization with overlap

---- Real-time Memory Report at c_bands before calling an iterative solver
          1480 MiB given to the printing process from OS
           324 MiB allocation reported by mallinfo(arena+hblkhd)
        163418 MiB available memory on the node where the printing process lives
------------------
     ethr =  2.43E-06,  avg # of iterations = 13.5

     negative rho (up, down):  6.861E-03 0.000E+00

     add environment contribution to local potential

     total cpu time spent up to now is     1210.6 secs

     total energy              =   -1023.07035579 Ry
     estimated scf accuracy    <       0.03505960 Ry

     total charge of GC-SCF    =       2.76762940 e
     the Fermi energy          =      -3.69187136 eV
                        (error :       0.71212864 eV)
     electrostatic embedding   =      -0.69573461 Ry
     cavitation energy         =       0.04608969 Ry
     electrolyte free energy   =      -0.01857274 Ry
     correction to one-el term =     -82.57632285 Ry

     iteration # 10     ecut=    80.00 Ry     beta= 0.20
     Davidson diagonalization with overlap

---- Real-time Memory Report at c_bands before calling an iterative solver
          1480 MiB given to the printing process from OS
           324 MiB allocation reported by mallinfo(arena+hblkhd)
        163399 MiB available memory on the node where the printing process lives
------------------
     ethr =  2.43E-06,  avg # of iterations = 12.5

     negative rho (up, down):  6.704E-03 0.000E+00

     add environment contribution to local potential

     total cpu time spent up to now is     1272.1 secs

     total energy              =   -1022.57563229 Ry
     estimated scf accuracy    <       0.04015080 Ry

     total charge of GC-SCF    =       3.57316440 e
     the Fermi energy          =      -3.64954170 eV
                        (error :       0.75445830 eV)
     electrostatic embedding   =      -0.57849034 Ry
     cavitation energy         =       0.04608969 Ry
     electrolyte free energy   =      -0.01656999 Ry
     correction to one-el term =     -74.76301843 Ry

     iteration # 11     ecut=    80.00 Ry     beta= 0.20
     Davidson diagonalization with overlap

---- Real-time Memory Report at c_bands before calling an iterative solver
          1480 MiB given to the printing process from OS
           324 MiB allocation reported by mallinfo(arena+hblkhd)
        163410 MiB available memory on the node where the printing process lives
------------------
     ethr =  2.43E-06,  avg # of iterations = 37.6

     negative rho (up, down):  2.672E-03 0.000E+00

     add environment contribution to local potential

     total cpu time spent up to now is     1388.0 secs

     total energy              =   -1022.95254358 Ry
     estimated scf accuracy    <       0.00381855 Ry

     total charge of GC-SCF    =       3.64575608 e
     the Fermi energy          =      -3.34777949 eV
                        (error :       1.05622051 eV)
     electrostatic embedding   =      -1.02589821 Ry
     cavitation energy         =       0.04608969 Ry
     electrolyte free energy   =      -0.02228294 Ry
     correction to one-el term =    -102.44920146 Ry

     iteration # 12     ecut=    80.00 Ry     beta= 0.20
     Davidson diagonalization with overlap

---- Real-time Memory Report at c_bands before calling an iterative solver
          1480 MiB given to the printing process from OS
           324 MiB allocation reported by mallinfo(arena+hblkhd)
        163396 MiB available memory on the node where the printing process lives
------------------
     ethr =  1.91E-06,  avg # of iterations = 18.3

     negative rho (up, down):  1.795E-02 0.000E+00

     add environment contribution to local potential

     total cpu time spent up to now is     1480.7 secs

     total energy              =   -1022.79012935 Ry
     estimated scf accuracy    <       0.00226208 Ry

     total charge of GC-SCF    =       4.89476477 e
     the Fermi energy          =      -3.58166156 eV
                        (error :       0.82233844 eV)
     electrostatic embedding   =      -1.05818193 Ry
     cavitation energy         =       0.04608969 Ry
     electrolyte free energy   =      -0.02524060 Ry
     correction to one-el term =    -104.82525731 Ry

     iteration # 13     ecut=    80.00 Ry     beta= 0.20
     Davidson diagonalization with overlap

---- Real-time Memory Report at c_bands before calling an iterative solver
          1480 MiB given to the printing process from OS
           324 MiB allocation reported by mallinfo(arena+hblkhd)
        163392 MiB available memory on the node where the printing process lives
------------------
     ethr =  1.14E-06,  avg # of iterations = 35.5

     negative rho (up, down):  2.316E-02 0.000E+00

     add environment contribution to local potential

     total cpu time spent up to now is     1597.8 secs

     total energy              =   -1022.92804846 Ry
     estimated scf accuracy    <       0.00120040 Ry

     total charge of GC-SCF    =       5.37445657 e
     the Fermi energy          =      -4.13166852 eV
                        (error :       0.27233148 eV)
     electrostatic embedding   =      -1.98979380 Ry
     cavitation energy         =       0.04608969 Ry
     electrolyte free energy   =      -0.04426076 Ry
     correction to one-el term =    -146.22495811 Ry

     iteration # 14     ecut=    80.00 Ry     beta= 0.20
     Davidson diagonalization with overlap

---- Real-time Memory Report at c_bands before calling an iterative solver
          1480 MiB given to the printing process from OS
           324 MiB allocation reported by mallinfo(arena+hblkhd)
        163379 MiB available memory on the node where the printing process lives
------------------
     ethr =  6.04E-07,  avg # of iterations = 12.4

     negative rho (up, down):  3.327E-03 0.000E+00

     add environment contribution to local potential

     total cpu time spent up to now is     1681.8 secs

     total energy              =   -1022.94663511 Ry
     estimated scf accuracy    <       0.00034624 Ry

     total charge of GC-SCF    =       5.45425200 e
     the Fermi energy          =      -4.25886144 eV
                        (error :       0.14513856 eV)
     electrostatic embedding   =      -2.43679599 Ry
     cavitation energy         =       0.04608969 Ry
     electrolyte free energy   =      -0.05266537 Ry
     correction to one-el term =    -161.80928464 Ry

     iteration # 15     ecut=    80.00 Ry     beta= 0.20
     Davidson diagonalization with overlap

---- Real-time Memory Report at c_bands before calling an iterative solver
          1480 MiB given to the printing process from OS
           326 MiB allocation reported by mallinfo(arena+hblkhd)
        163375 MiB available memory on the node where the printing process lives
------------------
     ethr =  1.74E-07,  avg # of iterations = 15.6

     negative rho (up, down):  1.014E-03 0.000E+00

     add environment contribution to local potential

     total cpu time spent up to now is     1766.7 secs

     total energy              =   -1022.94821453 Ry
     estimated scf accuracy    <       0.00037662 Ry

     total charge of GC-SCF    =       5.51386158 e
     the Fermi energy          =      -4.38628257 eV
                        (error :       0.01771743 eV)
     electrostatic embedding   =      -2.52923705 Ry
     cavitation energy         =       0.04608969 Ry
     electrolyte free energy   =      -0.05444647 Ry
     correction to one-el term =    -165.54259902 Ry

     iteration # 16     ecut=    80.00 Ry     beta= 0.20
     Davidson diagonalization with overlap

---- Real-time Memory Report at c_bands before calling an iterative solver
          1480 MiB given to the printing process from OS
           327 MiB allocation reported by mallinfo(arena+hblkhd)
        163372 MiB available memory on the node where the printing process lives
------------------
     ethr =  1.74E-07,  avg # of iterations = 10.3

     negative rho (up, down):  7.774E-04 0.000E+00

     add environment contribution to local potential

     total cpu time spent up to now is     1834.1 secs

     total energy              =   -1022.94892165 Ry
     estimated scf accuracy    <       0.00009404 Ry

     total charge of GC-SCF    =       5.59272002 e
     the Fermi energy          =      -4.38569083 eV
                        (error :       0.01830917 eV)
     electrostatic embedding   =      -2.59173205 Ry
     cavitation energy         =       0.04608969 Ry
     electrolyte free energy   =      -0.05558741 Ry
     correction to one-el term =    -167.47835930 Ry

     iteration # 17     ecut=    80.00 Ry     beta= 0.20
     Davidson diagonalization with overlap

---- Real-time Memory Report at c_bands before calling an iterative solver
          1480 MiB given to the printing process from OS
           327 MiB allocation reported by mallinfo(arena+hblkhd)
        163367 MiB available memory on the node where the printing process lives
------------------
     ethr =  4.74E-08,  avg # of iterations = 12.4

     negative rho (up, down):  7.091E-04 0.000E+00

     add environment contribution to local potential

     total cpu time spent up to now is     1914.2 secs

     total energy              =   -1022.94881067 Ry
     estimated scf accuracy    <       0.00005045 Ry

     total charge of GC-SCF    =       5.53968580 e
     the Fermi energy          =      -4.40110146 eV
                        (error :       0.00289854 eV)
     electrostatic embedding   =      -2.67424134 Ry
     cavitation energy         =       0.04608969 Ry
     electrolyte free energy   =      -0.05714389 Ry
     correction to one-el term =    -170.07759258 Ry

     iteration # 18     ecut=    80.00 Ry     beta= 0.20
     Davidson diagonalization with overlap

---- Real-time Memory Report at c_bands before calling an iterative solver
          1480 MiB given to the printing process from OS
           327 MiB allocation reported by mallinfo(arena+hblkhd)
        163363 MiB available memory on the node where the printing process lives
------------------
     ethr =  2.54E-08,  avg # of iterations = 12.8

     negative rho (up, down):  6.760E-04 0.000E+00

     add environment contribution to local potential

     total cpu time spent up to now is     1998.2 secs

     total energy              =   -1022.94874877 Ry
     estimated scf accuracy    <       0.00002685 Ry

     total charge of GC-SCF    =       5.54772868 e
     the Fermi energy          =      -4.39031984 eV
                        (error :       0.01368016 eV)
     electrostatic embedding   =      -2.62059866 Ry
     cavitation energy         =       0.04608969 Ry
     electrolyte free energy   =      -0.05612515 Ry
     correction to one-el term =    -168.47712151 Ry

     iteration # 19     ecut=    80.00 Ry     beta= 0.20
     Davidson diagonalization with overlap

---- Real-time Memory Report at c_bands before calling an iterative solver
          1480 MiB given to the printing process from OS
           327 MiB allocation reported by mallinfo(arena+hblkhd)
        163354 MiB available memory on the node where the printing process lives
------------------
     ethr =  1.35E-08,  avg # of iterations = 10.5

     negative rho (up, down):  1.840E-03 0.000E+00

     add environment contribution to local potential

     total cpu time spent up to now is     2060.0 secs

     total energy              =   -1022.94866875 Ry
     estimated scf accuracy    <       0.00002155 Ry

     total charge of GC-SCF    =       5.58659136 e
     the Fermi energy          =      -4.39881095 eV
                        (error :       0.00518905 eV)
     electrostatic embedding   =      -2.62805906 Ry
     cavitation energy         =       0.04608969 Ry
     electrolyte free energy   =      -0.05628753 Ry
     correction to one-el term =    -168.73104367 Ry

     iteration # 20     ecut=    80.00 Ry     beta= 0.20
     Davidson diagonalization with overlap

---- Real-time Memory Report at c_bands before calling an iterative solver
          1480 MiB given to the printing process from OS
           327 MiB allocation reported by mallinfo(arena+hblkhd)
        163353 MiB available memory on the node where the printing process lives
------------------
     ethr =  1.09E-08,  avg # of iterations = 23.3

     negative rho (up, down):  1.075E-03 0.000E+00

     add environment contribution to local potential

     total cpu time spent up to now is     2155.2 secs

     total energy              =   -1022.94836028 Ry
     estimated scf accuracy    <       0.00000820 Ry

     total charge of GC-SCF    =       5.55687832 e
     the Fermi energy          =      -4.41841196 eV
                        (error :       0.01441196 eV)
     electrostatic embedding   =      -2.65883151 Ry
     cavitation energy         =       0.04608969 Ry
     electrolyte free energy   =      -0.05699038 Ry
     correction to one-el term =    -169.53163577 Ry

     iteration # 21     ecut=    80.00 Ry     beta= 0.20
     Davidson diagonalization with overlap

---- Real-time Memory Report at c_bands before calling an iterative solver
          1480 MiB given to the printing process from OS
           327 MiB allocation reported by mallinfo(arena+hblkhd)
        163350 MiB available memory on the node where the printing process lives
------------------
     ethr =  4.13E-09,  avg # of iterations = 13.4

     negative rho (up, down):  9.134E-04 0.000E+00

     add environment contribution to local potential

     total cpu time spent up to now is     2238.2 secs

     total energy              =   -1022.94865463 Ry
     estimated scf accuracy    <       0.00000594 Ry

     total charge of GC-SCF    =       5.53749630 e
     the Fermi energy          =      -4.40553999 eV
                        (error :       0.00153999 eV)
     electrostatic embedding   =      -2.63055409 Ry
     cavitation energy         =       0.04608969 Ry
     electrolyte free energy   =      -0.05641484 Ry
     correction to one-el term =    -168.66976010 Ry

     iteration # 22     ecut=    80.00 Ry     beta= 0.20
     Davidson diagonalization with overlap

---- Real-time Memory Report at c_bands before calling an iterative solver
          1480 MiB given to the printing process from OS
           327 MiB allocation reported by mallinfo(arena+hblkhd)
        163329 MiB available memory on the node where the printing process lives
------------------
     ethr =  2.99E-09,  avg # of iterations = 13.7

     negative rho (up, down):  9.432E-04 0.000E+00

     add environment contribution to local potential

     total cpu time spent up to now is     2322.1 secs

     total energy              =   -1022.94878439 Ry
     estimated scf accuracy    <       0.00000346 Ry

     total charge of GC-SCF    =       5.54670775 e
     the Fermi energy          =      -4.39536939 eV
                        (error :       0.00863061 eV)
     electrostatic embedding   =      -2.61241515 Ry
     cavitation energy         =       0.04608969 Ry
     electrolyte free energy   =      -0.05604133 Ry
     correction to one-el term =    -168.11107731 Ry

     iteration # 23     ecut=    80.00 Ry     beta= 0.20
     Davidson diagonalization with overlap

---- Real-time Memory Report at c_bands before calling an iterative solver
          1480 MiB given to the printing process from OS
           327 MiB allocation reported by mallinfo(arena+hblkhd)
        163327 MiB available memory on the node where the printing process lives
------------------
     ethr =  1.74E-09,  avg # of iterations =  9.9

     negative rho (up, down):  8.837E-04 0.000E+00

     add environment contribution to local potential

     total cpu time spent up to now is     2391.5 secs

     total energy              =   -1022.94872571 Ry
     estimated scf accuracy    <       0.00000114 Ry

     total charge of GC-SCF    =       5.55469881 e
     the Fermi energy          =      -4.39902256 eV
                        (error :       0.00497744 eV)
     electrostatic embedding   =      -2.62204303 Ry
     cavitation energy         =       0.04608969 Ry
     electrolyte free energy   =      -0.05622290 Ry
     correction to one-el term =    -168.42038005 Ry

     iteration # 24     ecut=    80.00 Ry     beta= 0.20
     Davidson diagonalization with overlap

---- Real-time Memory Report at c_bands before calling an iterative solver
          1480 MiB given to the printing process from OS
           327 MiB allocation reported by mallinfo(arena+hblkhd)
        163327 MiB available memory on the node where the printing process lives
------------------
     ethr =  5.74E-10,  avg # of iterations = 11.9

     negative rho (up, down):  8.149E-04 0.000E+00

     add environment contribution to local potential

     total cpu time spent up to now is     2480.9 secs

     total energy              =   -1022.94866506 Ry
     estimated scf accuracy    <       0.00000068 Ry

     total charge of GC-SCF    =       5.56318283 e
     the Fermi energy          =      -4.40265376 eV
                        (error :       0.00134624 eV)
     electrostatic embedding   =      -2.63015373 Ry
     cavitation energy         =       0.04608969 Ry
     electrolyte free energy   =      -0.05638015 Ry
     correction to one-el term =    -168.67615398 Ry

     iteration # 25     ecut=    80.00 Ry     beta= 0.20
     Davidson diagonalization with overlap

---- Real-time Memory Report at c_bands before calling an iterative solver
          1480 MiB given to the printing process from OS
           327 MiB allocation reported by mallinfo(arena+hblkhd)
        163323 MiB available memory on the node where the printing process lives
------------------
     ethr =  3.45E-10,  avg # of iterations = 12.2

     negative rho (up, down):  7.300E-04 0.000E+00

     add environment contribution to local potential

     total cpu time spent up to now is     2583.9 secs

     total energy              =   -1022.94859183 Ry
     estimated scf accuracy    <       0.00000044 Ry

     total charge of GC-SCF    =       5.56066760 e
     the Fermi energy          =      -4.40598321 eV
                        (error :       0.00198321 eV)
     electrostatic embedding   =      -2.63882912 Ry
     cavitation energy         =       0.04608969 Ry
     electrolyte free energy   =      -0.05654787 Ry
     correction to one-el term =    -168.94962763 Ry

     iteration # 26     ecut=    80.00 Ry     beta= 0.20
     Davidson diagonalization with overlap

---- Real-time Memory Report at c_bands before calling an iterative solver
          1480 MiB given to the printing process from OS
           327 MiB allocation reported by mallinfo(arena+hblkhd)
        163322 MiB available memory on the node where the printing process lives
------------------
     ethr =  2.23E-10,  avg # of iterations = 14.0

     negative rho (up, down):  7.318E-04 0.000E+00

     add environment contribution to local potential

     total cpu time spent up to now is     2686.7 secs

     total energy              =   -1022.94859626 Ry
     estimated scf accuracy    <       0.00000027 Ry

     total charge of GC-SCF    =       5.55944608 e
     the Fermi energy          =      -4.40549827 eV
                        (error :       0.00149827 eV)
     electrostatic embedding   =      -2.63690594 Ry
     cavitation energy         =       0.04608969 Ry
     electrolyte free energy   =      -0.05650386 Ry
     correction to one-el term =    -168.90144515 Ry

     iteration # 27     ecut=    80.00 Ry     beta= 0.20
     Davidson diagonalization with overlap

---- Real-time Memory Report at c_bands before calling an iterative solver
          1480 MiB given to the printing process from OS
           327 MiB allocation reported by mallinfo(arena+hblkhd)
        163316 MiB available memory on the node where the printing process lives
------------------
     ethr =  1.36E-10,  avg # of iterations =  9.0

     negative rho (up, down):  7.222E-04 0.000E+00

     add environment contribution to local potential

     total cpu time spent up to now is     2752.1 secs

     total energy              =   -1022.94861018 Ry
     estimated scf accuracy    <       0.00000015 Ry

     total charge of GC-SCF    =       5.56075403 e
     the Fermi energy          =      -4.40491194 eV
                        (error :       0.00091194 eV)
     electrostatic embedding   =      -2.63557682 Ry
     cavitation energy         =       0.04608969 Ry
     electrolyte free energy   =      -0.05647888 Ry
     correction to one-el term =    -168.85711787 Ry

     iteration # 28     ecut=    80.00 Ry     beta= 0.20
     Davidson diagonalization with overlap

---- Real-time Memory Report at c_bands before calling an iterative solver
          1480 MiB given to the printing process from OS
           327 MiB allocation reported by mallinfo(arena+hblkhd)
        163313 MiB available memory on the node where the printing process lives
------------------
     ethr =  7.57E-11,  avg # of iterations = 11.4

     negative rho (up, down):  7.482E-04 0.000E+00

     add environment contribution to local potential

     total cpu time spent up to now is     2841.9 secs

     total energy              =   -1022.94860100 Ry
     estimated scf accuracy    <       0.00000007 Ry

     total charge of GC-SCF    =       5.55931012 e
     the Fermi energy          =      -4.40516049 eV
                        (error :       0.00116049 eV)
     electrostatic embedding   =      -2.63685269 Ry
     cavitation energy         =       0.04608969 Ry
     electrolyte free energy   =      -0.05650436 Ry
     correction to one-el term =    -168.89654731 Ry

     iteration # 29     ecut=    80.00 Ry     beta= 0.20
     Davidson diagonalization with overlap

---- Real-time Memory Report at c_bands before calling an iterative solver
          1480 MiB given to the printing process from OS
           327 MiB allocation reported by mallinfo(arena+hblkhd)
        163308 MiB available memory on the node where the printing process lives
------------------
     ethr =  3.37E-11,  avg # of iterations = 13.5

     negative rho (up, down):  7.609E-04 0.000E+00

     add environment contribution to local potential

     total cpu time spent up to now is     2948.0 secs

     total energy              =   -1022.94862040 Ry
     estimated scf accuracy    <       0.00000004 Ry

     total charge of GC-SCF    =       5.55872731 e
     the Fermi energy          =      -4.40423334 eV
                        (error :       0.00023334 eV)
     electrostatic embedding   =      -2.63514738 Ry
     cavitation energy         =       0.04608969 Ry
     electrolyte free energy   =      -0.05647369 Ry
     correction to one-el term =    -168.83791945 Ry

     iteration # 30     ecut=    80.00 Ry     beta= 0.20
     Davidson diagonalization with overlap

---- Real-time Memory Report at c_bands before calling an iterative solver
          1480 MiB given to the printing process from OS
           327 MiB allocation reported by mallinfo(arena+hblkhd)
        163299 MiB available memory on the node where the printing process lives
------------------
     ethr =  1.81E-11,  avg # of iterations = 12.6

     negative rho (up, down):  8.010E-04 0.000E+00

     add environment contribution to local potential

     total cpu time spent up to now is     3026.1 secs

     total energy              =   -1022.94862682 Ry
     estimated scf accuracy    <       0.00000003 Ry

     total charge of GC-SCF    =       5.55943354 e
     the Fermi energy          =      -4.40392384 eV
                        (error :       0.00007616 eV)
     electrostatic embedding   =      -2.63449969 Ry
     cavitation energy         =       0.04608969 Ry
     electrolyte free energy   =      -0.05646169 Ry
     correction to one-el term =    -168.81658734 Ry

     iteration # 31     ecut=    80.00 Ry     beta= 0.20
     Davidson diagonalization with overlap

---- Real-time Memory Report at c_bands before calling an iterative solver
          1480 MiB given to the printing process from OS
           327 MiB allocation reported by mallinfo(arena+hblkhd)
        163291 MiB available memory on the node where the printing process lives
------------------
     ethr =  1.38E-11,  avg # of iterations = 20.7

     negative rho (up, down):  8.031E-04 0.000E+00

     add environment contribution to local potential

     total cpu time spent up to now is     3144.6 secs

     total energy              =   -1022.94862323 Ry
     estimated scf accuracy    <       0.00000001 Ry

     total charge of GC-SCF    =       5.56011776 e
     the Fermi energy          =      -4.40419048 eV
                        (error :       0.00019048 eV)
     electrostatic embedding   =      -2.63504089 Ry
     cavitation energy         =       0.04608969 Ry
     electrolyte free energy   =      -0.05647434 Ry
     correction to one-el term =    -168.83167367 Ry

     iteration # 32     ecut=    80.00 Ry     beta= 0.20
     Davidson diagonalization with overlap

---- Real-time Memory Report at c_bands before calling an iterative solver
          1480 MiB given to the printing process from OS
           327 MiB allocation reported by mallinfo(arena+hblkhd)
        163286 MiB available memory on the node where the printing process lives
------------------
     ethr =  5.99E-12,  avg # of iterations = 13.3

     negative rho (up, down):  7.770E-04 0.000E+00

     add environment contribution to local potential

     total cpu time spent up to now is     3245.3 secs

     total energy              =   -1022.94861738 Ry
     estimated scf accuracy    <          9.0E-09 Ry

     total charge of GC-SCF    =       5.56005617 e
     the Fermi energy          =      -4.40451303 eV
                        (error :       0.00051303 eV)
     electrostatic embedding   =      -2.63571085 Ry
     cavitation energy         =       0.04608969 Ry
     electrolyte free energy   =      -0.05648772 Ry
     correction to one-el term =    -168.85268885 Ry

     iteration # 33     ecut=    80.00 Ry     beta= 0.20
     Davidson diagonalization with overlap

---- Real-time Memory Report at c_bands before calling an iterative solver
          1480 MiB given to the printing process from OS
           327 MiB allocation reported by mallinfo(arena+hblkhd)
        163280 MiB available memory on the node where the printing process lives
------------------
     ethr =  4.55E-12,  avg # of iterations = 17.0

     negative rho (up, down):  7.656E-04 0.000E+00

     add environment contribution to local potential

     total cpu time spent up to now is     3344.9 secs

     total energy              =   -1022.94861602 Ry
     estimated scf accuracy    <          6.5E-09 Ry

     total charge of GC-SCF    =       5.55954028 e
     the Fermi energy          =      -4.40450705 eV
                        (error :       0.00050705 eV)
     electrostatic embedding   =      -2.63580156 Ry
     cavitation energy         =       0.04608969 Ry
     electrolyte free energy   =      -0.05648766 Ry
     correction to one-el term =    -168.85809698 Ry

     iteration # 34     ecut=    80.00 Ry     beta= 0.20
     Davidson diagonalization with overlap

---- Real-time Memory Report at c_bands before calling an iterative solver
          1480 MiB given to the printing process from OS
           327 MiB allocation reported by mallinfo(arena+hblkhd)
        163272 MiB available memory on the node where the printing process lives
------------------
     ethr =  3.30E-12,  avg # of iterations = 14.2

     negative rho (up, down):  7.637E-04 0.000E+00

     add environment contribution to local potential

     total cpu time spent up to now is     3451.2 secs

     total energy              =   -1022.94861833 Ry
     estimated scf accuracy    <          2.7E-09 Ry

     total charge of GC-SCF    =       5.55927266 e
     the Fermi energy          =      -4.40440470 eV
                        (error :       0.00040470 eV)
     electrostatic embedding   =      -2.63536355 Ry
     cavitation energy         =       0.04608969 Ry
     electrolyte free energy   =      -0.05647819 Ry
     correction to one-el term =    -168.84587198 Ry

     iteration # 35     ecut=    80.00 Ry     beta= 0.20
     Davidson diagonalization with overlap

---- Real-time Memory Report at c_bands before calling an iterative solver
          1480 MiB given to the printing process from OS
           327 MiB allocation reported by mallinfo(arena+hblkhd)
        163251 MiB available memory on the node where the printing process lives
------------------
     ethr =  1.36E-12,  avg # of iterations = 13.9

     negative rho (up, down):  7.630E-04 0.000E+00

     add environment contribution to local potential

     total cpu time spent up to now is     3545.2 secs

     total energy              =   -1022.94862045 Ry
     estimated scf accuracy    <          2.1E-09 Ry

     total charge of GC-SCF    =       5.55857306 e
     the Fermi energy          =      -4.40429567 eV
                        (error :       0.00029567 eV)
     electrostatic embedding   =      -2.63510298 Ry
     cavitation energy         =       0.04608969 Ry
     electrolyte free energy   =      -0.05647301 Ry
     correction to one-el term =    -168.83787956 Ry

     iteration # 36     ecut=    80.00 Ry     beta= 0.20
     Davidson diagonalization with overlap

---- Real-time Memory Report at c_bands before calling an iterative solver
          1480 MiB given to the printing process from OS
           327 MiB allocation reported by mallinfo(arena+hblkhd)
        163262 MiB available memory on the node where the printing process lives
------------------
     ethr =  1.06E-12,  avg # of iterations = 23.4

     negative rho (up, down):  7.621E-04 0.000E+00

     add environment contribution to local potential

     total cpu time spent up to now is     3665.4 secs

     total energy              =   -1022.94862643 Ry
     estimated scf accuracy    <          7.8E-10 Ry

     total charge of GC-SCF    =       5.55854981 e
     the Fermi energy          =      -4.40399969 eV
                        (error :       0.00000031 eV)
     electrostatic embedding   =      -2.63438069 Ry
     cavitation energy         =       0.04608969 Ry
     electrolyte free energy   =      -0.05645914 Ry
     correction to one-el term =    -168.81489088 Ry

     iteration # 37     ecut=    80.00 Ry     beta= 0.20
     Davidson diagonalization with overlap

---- Real-time Memory Report at c_bands before calling an iterative solver
          1480 MiB given to the printing process from OS
           327 MiB allocation reported by mallinfo(arena+hblkhd)
        163259 MiB available memory on the node where the printing process lives
------------------
     ethr =  3.94E-13,  avg # of iterations = 12.2

     negative rho (up, down):  7.618E-04 0.000E+00

     add environment contribution to local potential

     total cpu time spent up to now is     3749.8 secs

     total energy              =   -1022.94862662 Ry
     estimated scf accuracy    <          4.8E-10 Ry

     total charge of GC-SCF    =       5.55854025 e
     the Fermi energy          =      -4.40399791 eV
                        (error :       0.00000209 eV)
     electrostatic embedding   =      -2.63434904 Ry
     cavitation energy         =       0.04608969 Ry
     electrolyte free energy   =      -0.05645862 Ry
     correction to one-el term =    -168.81369493 Ry

     iteration # 38     ecut=    80.00 Ry     beta= 0.20
     Davidson diagonalization with overlap

---- Real-time Memory Report at c_bands before calling an iterative solver
          1480 MiB given to the printing process from OS
           327 MiB allocation reported by mallinfo(arena+hblkhd)
        163254 MiB available memory on the node where the printing process lives
------------------
     ethr =  2.40E-13,  avg # of iterations = 11.9

     negative rho (up, down):  7.624E-04 0.000E+00

     add environment contribution to local potential

     total cpu time spent up to now is     3828.7 secs

     total energy              =   -1022.94862676 Ry
     estimated scf accuracy    <          2.9E-10 Ry

     total charge of GC-SCF    =       5.55859232 e
     the Fermi energy          =      -4.40399412 eV
                        (error :       0.00000588 eV)
     electrostatic embedding   =      -2.63433491 Ry
     cavitation energy         =       0.04608969 Ry
     electrolyte free energy   =      -0.05645838 Ry
     correction to one-el term =    -168.81307671 Ry

     iteration # 39     ecut=    80.00 Ry     beta= 0.20
     Davidson diagonalization with overlap

---- Real-time Memory Report at c_bands before calling an iterative solver
          1480 MiB given to the printing process from OS
           327 MiB allocation reported by mallinfo(arena+hblkhd)
        163249 MiB available memory on the node where the printing process lives
------------------
     ethr =  1.45E-13,  avg # of iterations = 12.4

     negative rho (up, down):  7.646E-04 0.000E+00

     add environment contribution to local potential

     total cpu time spent up to now is     3920.9 secs

     total energy              =   -1022.94862644 Ry
     estimated scf accuracy    <          1.7E-10 Ry

     total charge of GC-SCF    =       5.55875708 e
     the Fermi energy          =      -4.40401143 eV
                        (error :       0.00001143 eV)
     electrostatic embedding   =      -2.63438247 Ry
     cavitation energy         =       0.04608969 Ry
     electrolyte free energy   =      -0.05645936 Ry
     correction to one-el term =    -168.81443939 Ry

     iteration # 40     ecut=    80.00 Ry     beta= 0.20
     Davidson diagonalization with overlap

---- Real-time Memory Report at c_bands before calling an iterative solver
          1480 MiB given to the printing process from OS
           327 MiB allocation reported by mallinfo(arena+hblkhd)
        163273 MiB available memory on the node where the printing process lives
------------------
     ethr =  1.00E-13,  avg # of iterations = 23.1

     negative rho (up, down):  7.654E-04 0.000E+00

     add environment contribution to local potential

     total cpu time spent up to now is     4050.5 secs

     total energy              =   -1022.94862528 Ry
     estimated scf accuracy    <          7.4E-11 Ry

     total charge of GC-SCF    =       5.55878308 e
     the Fermi energy          =      -4.40407404 eV
                        (error :       0.00007404 eV)
     electrostatic embedding   =      -2.63453506 Ry
     cavitation energy         =       0.04608969 Ry
     electrolyte free energy   =      -0.05646249 Ry
     correction to one-el term =    -168.81901644 Ry

     iteration # 41     ecut=    80.00 Ry     beta= 0.20
     Davidson diagonalization with overlap

---- Real-time Memory Report at c_bands before calling an iterative solver
          1480 MiB given to the printing process from OS
           327 MiB allocation reported by mallinfo(arena+hblkhd)
        163240 MiB available memory on the node where the printing process lives
------------------
     ethr =  1.00E-13,  avg # of iterations = 14.4

     negative rho (up, down):  7.668E-04 0.000E+00

     add environment contribution to local potential

     total cpu time spent up to now is     4133.9 secs

     total energy              =   -1022.94862513 Ry
     estimated scf accuracy    <          6.0E-11 Ry

     total charge of GC-SCF    =       5.55874825 e
     the Fermi energy          =      -4.40408433 eV
                        (error :       0.00008433 eV)
     electrostatic embedding   =      -2.63455576 Ry
     cavitation energy         =       0.04608969 Ry
     electrolyte free energy   =      -0.05646297 Ry
     correction to one-el term =    -168.81958499 Ry

     iteration # 42     ecut=    80.00 Ry     beta= 0.20
     Davidson diagonalization with overlap

---- Real-time Memory Report at c_bands before calling an iterative solver
          1480 MiB given to the printing process from OS
           327 MiB allocation reported by mallinfo(arena+hblkhd)
        163241 MiB available memory on the node where the printing process lives
------------------
     ethr =  1.00E-13,  avg # of iterations = 12.4

     negative rho (up, down):  7.660E-04 0.000E+00

     add environment contribution to local potential

     total cpu time spent up to now is     4223.0 secs

     total energy              =   -1022.94862546 Ry
     estimated scf accuracy    <          3.3E-11 Ry

     total charge of GC-SCF    =       5.55861048 e
     the Fermi energy          =      -4.40406998 eV
                        (error :       0.00006998 eV)
     electrostatic embedding   =      -2.63451430 Ry
     cavitation energy         =       0.04608969 Ry
     electrolyte free energy   =      -0.05646224 Ry
     correction to one-el term =    -168.81818905 Ry

     iteration # 43     ecut=    80.00 Ry     beta= 0.20
     Davidson diagonalization with overlap

---- Real-time Memory Report at c_bands before calling an iterative solver
          1480 MiB given to the printing process from OS
           327 MiB allocation reported by mallinfo(arena+hblkhd)
        163248 MiB available memory on the node where the printing process lives
------------------
     ethr =  1.00E-13,  avg # of iterations = 13.9

     negative rho (up, down):  7.657E-04 0.000E+00

     add environment contribution to local potential

     total cpu time spent up to now is     4331.7 secs

     total energy              =   -1022.94862649 Ry
     estimated scf accuracy    <          1.4E-11 Ry

     total charge of GC-SCF    =       5.55859877 e
     the Fermi energy          =      -4.40401576 eV
                        (error :       0.00001576 eV)
     electrostatic embedding   =      -2.63438155 Ry
     cavitation energy         =       0.04608969 Ry
     electrolyte free energy   =      -0.05645957 Ry
     correction to one-el term =    -168.81409116 Ry

     iteration # 44     ecut=    80.00 Ry     beta= 0.20
     Davidson diagonalization with overlap

---- Real-time Memory Report at c_bands before calling an iterative solver
          1480 MiB given to the printing process from OS
           327 MiB allocation reported by mallinfo(arena+hblkhd)
        163233 MiB available memory on the node where the printing process lives
------------------
     ethr =  1.00E-13,  avg # of iterations =  7.3

     negative rho (up, down):  7.639E-04 0.000E+00

     add environment contribution to local potential

     total cpu time spent up to now is     4391.6 secs

     total energy              =   -1022.94862657 Ry
     estimated scf accuracy    <          1.1E-11 Ry

     total charge of GC-SCF    =       5.55855048 e
     the Fermi energy          =      -4.40401127 eV
                        (error :       0.00001127 eV)
     electrostatic embedding   =      -2.63437045 Ry
     cavitation energy         =       0.04608969 Ry
     electrolyte free energy   =      -0.05645934 Ry
     correction to one-el term =    -168.81373663 Ry

     iteration # 45     ecut=    80.00 Ry     beta= 0.20
     Davidson diagonalization with overlap

---- Real-time Memory Report at c_bands before calling an iterative solver
          1480 MiB given to the printing process from OS
           327 MiB allocation reported by mallinfo(arena+hblkhd)
        163235 MiB available memory on the node where the printing process lives
------------------
     ethr =  1.00E-13,  avg # of iterations = 14.4

     negative rho (up, down):  7.635E-04 0.000E+00

     add environment contribution to local potential

     total cpu time spent up to now is     4491.2 secs

     total energy              =   -1022.94862691 Ry
     estimated scf accuracy    <          3.6E-12 Ry

     total charge of GC-SCF    =       5.55853387 e
     the Fermi energy          =      -4.40399257 eV
                        (error :       0.00000743 eV)
     electrostatic embedding   =      -2.63432910 Ry
     cavitation energy         =       0.04608969 Ry
     electrolyte free energy   =      -0.05645844 Ry
     correction to one-el term =    -168.81250835 Ry

     iteration # 46     ecut=    80.00 Ry     beta= 0.20
     Davidson diagonalization with overlap

---- Real-time Memory Report at c_bands before calling an iterative solver
          1480 MiB given to the printing process from OS
           327 MiB allocation reported by mallinfo(arena+hblkhd)
        163218 MiB available memory on the node where the printing process lives
------------------
     ethr =  1.00E-13,  avg # of iterations = 10.8

     negative rho (up, down):  7.637E-04 0.000E+00

     add environment contribution to local potential

     total cpu time spent up to now is     4561.8 secs

     total energy              =   -1022.94862704 Ry
     estimated scf accuracy    <          2.4E-12 Ry

     total charge of GC-SCF    =       5.55853990 e
     the Fermi energy          =      -4.40398596 eV
                        (error :       0.00001404 eV)
     electrostatic embedding   =      -2.63431415 Ry
     cavitation energy         =       0.04608969 Ry
     electrolyte free energy   =      -0.05645812 Ry
     correction to one-el term =    -168.81205745 Ry

     iteration # 47     ecut=    80.00 Ry     beta= 0.20
     Davidson diagonalization with overlap

---- Real-time Memory Report at c_bands before calling an iterative solver
          1480 MiB given to the printing process from OS
           327 MiB allocation reported by mallinfo(arena+hblkhd)
        163230 MiB available memory on the node where the printing process lives
------------------
     ethr =  1.00E-13,  avg # of iterations =  9.0

     negative rho (up, down):  7.638E-04 0.000E+00

     add environment contribution to local potential

     total cpu time spent up to now is     4631.8 secs

     total energy              =   -1022.94862703 Ry
     estimated scf accuracy    <          1.6E-12 Ry

     total charge of GC-SCF    =       5.55854326 e
     the Fermi energy          =      -4.40398715 eV
                        (error :       0.00001285 eV)
     electrostatic embedding   =      -2.63431896 Ry
     cavitation energy         =       0.04608969 Ry
     electrolyte free energy   =      -0.05645823 Ry
     correction to one-el term =    -168.81219656 Ry

     iteration # 48     ecut=    80.00 Ry     beta= 0.20
     Davidson diagonalization with overlap

---- Real-time Memory Report at c_bands before calling an iterative solver
          1480 MiB given to the printing process from OS
           327 MiB allocation reported by mallinfo(arena+hblkhd)
        163231 MiB available memory on the node where the printing process lives
------------------
     ethr =  1.00E-13,  avg # of iterations =  8.5

     negative rho (up, down):  7.639E-04 0.000E+00

     add environment contribution to local potential

     total cpu time spent up to now is     4690.6 secs

     total energy              =   -1022.94862703 Ry
     estimated scf accuracy    <          1.1E-12 Ry

     total charge of GC-SCF    =       5.55854804 e
     the Fermi energy          =      -4.40398703 eV
                        (error :       0.00001297 eV)
     electrostatic embedding   =      -2.63432158 Ry
     cavitation energy         =       0.04608969 Ry
     electrolyte free energy   =      -0.05645829 Ry
     correction to one-el term =    -168.81226893 Ry

     iteration # 49     ecut=    80.00 Ry     beta= 0.20
     Davidson diagonalization with overlap

---- Real-time Memory Report at c_bands before calling an iterative solver
          1480 MiB given to the printing process from OS
           327 MiB allocation reported by mallinfo(arena+hblkhd)
        163220 MiB available memory on the node where the printing process lives
------------------
     ethr =  1.00E-13,  avg # of iterations =  6.5

     negative rho (up, down):  7.638E-04 0.000E+00

     add environment contribution to local potential

     total cpu time spent up to now is     4753.7 secs

     total energy              =   -1022.94862700 Ry
     estimated scf accuracy    <          8.1E-13 Ry

     total charge of GC-SCF    =       5.55855443 e
     the Fermi energy          =      -4.40398830 eV
                        (error :       0.00001170 eV)
     electrostatic embedding   =      -2.63432578 Ry
     cavitation energy         =       0.04608969 Ry
     electrolyte free energy   =      -0.05645838 Ry
     correction to one-el term =    -168.81239080 Ry

     iteration # 50     ecut=    80.00 Ry     beta= 0.20
     Davidson diagonalization with overlap

---- Real-time Memory Report at c_bands before calling an iterative solver
          1480 MiB given to the printing process from OS
           327 MiB allocation reported by mallinfo(arena+hblkhd)
        163226 MiB available memory on the node where the printing process lives
------------------
     ethr =  1.00E-13,  avg # of iterations =  3.9

     negative rho (up, down):  7.639E-04 0.000E+00

     add environment contribution to local potential

     total cpu time spent up to now is     4814.5 secs

     total energy              =   -1022.94862695 Ry
     estimated scf accuracy    <          4.3E-13 Ry

     total charge of GC-SCF    =       5.55855863 e
     the Fermi energy          =      -4.40399071 eV
                        (error :       0.00000929 eV)
     electrostatic embedding   =      -2.63433231 Ry
     cavitation energy         =       0.04608969 Ry
     electrolyte free energy   =      -0.05645850 Ry
     correction to one-el term =    -168.81259122 Ry

     iteration # 51     ecut=    80.00 Ry     beta= 0.20
     Davidson diagonalization with overlap

---- Real-time Memory Report at c_bands before calling an iterative solver
          1480 MiB given to the printing process from OS
           327 MiB allocation reported by mallinfo(arena+hblkhd)
        163207 MiB available memory on the node where the printing process lives
------------------
     ethr =  1.00E-13,  avg # of iterations =  5.8

     negative rho (up, down):  7.639E-04 0.000E+00

     add environment contribution to local potential

     total cpu time spent up to now is     4872.3 secs

     total energy              =   -1022.94862692 Ry
     estimated scf accuracy    <          3.4E-13 Ry

     total charge of GC-SCF    =       5.55855921 e
     the Fermi energy          =      -4.40399228 eV
                        (error :       0.00000772 eV)
     electrostatic embedding   =      -2.63433624 Ry
[...]
     atom   63 type  1   force =    -0.00009183    0.12412564   14.29418982
     atom   64 type  1   force =     0.00017945    0.07417647    5.12461087
     atom   65 type  1   force =    -0.00016771    0.05564692   11.87109719
     atom   66 type  1   force =    -0.00026494   -0.00796840  -14.52888104
     atom   67 type  1   force =    -0.00007030   -0.13521402  -11.75281863
     atom   68 type  1   force =     0.00016442    0.20877517  -14.00324190
     The core correction contribution to forces
     atom    1 type  1   force =     0.00000000    0.00000000    0.00000000
     atom    2 type  1   force =     0.00000000    0.00000000    0.00000000
     atom    3 type  1   force =     0.00000000    0.00000000    0.00000000
     atom    4 type  1   force =     0.00000000    0.00000000    0.00000000
     atom    5 type  1   force =     0.00000000    0.00000000    0.00000000
     atom    6 type  1   force =     0.00000000    0.00000000    0.00000000
     atom    7 type  1   force =     0.00000000    0.00000000    0.00000000
     atom    8 type  1   force =     0.00000000    0.00000000    0.00000000
     atom    9 type  1   force =     0.00000000    0.00000000    0.00000000
     atom   10 type  1   force =     0.00000000    0.00000000    0.00000000
     atom   11 type  1   force =     0.00000000    0.00000000    0.00000000
     atom   12 type  1   force =     0.00000000    0.00000000    0.00000000
     atom   13 type  1   force =     0.00000000    0.00000000    0.00000000
     atom   14 type  1   force =     0.00000000    0.00000000    0.00000000
     atom   15 type  1   force =     0.00000000    0.00000000    0.00000000
     atom   16 type  1   force =     0.00000000    0.00000000    0.00000000
     atom   17 type  1   force =     0.00000000    0.00000000    0.00000000
     atom   18 type  1   force =     0.00000000    0.00000000    0.00000000
     atom   19 type  1   force =     0.00000000    0.00000000    0.00000000
     atom   20 type  1   force =     0.00000000    0.00000000    0.00000000
     atom   21 type  1   force =     0.00000000    0.00000000    0.00000000
     atom   22 type  1   force =     0.00000000    0.00000000    0.00000000
     atom   23 type  1   force =     0.00000000    0.00000000    0.00000000
     atom   24 type  1   force =     0.00000000    0.00000000    0.00000000
     atom   25 type  1   force =     0.00000000    0.00000000    0.00000000
     atom   26 type  1   force =     0.00000000    0.00000000    0.00000000
     atom   27 type  1   force =     0.00000000    0.00000000    0.00000000
     atom   28 type  1   force =     0.00000000    0.00000000    0.00000000
     atom   29 type  1   force =     0.00000000    0.00000000    0.00000000
     atom   30 type  1   force =     0.00000000    0.00000000    0.00000000
     atom   31 type  1   force =     0.00000000    0.00000000    0.00000000
     atom   32 type  1   force =     0.00000000    0.00000000    0.00000000
     atom   33 type  1   force =     0.00000000    0.00000000    0.00000000
     atom   34 type  1   force =     0.00000000    0.00000000    0.00000000
     atom   35 type  1   force =     0.00000000    0.00000000    0.00000000
     atom   36 type  1   force =     0.00000000    0.00000000    0.00000000
     atom   37 type  1   force =     0.00000000    0.00000000    0.00000000
     atom   38 type  1   force =     0.00000000    0.00000000    0.00000000
     atom   39 type  1   force =     0.00000000    0.00000000    0.00000000
     atom   40 type  1   force =     0.00000000    0.00000000    0.00000000
     atom   41 type  1   force =     0.00000000    0.00000000    0.00000000
     atom   42 type  1   force =     0.00000000    0.00000000    0.00000000
     atom   43 type  1   force =     0.00000000    0.00000000    0.00000000
     atom   44 type  1   force =     0.00000000    0.00000000    0.00000000
     atom   45 type  1   force =     0.00000000    0.00000000    0.00000000
     atom   46 type  1   force =     0.00000000    0.00000000    0.00000000
     atom   47 type  1   force =     0.00000000    0.00000000    0.00000000
     atom   48 type  1   force =     0.00000000    0.00000000    0.00000000
     atom   49 type  1   force =     0.00000000    0.00000000    0.00000000
     atom   50 type  1   force =     0.00000000    0.00000000    0.00000000
     atom   51 type  1   force =     0.00000000    0.00000000    0.00000000
     atom   52 type  1   force =     0.00000000    0.00000000    0.00000000
     atom   53 type  1   force =     0.00000000    0.00000000    0.00000000
     atom   54 type  1   force =     0.00000000    0.00000000    0.00000000
     atom   55 type  1   force =     0.00000000    0.00000000    0.00000000
     atom   56 type  1   force =     0.00000000    0.00000000    0.00000000
     atom   57 type  1   force =     0.00000000    0.00000000    0.00000000
     atom   58 type  1   force =     0.00000000    0.00000000    0.00000000
     atom   59 type  1   force =     0.00000000    0.00000000    0.00000000
     atom   60 type  1   force =     0.00000000    0.00000000    0.00000000
     atom   61 type  1   force =     0.00000000    0.00000000    0.00000000
     atom   62 type  1   force =     0.00000000    0.00000000    0.00000000
     atom   63 type  1   force =     0.00000000    0.00000000    0.00000000
     atom   64 type  1   force =     0.00000000    0.00000000    0.00000000
     atom   65 type  1   force =     0.00000000    0.00000000    0.00000000
     atom   66 type  1   force =     0.00000000    0.00000000    0.00000000
     atom   67 type  1   force =     0.00000000    0.00000000    0.00000000
     atom   68 type  1   force =     0.00000000    0.00000000    0.00000000
     The Hubbard contrib.    to forces
     atom    1 type  1   force =     0.00000000    0.00000000    0.00000000
     atom    2 type  1   force =     0.00000000    0.00000000    0.00000000
     atom    3 type  1   force =     0.00000000    0.00000000    0.00000000
     atom    4 type  1   force =     0.00000000    0.00000000    0.00000000
     atom    5 type  1   force =     0.00000000    0.00000000    0.00000000
     atom    6 type  1   force =     0.00000000    0.00000000    0.00000000
     atom    7 type  1   force =     0.00000000    0.00000000    0.00000000
     atom    8 type  1   force =     0.00000000    0.00000000    0.00000000
     atom    9 type  1   force =     0.00000000    0.00000000    0.00000000
     atom   10 type  1   force =     0.00000000    0.00000000    0.00000000
     atom   11 type  1   force =     0.00000000    0.00000000    0.00000000
     atom   12 type  1   force =     0.00000000    0.00000000    0.00000000
     atom   13 type  1   force =     0.00000000    0.00000000    0.00000000
     atom   14 type  1   force =     0.00000000    0.00000000    0.00000000
     atom   15 type  1   force =     0.00000000    0.00000000    0.00000000
     atom   16 type  1   force =     0.00000000    0.00000000    0.00000000
     atom   17 type  1   force =     0.00000000    0.00000000    0.00000000
     atom   18 type  1   force =     0.00000000    0.00000000    0.00000000
     atom   19 type  1   force =     0.00000000    0.00000000    0.00000000
     atom   20 type  1   force =     0.00000000    0.00000000    0.00000000
     atom   21 type  1   force =     0.00000000    0.00000000    0.00000000
     atom   22 type  1   force =     0.00000000    0.00000000    0.00000000
     atom   23 type  1   force =     0.00000000    0.00000000    0.00000000
     atom   24 type  1   force =     0.00000000    0.00000000    0.00000000
     atom   25 type  1   force =     0.00000000    0.00000000    0.00000000
     atom   26 type  1   force =     0.00000000    0.00000000    0.00000000
     atom   27 type  1   force =     0.00000000    0.00000000    0.00000000
     atom   28 type  1   force =     0.00000000    0.00000000    0.00000000
     atom   29 type  1   force =     0.00000000    0.00000000    0.00000000
     atom   30 type  1   force =     0.00000000    0.00000000    0.00000000
     atom   31 type  1   force =     0.00000000    0.00000000    0.00000000
     atom   32 type  1   force =     0.00000000    0.00000000    0.00000000
     atom   33 type  1   force =     0.00000000    0.00000000    0.00000000
     atom   34 type  1   force =     0.00000000    0.00000000    0.00000000
     atom   35 type  1   force =     0.00000000    0.00000000    0.00000000
     atom   36 type  1   force =     0.00000000    0.00000000    0.00000000
     atom   37 type  1   force =     0.00000000    0.00000000    0.00000000
     atom   38 type  1   force =     0.00000000    0.00000000    0.00000000
     atom   39 type  1   force =     0.00000000    0.00000000    0.00000000
     atom   40 type  1   force =     0.00000000    0.00000000    0.00000000
     atom   41 type  1   force =     0.00000000    0.00000000    0.00000000
     atom   42 type  1   force =     0.00000000    0.00000000    0.00000000
     atom   43 type  1   force =     0.00000000    0.00000000    0.00000000
     atom   44 type  1   force =     0.00000000    0.00000000    0.00000000
     atom   45 type  1   force =     0.00000000    0.00000000    0.00000000
     atom   46 type  1   force =     0.00000000    0.00000000    0.00000000
     atom   47 type  1   force =     0.00000000    0.00000000    0.00000000
     atom   48 type  1   force =     0.00000000    0.00000000    0.00000000
     atom   49 type  1   force =     0.00000000    0.00000000    0.00000000
     atom   50 type  1   force =     0.00000000    0.00000000    0.00000000
     atom   51 type  1   force =     0.00000000    0.00000000    0.00000000
     atom   52 type  1   force =     0.00000000    0.00000000    0.00000000
     atom   53 type  1   force =     0.00000000    0.00000000    0.00000000
     atom   54 type  1   force =     0.00000000    0.00000000    0.00000000
     atom   55 type  1   force =     0.00000000    0.00000000    0.00000000
     atom   56 type  1   force =     0.00000000    0.00000000    0.00000000
     atom   57 type  1   force =     0.00000000    0.00000000    0.00000000
     atom   58 type  1   force =     0.00000000    0.00000000    0.00000000
     atom   59 type  1   force =     0.00000000    0.00000000    0.00000000
     atom   60 type  1   force =     0.00000000    0.00000000    0.00000000
     atom   61 type  1   force =     0.00000000    0.00000000    0.00000000
     atom   62 type  1   force =     0.00000000    0.00000000    0.00000000
     atom   63 type  1   force =     0.00000000    0.00000000    0.00000000
     atom   64 type  1   force =     0.00000000    0.00000000    0.00000000
     atom   65 type  1   force =     0.00000000    0.00000000    0.00000000
     atom   66 type  1   force =     0.00000000    0.00000000    0.00000000
     atom   67 type  1   force =     0.00000000    0.00000000    0.00000000
     atom   68 type  1   force =     0.00000000    0.00000000    0.00000000
     The SCF correction term to forces
     atom    1 type  1   force =     0.00000000   -0.00000001   -0.00000000
     atom    2 type  1   force =     0.00000000    0.00000000    0.00000002
     atom    3 type  1   force =    -0.00000000    0.00000000    0.00000003
     atom    4 type  1   force =     0.00000000    0.00000001    0.00000001
     atom    5 type  1   force =     0.00000000    0.00000000   -0.00000001
     atom    6 type  1   force =    -0.00000000   -0.00000002   -0.00000000
     atom    7 type  1   force =    -0.00000000    0.00000001   -0.00000003
     atom    8 type  1   force =    -0.00000000    0.00000001    0.00000001
     atom    9 type  1   force =     0.00000000    0.00000001   -0.00000001
     atom   10 type  1   force =    -0.00000000   -0.00000001   -0.00000001
     atom   11 type  1   force =    -0.00000000   -0.00000001   -0.00000002
     atom   12 type  1   force =     0.00000000    0.00000000    0.00000000
     atom   13 type  1   force =    -0.00000000   -0.00000001   -0.00000002
     atom   14 type  1   force =    -0.00000000    0.00000000   -0.00000000
     atom   15 type  1   force =     0.00000000    0.00000000    0.00000001
     atom   16 type  1   force =     0.00000000    0.00000002   -0.00000001
     atom   17 type  1   force =     0.00000000   -0.00000000   -0.00000002
     atom   18 type  1   force =     0.00000000    0.00000001   -0.00000001
     atom   19 type  1   force =    -0.00000000   -0.00000001   -0.00000001
     atom   20 type  1   force =     0.00000000    0.00000001   -0.00000000
     atom   21 type  1   force =    -0.00000000    0.00000000   -0.00000001
     atom   22 type  1   force =    -0.00000000   -0.00000001   -0.00000001
     atom   23 type  1   force =     0.00000000   -0.00000000   -0.00000002
     atom   24 type  1   force =    -0.00000000   -0.00000001    0.00000001
     atom   25 type  1   force =    -0.00000000    0.00000002   -0.00000002
     atom   26 type  1   force =     0.00000000   -0.00000000   -0.00000001
     atom   27 type  1   force =     0.00000000    0.00000000   -0.00000001
     atom   28 type  1   force =     0.00000000    0.00000001   -0.00000002
     atom   29 type  1   force =    -0.00000000   -0.00000000   -0.00000000
     atom   30 type  1   force =    -0.00000000    0.00000001   -0.00000002
     atom   31 type  1   force =     0.00000000   -0.00000001    0.00000000
     atom   32 type  1   force =     0.00000000    0.00000001    0.00000001
     atom   33 type  1   force =     0.00000000   -0.00000001    0.00000003
     atom   34 type  1   force =     0.00000000   -0.00000001    0.00000003
     atom   35 type  1   force =     0.00000000   -0.00000001   -0.00000001
     atom   36 type  1   force =    -0.00000000    0.00000000    0.00000002
     atom   37 type  1   force =    -0.00000000    0.00000000    0.00000003
     atom   38 type  1   force =    -0.00000000    0.00000001    0.00000001
     atom   39 type  1   force =    -0.00000000    0.00000000   -0.00000001
     atom   40 type  1   force =     0.00000000   -0.00000002   -0.00000000
     atom   41 type  1   force =     0.00000000    0.00000001   -0.00000003
     atom   42 type  1   force =    -0.00000000    0.00000001    0.00000001
     atom   43 type  1   force =    -0.00000000    0.00000001   -0.00000001
     atom   44 type  1   force =     0.00000000   -0.00000001   -0.00000001
     atom   45 type  1   force =    -0.00000000   -0.00000001   -0.00000002
     atom   46 type  1   force =     0.00000000    0.00000000    0.00000000
     atom   47 type  1   force =    -0.00000000   -0.00000001   -0.00000002
     atom   48 type  1   force =     0.00000000   -0.00000000   -0.00000000
     atom   49 type  1   force =    -0.00000000    0.00000000    0.00000002
     atom   50 type  1   force =    -0.00000000    0.00000002   -0.00000001
     atom   51 type  1   force =    -0.00000000   -0.00000000   -0.00000002
     atom   52 type  1   force =    -0.00000000    0.00000001   -0.00000001
     atom   53 type  1   force =     0.00000000   -0.00000001   -0.00000000
     atom   54 type  1   force =     0.00000000    0.00000001   -0.00000000
     atom   55 type  1   force =     0.00000000    0.00000001   -0.00000001
     atom   56 type  1   force =     0.00000000   -0.00000001   -0.00000001
     atom   57 type  1   force =     0.00000000   -0.00000000   -0.00000002
     atom   58 type  1   force =     0.00000000   -0.00000001    0.00000001
     atom   59 type  1   force =     0.00000000    0.00000002   -0.00000002
     atom   60 type  1   force =    -0.00000000   -0.00000000   -0.00000001
     atom   61 type  1   force =     0.00000000    0.00000000   -0.00000001
     atom   62 type  1   force =    -0.00000000    0.00000000   -0.00000002
     atom   63 type  1   force =     0.00000000   -0.00000000   -0.00000001
     atom   64 type  1   force =     0.00000000    0.00000001   -0.00000002
     atom   65 type  1   force =    -0.00000000   -0.00000001    0.00000001
     atom   66 type  1   force =     0.00000000    0.00000001    0.00000001
     atom   67 type  1   force =    -0.00000000   -0.00000001    0.00000003
     atom   68 type  1   force =    -0.00000000   -0.00000001    0.00000003

     Total force =     0.000943     Total SCF correction =     0.000000

     Writing all to output data dir ./Li/Lithium.save/ :
     XML data file
     init_run     :     28.04s CPU     29.46s WALL (       1 calls)
     electrons    :   5227.04s CPU   5269.66s WALL (       1 calls)
     forces       :    218.34s CPU    218.96s WALL (       1 calls)

     Called by init_run:
     wfcinit      :      7.43s CPU      7.58s WALL (       1 calls)
     wfcinit:wfcr :      7.07s CPU      7.22s WALL (      13 calls)
     potinit      :      0.27s CPU      0.30s WALL (       1 calls)
     hinit0       :     11.92s CPU     12.99s WALL (       1 calls)

     Called by electrons:
     c_bands      :   3629.08s CPU   3662.66s WALL (      59 calls)
     sum_band     :    268.10s CPU    269.91s WALL (      59 calls)
     v_of_rho     :      9.97s CPU     10.10s WALL (      60 calls)
     v_h          :      0.89s CPU      0.90s WALL (      60 calls)
     v_xc         :      9.08s CPU      9.20s WALL (      60 calls)
     newd         :      3.67s CPU      3.85s WALL (      60 calls)
     PAW_pot      :      1.98s CPU      2.06s WALL (      60 calls)
     mix_rho      :     27.94s CPU     28.16s WALL (      59 calls)

     Called by c_bands:
     init_us_2    :     21.96s CPU     22.07s WALL (    1560 calls)
     cegterg      :   3281.35s CPU   3313.47s WALL (     957 calls)

     Called by sum_band:
     sum_band:wei :      0.46s CPU      0.46s WALL (      59 calls)
     sum_band:loo :    263.34s CPU    264.88s WALL (      59 calls)
     sum_band:buf :      2.03s CPU      2.32s WALL (     767 calls)
     sum_band:ini :     10.85s CPU     10.89s WALL (     767 calls)
     sum_band:cal :     35.26s CPU     35.44s WALL (     767 calls)
     sum_band:bec :      0.62s CPU      0.63s WALL (     767 calls)
     addusdens    :      2.75s CPU      2.94s WALL (      59 calls)
                                        0.00s GPU  (      59 calls)
     addusd:skk   :      0.82s CPU      0.84s WALL (      59 calls)
                                        0.00s GPU  (      59 calls)

     Called by *egterg:
     cdiaghg      :    847.20s CPU    866.06s WALL (   12377 calls)
     cegterg:over :    205.91s CPU    207.22s WALL (   11498 calls)
     cegterg:upda :    139.23s CPU    139.85s WALL (   11498 calls)
     cegterg:last :     60.02s CPU     60.90s WALL (    1238 calls)
     cdiaghg:chol :     42.45s CPU     44.33s WALL (   12377 calls)
     cdiaghg:inve :     18.36s CPU     18.47s WALL (   12377 calls)
     cdiaghg:para :    148.73s CPU    157.98s WALL (   24754 calls)
     h_psi        :   1856.49s CPU   1866.22s WALL (   12468 calls)
     s_psi        :    123.99s CPU    124.46s WALL (   12468 calls)
     g_psi        :      3.54s CPU      3.57s WALL (   11498 calls)

     Called by h_psi:
     h_psi:calbec :    174.10s CPU    175.43s WALL (   12468 calls)
     vloc_psi     :   1550.25s CPU   1558.08s WALL (   12468 calls)
                                        0.00s GPU  (   12468 calls)
     add_vuspsi   :    123.98s CPU    124.50s WALL (   12468 calls)

     General routines
     calbec       :    211.73s CPU    213.26s WALL (   13287 calls)
     fft          :      9.81s CPU     10.02s WALL (     780 calls)
     ffts         :     15.32s CPU     15.40s WALL (    7253 calls)
     fftw         :   1687.06s CPU   1695.37s WALL ( 1133965 calls)
     interpolate  :      0.73s CPU      0.74s WALL (      60 calls)
 
     Parallel routines

     PAW routines
     PAW_pot      :      1.98s CPU      2.06s WALL (      60 calls)
 
     Environ routines
 
     PWSCF        :      1h31m CPU      1h32m WALL

 
   This run was terminated on:   7:18:53  12Jan2025            

=------------------------------------------------------------------------------=
   JOB DONE.
=------------------------------------------------------------------------------=
