
     Program PWSCF v.7.4 starts on  5Jan2025 at  3:17: 2 

     This program is part of the open-source Quantum ESPRESSO suite
     for quantum simulation of materials; please cite
         "P. Giannozzi et al., J. Phys.:Condens. Matter 21 395502 (2009);
         "P. Giannozzi et al., J. Phys.:Condens. Matter 29 465901 (2017);
         "P. Giannozzi et al., J. Chem. Phys. 152 154105 (2020);
          URL http://www.quantum-espresso.org", 
     in publications or presentations arising from this work. More details at
     http://www.quantum-espresso.org/quote

     Parallel version (MPI & OpenMP), running on     384 processor cores
     Number of MPI processes:               384
     Threads/MPI process:                     1

     MPI processes distributed on     3 nodes
     489303 MiB available memory on the printing compute node when the environment starts

     Reading input from espresso.pwi
Warning: card &CELL ignored
Warning: card    PRESS_CONV_THR   = 0.1 ignored
Warning: card    CELL_DOFREE      = 'ALL' ignored
Warning: card / ignored
Warning: card &FCP ignored
Warning: card / ignored
Warning: card &RISM ignored
Warning: card / ignored

     Current dimensions of program PWSCF are:
     Max number of different atomic species (ntypx) = 10
     Max number of k-points (npk) =  40000
     Max angular momentum in pseudopotentials (lmaxx) =  4

     IMPORTANT: XC functional enforced from input :
     Exchange-correlation= PBE
                           (   1   4   3   4   0   0   0)
     Any further DFT definition will be discarded
     Please, verify this is what you really want


     Reading input from environ.in:
     * using ionic solvent mode
     * setting boundary derivatives method to SSCS default
     * setting electrolyte-boundary derivatives method to SSCS default

Environ Warning (1001): card EOF ignored

     

     K-points division:     npool     =       2
     R & G space division:  proc/nbgrp/npool/nimage =     192
     Subspace diagonalization in iterative solution of the eigenvalue problem:
     a serial algorithm will be used


     Parallelization info
     --------------------
     sticks:   dense  smooth     PW     G-vecs:    dense   smooth      PW
     Min          68      27      7                36508     9229    1253
     Max          69      28      8                36563     9258    1292
     Sum       13133    5269   1401              7013397  1773951  244485

     Using Slab Decomposition



     bravais-lattice index     =            8
     lattice parameter (alat)  =      11.2436  a.u.
     unit-cell volume          =   18353.5537 (a.u.)^3
     number of atoms/cell      =           24
     number of atomic types    =            1
     number of electrons       =        72.00
     number of Kohn-Sham states=           54
     kinetic-energy cutoff     =      80.0000  Ry
     charge density cutoff     =     800.0000  Ry
     scf convergence threshold =      1.0E-06
     mixing beta               =       0.2000
     number of iterations used =            8  local-TF  mixing
     energy convergence thresh.=      1.0E-05
     force convergence thresh. =      3.9E-04
     Exchange-correlation= PBE
                           (   1   4   3   4   0   0   0)
     nstep                     =          999


     ================================================================================

                                  Environ Setup Summary

     ================================================================================

     Please cite

          O. Andreussi, I. Dabo and N. Marzari, J. Chem. Phys. 136, 064102 (2012)
          F. Nattino, M. Truscott, N. Marzari, and O. Andreussi, J. Chem. Phys. 150, 041722 (2019)

     in publications or presentations arising from this work.

     ================================================================================

     Parameters
     ==========

     compensation onset threshold      =               0.1000E+00
     static permittivity               =                    89.90
     surface tension in input (dyn/cm) =                    37.30
     surface tension in internal units =               0.4792E-04

     Solvent Boundary
     ================

     solvent mode                      =                    ionic
     derivatives method                =                   lowmem
     electrolyte derivatives method    =                   lowmem
     numerical core for derivatives    =                      fft
     switching function adopted        =                     SCCS
     density limit for vacuum region   =               0.5000E-02
     density limit for bulk solvent    =               0.1000E-03
     soft-sphere radius mode           =                    bondi
     soft-sphere softness              =                     0.50
     alpha                             =                     1.32

     Electrostatic Setup
     ===================

     electrostatic problem to solve    =                    modpb
     numerical solver adopted          =                   newton
     type of auxiliary density adopted =                     none
     numerical core for poisson        =                      fft
     adopting a nested solver scheme
     inner solver                      =                       cg
     inner core                        =                      fft
     type of pbc corrections           =                parabolic
     numerical core for corrections    =                      1da

     ================================================================================


     >>>>> Grand-Canonical SCF is activated <<<<<
     Initial Total Charge  =     0.000000 e
     Target Fermi Energy   =    -1.404000 eV
     Thr. of Fermi Energy  =     0.001000 eV
     Wave-shift of Kerker  =     0.400000 bohr^-1
     Wave-shift of Hartree =     1.500000 bohr^-1
     Mixing Rate of Fermi  =     0.050000

     celldm(1)=  11.243615  celldm(2)=   1.632993  celldm(3)=   7.907113
     celldm(4)=   0.000000  celldm(5)=   0.000000  celldm(6)=   0.000000

     crystal axes: (cart. coord. in units of alat)
               a(1) = (   1.000000   0.000000   0.000000 )  
               a(2) = (   0.000000   1.632993   0.000000 )  
               a(3) = (   0.000000   0.000000   7.907113 )  

     reciprocal axes: (cart. coord. in units 2 pi/alat)
               b(1) = (  1.000000  0.000000  0.000000 )  
               b(2) = (  0.000000  0.612372  0.000000 )  
               b(3) = (  0.000000  0.000000  0.126468 )  


     PseudoPot. # 1 for Li read from file:
     /work/e89/e89/ba3g18/Repos/Pseudopotentials/Pslibrary/Li.pbe-sl-kjpaw_psl.1.0.0.UPF
     MD5 check sum: 3f4d2cafebb47c6c3aa8ed472e6f074d
     Pseudo is Projector augmented-wave, Zval =  3.0
     Generated using 'atomic' code by A. Dal Corso  v.7.4
     Shape of augmentation charge: PSQ
     Using radial grid of 1017 points,  4 beta functions with: 
                l(1) =   0
                l(2) =   0
                l(3) =   1
                l(4) =   1
     Q(r) pseudized with 0 coefficients 


     atomic species   valence    mass     pseudopotential
     Li                3.00     6.94000     Li( 1.00)

      2 Sym. Ops. (no inversion) found


                                    s                        frac. trans.

      isym =  1     identity                                     

 cryst.   s( 1) = (     1          0          0      )
                  (     0          1          0      )
                  (     0          0          1      )

 cart.    s( 1) = (  1.0000000  0.0000000  0.0000000 )
                  (  0.0000000  1.0000000  0.0000000 )
                  (  0.0000000  0.0000000  1.0000000 )


      isym =  2     inv. 180 deg rotation - cart. axis [0,1,0]   

 cryst.   s( 2) = (     1          0          0      )
                  (     0         -1          0      )
                  (     0          0          1      )

 cart.    s( 2) = (  1.0000000  0.0000000  0.0000000 )
                  (  0.0000000 -1.0000000  0.0000000 )
                  (  0.0000000  0.0000000  1.0000000 )


     point group C_s (m)    
     there are  2 classes
     the character table:

       E     s    
A'     1.00  1.00
A''    1.00 -1.00

     the symmetry operations in each class and the name of the first element:

     E        1
          identity                                               
     s        2
          inv. 180 deg rotation - cart. axis [0,1,0]             

   Cartesian axes

     site n.     atom                  positions (alat units)
         1        Li     tau(   1) = (   0.4588978   0.8164966   4.4933523  )
         2        Li     tau(   2) = (   0.2074469   0.4078452   3.4136576  )
         3        Li     tau(   3) = (   0.4589735   0.8164966   3.5818257  )
         4        Li     tau(   4) = (   0.4598760   0.4079077   3.8658933  )
         5        Li     tau(   5) = (   0.2107534   0.8164966   4.0415828  )
         6        Li     tau(   6) = (   0.2066263   0.4082780   4.3244518  )
         7        Li     tau(   7) = (   0.4573649   1.6329931   4.4938236  )
         8        Li     tau(   8) = (   0.2074469   1.2251481   3.4136576  )
         9        Li     tau(   9) = (   0.4567660   1.6329931   3.5824184  )
        10        Li     tau(  10) = (   0.4598760   1.2250856   3.8658933  )
        11        Li     tau(  11) = (   0.2093648   1.6329931   4.0416392  )
        12        Li     tau(  12) = (   0.2066263   1.2247153   4.3244518  )
        13        Li     tau(  13) = (   0.9583340   0.8164966   4.4933295  )
        14        Li     tau(  14) = (   0.7075243   0.4078347   3.4136434  )
        15        Li     tau(  15) = (   0.9590311   0.8164966   3.5819065  )
        16        Li     tau(  16) = (   0.9599510   0.4080900   3.8658746  )
        17        Li     tau(  17) = (   0.7109853   0.8164966   4.0417840  )
        18        Li     tau(  18) = (   0.7066142   0.4085177   4.3244834  )
        19        Li     tau(  19) = (   0.9577346   1.6329931   4.4938316  )
        20        Li     tau(  20) = (   0.7075243   1.2251585   3.4136434  )
        21        Li     tau(  21) = (   0.9567151   1.6329931   3.5823034  )
        22        Li     tau(  22) = (   0.9599510   1.2249033   3.8658746  )
        23        Li     tau(  23) = (   0.7090025   1.6329931   4.0415130  )
        24        Li     tau(  24) = (   0.7066142   1.2244756   4.3244834  )

   Crystallographic axes

     site n.     atom                  positions (cryst. coord.)
         1        Li     tau(   1) = (  0.4588978  0.5000001  0.5682671  )
         2        Li     tau(   2) = (  0.2074469  0.2497532  0.4317199  )
         3        Li     tau(   3) = (  0.4589735  0.5000001  0.4529878  )
         4        Li     tau(   4) = (  0.4598760  0.2497915  0.4889134  )
         5        Li     tau(   5) = (  0.2107534  0.5000001  0.5111325  )
         6        Li     tau(   6) = (  0.2066263  0.2500182  0.5469065  )
         7        Li     tau(   7) = (  0.4573649  1.0000001  0.5683267  )
         8        Li     tau(   8) = (  0.2074469  0.7502470  0.4317199  )
         9        Li     tau(   9) = (  0.4567660  1.0000001  0.4530628  )
        10        Li     tau(  10) = (  0.4598760  0.7502087  0.4889134  )
        11        Li     tau(  11) = (  0.2093648  1.0000001  0.5111397  )
        12        Li     tau(  12) = (  0.2066263  0.7499820  0.5469065  )
        13        Li     tau(  13) = (  0.9583340  0.5000001  0.5682642  )
        14        Li     tau(  14) = (  0.7075243  0.2497468  0.4317180  )
        15        Li     tau(  15) = (  0.9590311  0.5000001  0.4529980  )
        16        Li     tau(  16) = (  0.9599510  0.2499031  0.4889110  )
        17        Li     tau(  17) = (  0.7109853  0.5000001  0.5111580  )
        18        Li     tau(  18) = (  0.7066142  0.2501650  0.5469105  )
        19        Li     tau(  19) = (  0.9577346  1.0000001  0.5683277  )
        20        Li     tau(  20) = (  0.7075243  0.7502534  0.4317180  )
        21        Li     tau(  21) = (  0.9567151  1.0000001  0.4530482  )
        22        Li     tau(  22) = (  0.9599510  0.7500971  0.4889110  )
        23        Li     tau(  23) = (  0.7090025  1.0000001  0.5111237  )
        24        Li     tau(  24) = (  0.7066142  0.7498352  0.5469105  )

     number of k points=    24  Marzari-Vanderbilt smearing, width (Ry)=  0.0100
                       cart. coord. in units 2pi/alat
        k(    1) = (   0.0000000   0.0000000   0.0000000), wk =   0.0259740
        k(    2) = (   0.0000000   0.0874818   0.0000000), wk =   0.0519481
        k(    3) = (   0.0000000   0.1749636   0.0000000), wk =   0.0519481
        k(    4) = (   0.0000000   0.2624454   0.0000000), wk =   0.0519481
        k(    5) = (   0.0909091   0.0000000   0.0000000), wk =   0.0519481
        k(    6) = (   0.0909091   0.0874818   0.0000000), wk =   0.1038961
        k(    7) = (   0.0909091   0.1749636   0.0000000), wk =   0.1038961
        k(    8) = (   0.0909091   0.2624454   0.0000000), wk =   0.1038961
        k(    9) = (   0.1818182   0.0000000   0.0000000), wk =   0.0519481
        k(   10) = (   0.1818182   0.0874818   0.0000000), wk =   0.1038961
        k(   11) = (   0.1818182   0.1749636   0.0000000), wk =   0.1038961
        k(   12) = (   0.1818182   0.2624454   0.0000000), wk =   0.1038961
        k(   13) = (   0.2727273   0.0000000   0.0000000), wk =   0.0519481
        k(   14) = (   0.2727273   0.0874818   0.0000000), wk =   0.1038961
        k(   15) = (   0.2727273   0.1749636   0.0000000), wk =   0.1038961
        k(   16) = (   0.2727273   0.2624454   0.0000000), wk =   0.1038961
        k(   17) = (   0.3636364   0.0000000   0.0000000), wk =   0.0519481
        k(   18) = (   0.3636364   0.0874818   0.0000000), wk =   0.1038961
        k(   19) = (   0.3636364   0.1749636   0.0000000), wk =   0.1038961
        k(   20) = (   0.3636364   0.2624454   0.0000000), wk =   0.1038961
        k(   21) = (   0.4545455   0.0000000   0.0000000), wk =   0.0519481
        k(   22) = (   0.4545455   0.0874818   0.0000000), wk =   0.1038961
        k(   23) = (   0.4545455   0.1749636   0.0000000), wk =   0.1038961
        k(   24) = (   0.4545455   0.2624454   0.0000000), wk =   0.1038961

                       cryst. coord.
        k(    1) = (   0.0000000   0.0000000   0.0000000), wk =   0.0259740
        k(    2) = (   0.0000000   0.1428571   0.0000000), wk =   0.0519481
        k(    3) = (   0.0000000   0.2857143   0.0000000), wk =   0.0519481
        k(    4) = (   0.0000000   0.4285714   0.0000000), wk =   0.0519481
        k(    5) = (   0.0909091   0.0000000   0.0000000), wk =   0.0519481
        k(    6) = (   0.0909091   0.1428571   0.0000000), wk =   0.1038961
        k(    7) = (   0.0909091   0.2857143   0.0000000), wk =   0.1038961
        k(    8) = (   0.0909091   0.4285714   0.0000000), wk =   0.1038961
        k(    9) = (   0.1818182   0.0000000   0.0000000), wk =   0.0519481
        k(   10) = (   0.1818182   0.1428571   0.0000000), wk =   0.1038961
        k(   11) = (   0.1818182   0.2857143   0.0000000), wk =   0.1038961
        k(   12) = (   0.1818182   0.4285714   0.0000000), wk =   0.1038961
        k(   13) = (   0.2727273   0.0000000   0.0000000), wk =   0.0519481
        k(   14) = (   0.2727273   0.1428571   0.0000000), wk =   0.1038961
        k(   15) = (   0.2727273   0.2857143   0.0000000), wk =   0.1038961
        k(   16) = (   0.2727273   0.4285714   0.0000000), wk =   0.1038961
        k(   17) = (   0.3636364   0.0000000   0.0000000), wk =   0.0519481
        k(   18) = (   0.3636364   0.1428571   0.0000000), wk =   0.1038961
        k(   19) = (   0.3636364   0.2857143   0.0000000), wk =   0.1038961
        k(   20) = (   0.3636364   0.4285714   0.0000000), wk =   0.1038961
        k(   21) = (   0.4545455   0.0000000   0.0000000), wk =   0.0519481
        k(   22) = (   0.4545455   0.1428571   0.0000000), wk =   0.1038961
        k(   23) = (   0.4545455   0.2857143   0.0000000), wk =   0.1038961
        k(   24) = (   0.4545455   0.4285714   0.0000000), wk =   0.1038961

     Dense  grid:  7013397 G-vectors     FFT dimensions: ( 108, 180, 810)

     Smooth grid:  1773951 G-vectors     FFT dimensions: (  72, 108, 512)

     Dynamical RAM for                 wfc:       0.95 MB

     Dynamical RAM for     wfc (w. buffer):      12.37 MB

     Dynamical RAM for           str. fact:       0.56 MB

     Dynamical RAM for           local pot:       0.00 MB

     Dynamical RAM for          nlocal pot:       3.38 MB

     Dynamical RAM for                qrad:       0.65 MB

     Dynamical RAM for          rho,v,vnew:       3.90 MB

     Dynamical RAM for               rhoin:       1.30 MB

     Dynamical RAM for            rho*nmix:       8.92 MB

     Dynamical RAM for           G-vectors:       2.16 MB

     Dynamical RAM for          h,s,v(r/c):       2.14 MB

     Dynamical RAM for          <psi|beta>:       0.16 MB

     Dynamical RAM for                 psi:       3.81 MB

     Dynamical RAM for                hpsi:       3.81 MB

     Dynamical RAM for                spsi:       3.81 MB

     Dynamical RAM for      wfcinit/wfcrot:       1.97 MB

     Dynamical RAM for           addusdens:      18.96 MB

     Dynamical RAM for          addusforce:      31.80 MB

     Estimated static dynamical RAM per process >      29.14 MB

     Estimated max dynamical RAM per process >     107.02 MB

     Estimated total dynamical RAM >      24.53 GB

     Initial potential from superposition of free atoms

     starting charge      71.8894, renormalised to      72.0000

     negative rho (up, down):  3.175E-03 0.000E+00
     Starting wfcs are random
     Checking if some PAW data can be deallocated... 

     total cpu time spent up to now is       23.0 secs

     Self-consistent Calculation

     iteration #  1     ecut=    80.00 Ry     beta= 0.20
     Davidson diagonalization with overlap

---- Real-time Memory Report at c_bands before calling an iterative solver
           458 MiB given to the printing process from OS
             0 MiB allocation reported by mallinfo(arena+hblkhd)
        474525 MiB available memory on the node where the printing process lives
------------------
     c_bands:  1 eigenvalues not converged
     c_bands:  1 eigenvalues not converged
     c_bands:  1 eigenvalues not converged
     c_bands:  1 eigenvalues not converged
     c_bands:  1 eigenvalues not converged
     c_bands:  1 eigenvalues not converged
     ethr =  1.00E-12,  avg # of iterations =110.2

     negative rho (up, down):  2.335E-03 0.000E+00

     total cpu time spent up to now is      115.4 secs

     total energy              =    -361.04998456 Ry
     estimated scf accuracy    <       0.12816600 Ry

     total charge of GC-SCF    =       0.01331615 e
     the Fermi energy          =      -4.69279299 eV
                        (error :       3.28879299 eV)
     electrostatic embedding   =       0.00000000 Ry
     cavitation energy         =       0.02286878 Ry
     electrolyte free energy   =       0.00789959 Ry
     correction to one-el term =      -0.00000000 Ry

     iteration #  2     ecut=    80.00 Ry     beta= 0.20
     Davidson diagonalization with overlap

---- Real-time Memory Report at c_bands before calling an iterative solver
           458 MiB given to the printing process from OS
             0 MiB allocation reported by mallinfo(arena+hblkhd)
        473541 MiB available memory on the node where the printing process lives
------------------
     ethr =  1.00E-05,  avg # of iterations =  7.4

     negative rho (up, down):  1.711E-03 0.000E+00

     add environment contribution to local potential

     total cpu time spent up to now is      129.9 secs

     total energy              =    -360.87227404 Ry
     estimated scf accuracy    <       0.04545086 Ry

     total charge of GC-SCF    =      -0.00737049 e
     the Fermi energy          =      -3.98832975 eV
                        (error :       2.58432975 eV)
     electrostatic embedding   =       0.00008206 Ry
     cavitation energy         =       0.02286878 Ry
     electrolyte free energy   =       0.00789959 Ry
     correction to one-el term =      -0.00000000 Ry

     iteration #  3     ecut=    80.00 Ry     beta= 0.20
     Davidson diagonalization with overlap

---- Real-time Memory Report at c_bands before calling an iterative solver
           458 MiB given to the printing process from OS
             0 MiB allocation reported by mallinfo(arena+hblkhd)
        473472 MiB available memory on the node where the printing process lives
------------------
     ethr =  1.00E-05,  avg # of iterations = 21.3

     negative rho (up, down):  1.451E-03 0.000E+00

     add environment contribution to local potential

     total cpu time spent up to now is      152.2 secs

     total energy              =    -360.85574113 Ry
     estimated scf accuracy    <       0.01541064 Ry

     total charge of GC-SCF    =      -0.10022279 e
     the Fermi energy          =      -3.02823864 eV
                        (error :       1.62423864 eV)
     electrostatic embedding   =      -0.02568422 Ry
     cavitation energy         =       0.02286878 Ry
     electrolyte free energy   =      -0.00221408 Ry
     correction to one-el term =      -0.54159124 Ry

     iteration #  4     ecut=    80.00 Ry     beta= 0.20
     Davidson diagonalization with overlap

---- Real-time Memory Report at c_bands before calling an iterative solver
           458 MiB given to the printing process from OS
             0 MiB allocation reported by mallinfo(arena+hblkhd)
        473462 MiB available memory on the node where the printing process lives
------------------
     ethr =  1.00E-05,  avg # of iterations =  6.7

     negative rho (up, down):  1.243E-03 0.000E+00

     add environment contribution to local potential

     total cpu time spent up to now is      164.7 secs

     total energy              =    -360.78820905 Ry
     estimated scf accuracy    <       0.00888191 Ry

     total charge of GC-SCF    =      -0.27976521 e
     the Fermi energy          =      -3.14636568 eV
                        (error :       1.74236568 eV)
     electrostatic embedding   =      -0.02861084 Ry
     cavitation energy         =       0.02286878 Ry
     electrolyte free energy   =      -0.00232755 Ry
     correction to one-el term =       2.68470758 Ry

     iteration #  5     ecut=    80.00 Ry     beta= 0.20
     Davidson diagonalization with overlap

---- Real-time Memory Report at c_bands before calling an iterative solver
           458 MiB given to the printing process from OS
             0 MiB allocation reported by mallinfo(arena+hblkhd)
        473431 MiB available memory on the node where the printing process lives
------------------
     ethr =  1.00E-05,  avg # of iterations = 11.6

     negative rho (up, down):  1.058E-03 0.000E+00

     add environment contribution to local potential

     total cpu time spent up to now is      180.5 secs

     total energy              =    -360.88858327 Ry
     estimated scf accuracy    <       0.00301079 Ry

     total charge of GC-SCF    =      -0.30490576 e
     the Fermi energy          =      -2.83624406 eV
                        (error :       1.43224406 eV)
     electrostatic embedding   =      -0.04533700 Ry
     cavitation energy         =       0.02286878 Ry
     electrolyte free energy   =      -0.00128552 Ry
     correction to one-el term =       9.19239774 Ry

     iteration #  6     ecut=    80.00 Ry     beta= 0.20
     Davidson diagonalization with overlap

---- Real-time Memory Report at c_bands before calling an iterative solver
           458 MiB given to the printing process from OS
             0 MiB allocation reported by mallinfo(arena+hblkhd)
        473403 MiB available memory on the node where the printing process lives
------------------
     ethr =  4.16E-06,  avg # of iterations =  6.6

     negative rho (up, down):  1.089E-03 0.000E+00

     add environment contribution to local potential

     total cpu time spent up to now is      192.6 secs

     total energy              =    -360.72550902 Ry
     estimated scf accuracy    <       0.00242916 Ry

     total charge of GC-SCF    =      -0.81349050 e
     the Fermi energy          =      -2.78945770 eV
                        (error :       1.38545770 eV)
     electrostatic embedding   =      -0.04904568 Ry
     cavitation energy         =       0.02286878 Ry
     electrolyte free energy   =      -0.00120987 Ry
     correction to one-el term =      10.05757292 Ry

     iteration #  7     ecut=    80.00 Ry     beta= 0.20
     Davidson diagonalization with overlap

---- Real-time Memory Report at c_bands before calling an iterative solver
           458 MiB given to the printing process from OS
             0 MiB allocation reported by mallinfo(arena+hblkhd)
        473368 MiB available memory on the node where the printing process lives
------------------
     ethr =  3.34E-06,  avg # of iterations =  8.5

     negative rho (up, down):  1.557E-03 0.000E+00

     add environment contribution to local potential

     total cpu time spent up to now is      207.5 secs

     total energy              =    -360.77671101 Ry
     estimated scf accuracy    <       0.00210731 Ry

     total charge of GC-SCF    =      -1.60341268 e
     the Fermi energy          =      -2.67496866 eV
                        (error :       1.27096866 eV)
     electrostatic embedding   =      -0.19110549 Ry
     cavitation energy         =       0.02286878 Ry
     electrolyte free energy   =      -0.00130017 Ry
     correction to one-el term =      26.44975811 Ry

     iteration #  8     ecut=    80.00 Ry     beta= 0.20
     Davidson diagonalization with overlap

---- Real-time Memory Report at c_bands before calling an iterative solver
           458 MiB given to the printing process from OS
             0 MiB allocation reported by mallinfo(arena+hblkhd)
        473339 MiB available memory on the node where the printing process lives
------------------
     ethr =  2.86E-06,  avg # of iterations =  7.2

     negative rho (up, down):  1.474E-03 0.000E+00

     add environment contribution to local potential

     total cpu time spent up to now is      221.6 secs

     total energy              =    -361.02811632 Ry
     estimated scf accuracy    <       0.00941536 Ry

     total charge of GC-SCF    =      -1.59616691 e
     the Fermi energy          =      -2.70103990 eV
                        (error :       1.29703990 eV)
     electrostatic embedding   =      -0.63937054 Ry
     cavitation energy         =       0.02286878 Ry
     electrolyte free energy   =      -0.00380196 Ry
     correction to one-el term =      51.53999351 Ry

     iteration #  9     ecut=    80.00 Ry     beta= 0.20
     Davidson diagonalization with overlap

---- Real-time Memory Report at c_bands before calling an iterative solver
           458 MiB given to the printing process from OS
             0 MiB allocation reported by mallinfo(arena+hblkhd)
        473307 MiB available memory on the node where the printing process lives
------------------
     ethr =  2.86E-06,  avg # of iterations =  1.0

     negative rho (up, down):  2.106E-03 0.000E+00

     add environment contribution to local potential

     total cpu time spent up to now is      231.8 secs

     total energy              =    -361.02847769 Ry
     estimated scf accuracy    <       0.00932119 Ry

     total charge of GC-SCF    =      -1.68012408 e
     the Fermi energy          =      -2.70309005 eV
                        (error :       1.29909005 eV)
     electrostatic embedding   =      -0.63383735 Ry
     cavitation energy         =       0.02286878 Ry
     electrolyte free energy   =      -0.00376558 Ry
     correction to one-el term =      51.28465929 Ry

     iteration # 10     ecut=    80.00 Ry     beta= 0.20
     Davidson diagonalization with overlap

---- Real-time Memory Report at c_bands before calling an iterative solver
           458 MiB given to the printing process from OS
             0 MiB allocation reported by mallinfo(arena+hblkhd)
        473287 MiB available memory on the node where the printing process lives
------------------
     ethr =  2.86E-06,  avg # of iterations =  8.0

     negative rho (up, down):  2.611E-03 0.000E+00

     add environment contribution to local potential

     total cpu time spent up to now is      245.6 secs

     total energy              =    -361.11188097 Ry
     estimated scf accuracy    <       0.01737279 Ry

     total charge of GC-SCF    =      -1.63799334 e
     the Fermi energy          =      -2.82331746 eV
                        (error :       1.41931746 eV)
     electrostatic embedding   =      -0.69535881 Ry
     cavitation energy         =       0.02286878 Ry
     electrolyte free energy   =      -0.00438562 Ry
     correction to one-el term =      53.45217444 Ry

     iteration # 11     ecut=    80.00 Ry     beta= 0.20
     Davidson diagonalization with overlap

---- Real-time Memory Report at c_bands before calling an iterative solver
           458 MiB given to the printing process from OS
             0 MiB allocation reported by mallinfo(arena+hblkhd)
        473281 MiB available memory on the node where the printing process lives
------------------
     ethr =  2.86E-06,  avg # of iterations =  7.5

     negative rho (up, down):  8.145E-04 0.000E+00

     add environment contribution to local potential

     total cpu time spent up to now is      259.7 secs

     total energy              =    -360.84516876 Ry
     estimated scf accuracy    <       0.02416292 Ry

     total charge of GC-SCF    =      -1.96067420 e
     the Fermi energy          =      -2.93561382 eV
                        (error :       1.53161382 eV)
     electrostatic embedding   =      -0.66319207 Ry
     cavitation energy         =       0.02286878 Ry
     electrolyte free energy   =      -0.00439712 Ry
     correction to one-el term =      51.81599213 Ry

     iteration # 12     ecut=    80.00 Ry     beta= 0.20
     Davidson diagonalization with overlap

---- Real-time Memory Report at c_bands before calling an iterative solver
           458 MiB given to the printing process from OS
             0 MiB allocation reported by mallinfo(arena+hblkhd)
        473269 MiB available memory on the node where the printing process lives
------------------
     ethr =  2.86E-06,  avg # of iterations = 15.2

     negative rho (up, down):  7.817E-04 0.000E+00

     add environment contribution to local potential

     total cpu time spent up to now is      278.6 secs

     total energy              =    -361.03896234 Ry
     estimated scf accuracy    <       0.00136151 Ry

     total charge of GC-SCF    =      -1.88045561 e
     the Fermi energy          =      -2.41001991 eV
                        (error :       1.00601991 eV)
     electrostatic embedding   =      -0.88918810 Ry
     cavitation energy         =       0.02286878 Ry
     electrolyte free energy   =      -0.00582614 Ry
     correction to one-el term =      61.14760772 Ry

     iteration # 13     ecut=    80.00 Ry     beta= 0.20
     Davidson diagonalization with overlap

---- Real-time Memory Report at c_bands before calling an iterative solver
           458 MiB given to the printing process from OS
             0 MiB allocation reported by mallinfo(arena+hblkhd)
        473273 MiB available memory on the node where the printing process lives
------------------
     ethr =  1.84E-06,  avg # of iterations =  3.3

     negative rho (up, down):  7.167E-04 0.000E+00

     add environment contribution to local potential

     total cpu time spent up to now is      290.7 secs

     total energy              =    -360.89583906 Ry
     estimated scf accuracy    <       0.00146067 Ry

     total charge of GC-SCF    =      -2.47350136 e
     the Fermi energy          =      -2.42130121 eV
                        (error :       1.01730121 eV)
     electrostatic embedding   =      -0.82480403 Ry
     cavitation energy         =       0.02286878 Ry
     electrolyte free energy   =      -0.00529592 Ry
     correction to one-el term =      58.80235611 Ry

     iteration # 14     ecut=    80.00 Ry     beta= 0.20
     Davidson diagonalization with overlap

---- Real-time Memory Report at c_bands before calling an iterative solver
           458 MiB given to the printing process from OS
             0 MiB allocation reported by mallinfo(arena+hblkhd)
        473274 MiB available memory on the node where the printing process lives
------------------
     ethr =  1.84E-06,  avg # of iterations = 12.0

     negative rho (up, down):  7.452E-04 0.000E+00

     add environment contribution to local potential

     total cpu time spent up to now is      309.6 secs

     total energy              =    -360.96791638 Ry
     estimated scf accuracy    <       0.00118511 Ry

     total charge of GC-SCF    =      -2.86631687 e
     the Fermi energy          =      -2.36095705 eV
                        (error :       0.95695705 eV)
     electrostatic embedding   =      -1.34907111 Ry
     cavitation energy         =       0.02286878 Ry
     electrolyte free energy   =      -0.01023695 Ry
     correction to one-el term =      75.70113273 Ry

     iteration # 15     ecut=    80.00 Ry     beta= 0.20
     Davidson diagonalization with overlap

---- Real-time Memory Report at c_bands before calling an iterative solver
           458 MiB given to the printing process from OS
             0 MiB allocation reported by mallinfo(arena+hblkhd)
        473281 MiB available memory on the node where the printing process lives
------------------
     ethr =  1.58E-06,  avg # of iterations =  8.6

     negative rho (up, down):  4.796E-04 0.000E+00

     add environment contribution to local potential

     total cpu time spent up to now is      324.9 secs

     total energy              =    -361.27076289 Ry
     estimated scf accuracy    <       0.00102968 Ry

     total charge of GC-SCF    =      -2.30006903 e
     the Fermi energy          =      -2.29610560 eV
                        (error :       0.89210560 eV)
     electrostatic embedding   =      -1.76550036 Ry
     cavitation energy         =       0.02286878 Ry
     electrolyte free energy   =      -0.01520054 Ry
     correction to one-el term =      86.94006421 Ry

     iteration # 16     ecut=    80.00 Ry     beta= 0.20
     Davidson diagonalization with overlap

---- Real-time Memory Report at c_bands before calling an iterative solver
           458 MiB given to the printing process from OS
             0 MiB allocation reported by mallinfo(arena+hblkhd)
        473280 MiB available memory on the node where the printing process lives
------------------
     ethr =  1.39E-06,  avg # of iterations =  7.5

     negative rho (up, down):  4.775E-04 0.000E+00

     add environment contribution to local potential

     total cpu time spent up to now is      340.6 secs

     total energy              =    -360.91990950 Ry
     estimated scf accuracy    <       0.00098584 Ry

     total charge of GC-SCF    =      -2.85676636 e
     the Fermi energy          =      -2.37184732 eV
                        (error :       0.96784732 eV)
     electrostatic embedding   =      -1.15161866 Ry
     cavitation energy         =       0.02286878 Ry
     electrolyte free energy   =      -0.00832307 Ry
     correction to one-el term =      69.10295008 Ry

     iteration # 17     ecut=    80.00 Ry     beta= 0.20
     Davidson diagonalization with overlap

---- Real-time Memory Report at c_bands before calling an iterative solver
           458 MiB given to the printing process from OS
             0 MiB allocation reported by mallinfo(arena+hblkhd)
        473290 MiB available memory on the node where the printing process lives
------------------
     ethr =  1.32E-06,  avg # of iterations =  9.6

     negative rho (up, down):  4.692E-04 0.000E+00

     add environment contribution to local potential

     total cpu time spent up to now is      358.1 secs

     total energy              =    -361.01823485 Ry
     estimated scf accuracy    <       0.00081792 Ry

     total charge of GC-SCF    =      -3.06163632 e
     the Fermi energy          =      -2.17845448 eV
                        (error :       0.77445448 eV)
     electrostatic embedding   =      -1.74213318 Ry
     cavitation energy         =       0.02286878 Ry
     electrolyte free energy   =      -0.01516273 Ry
     correction to one-el term =      86.41981330 Ry

     iteration # 18     ecut=    80.00 Ry     beta= 0.20
     Davidson diagonalization with overlap

---- Real-time Memory Report at c_bands before calling an iterative solver
           458 MiB given to the printing process from OS
             0 MiB allocation reported by mallinfo(arena+hblkhd)
        473256 MiB available memory on the node where the printing process lives
------------------
     ethr =  1.09E-06,  avg # of iterations =  6.8

     negative rho (up, down):  3.787E-04 0.000E+00

     add environment contribution to local potential

     total cpu time spent up to now is      373.9 secs

     total energy              =    -361.01543985 Ry
     estimated scf accuracy    <       0.00062973 Ry

     total charge of GC-SCF    =      -3.46231272 e
     the Fermi energy          =      -2.14667420 eV
                        (error :       0.74267420 eV)
     electrostatic embedding   =      -1.98540991 Ry
     cavitation energy         =       0.02286878 Ry
     electrolyte free energy   =      -0.01837191 Ry
     correction to one-el term =      92.52667650 Ry

     iteration # 19     ecut=    80.00 Ry     beta= 0.20
     Davidson diagonalization with overlap

---- Real-time Memory Report at c_bands before calling an iterative solver
           458 MiB given to the printing process from OS
             0 MiB allocation reported by mallinfo(arena+hblkhd)
        473258 MiB available memory on the node where the printing process lives
------------------
     ethr =  8.34E-07,  avg # of iterations =  8.4

     negative rho (up, down):  4.699E-04 0.000E+00

     add environment contribution to local potential

     total cpu time spent up to now is      392.9 secs

     total energy              =    -361.18128671 Ry
     estimated scf accuracy    <       0.00037279 Ry

     total charge of GC-SCF    =      -4.79024689 e
     the Fermi energy          =      -2.07466072 eV
                        (error :       0.67066072 eV)
     electrostatic embedding   =      -2.49510862 Ry
     cavitation energy         =       0.02286878 Ry
     electrolyte free energy   =      -0.02601150 Ry
     correction to one-el term =     104.10578499 Ry

     iteration # 20     ecut=    80.00 Ry     beta= 0.20
     Davidson diagonalization with overlap

---- Real-time Memory Report at c_bands before calling an iterative solver
           458 MiB given to the printing process from OS
             0 MiB allocation reported by mallinfo(arena+hblkhd)
        473255 MiB available memory on the node where the printing process lives
------------------
     ethr =  4.85E-07,  avg # of iterations = 17.3

     negative rho (up, down):  4.435E-04 0.000E+00

     add environment contribution to local potential

     total cpu time spent up to now is      417.3 secs

     total energy              =    -361.11519914 Ry
     estimated scf accuracy    <       0.00019272 Ry

     total charge of GC-SCF    =      -5.06014326 e
     the Fermi energy          =      -1.69823345 eV
                        (error :       0.29423345 eV)
     electrostatic embedding   =      -4.61833475 Ry
     cavitation energy         =       0.02286878 Ry
     electrolyte free energy   =      -0.06819169 Ry
     correction to one-el term =     143.87422653 Ry

     iteration # 21     ecut=    80.00 Ry     beta= 0.20
     Davidson diagonalization with overlap

---- Real-time Memory Report at c_bands before calling an iterative solver
           458 MiB given to the printing process from OS
             0 MiB allocation reported by mallinfo(arena+hblkhd)
        473252 MiB available memory on the node where the printing process lives
------------------
     ethr =  2.50E-07,  avg # of iterations = 12.1

     negative rho (up, down):  4.127E-04 0.000E+00

     add environment contribution to local potential

     total cpu time spent up to now is      438.8 secs

     total energy              =    -361.12939873 Ry
     estimated scf accuracy    <       0.00022957 Ry

     total charge of GC-SCF    =      -4.92637996 e
     the Fermi energy          =      -1.59967101 eV
                        (error :       0.19567101 eV)
     electrostatic embedding   =      -5.12898080 Ry
     cavitation energy         =       0.02286878 Ry
     electrolyte free energy   =      -0.08056662 Ry
     correction to one-el term =     152.10309391 Ry

     iteration # 22     ecut=    80.00 Ry     beta= 0.20
     Davidson diagonalization with overlap

---- Real-time Memory Report at c_bands before calling an iterative solver
           458 MiB given to the printing process from OS
             0 MiB allocation reported by mallinfo(arena+hblkhd)
        473257 MiB available memory on the node where the printing process lives
------------------
     ethr =  2.50E-07,  avg # of iterations =  8.8

     negative rho (up, down):  3.408E-04 0.000E+00

     add environment contribution to local potential

     total cpu time spent up to now is      457.6 secs

     total energy              =    -361.12366773 Ry
     estimated scf accuracy    <       0.00011886 Ry

     total charge of GC-SCF    =      -4.85849129 e
     the Fermi energy          =      -1.66858790 eV
                        (error :       0.26458790 eV)
     electrostatic embedding   =      -4.84495869 Ry
     cavitation energy         =       0.02286878 Ry
     electrolyte free energy   =      -0.07401644 Ry
     correction to one-el term =     147.19050707 Ry

     iteration # 23     ecut=    80.00 Ry     beta= 0.20
     Davidson diagonalization with overlap

---- Real-time Memory Report at c_bands before calling an iterative solver
           458 MiB given to the printing process from OS
             0 MiB allocation reported by mallinfo(arena+hblkhd)
        473258 MiB available memory on the node where the printing process lives
------------------
     ethr =  1.55E-07,  avg # of iterations =  7.3

     negative rho (up, down):  3.471E-04 0.000E+00

     add environment contribution to local potential

     total cpu time spent up to now is      475.3 secs

     total energy              =    -361.11685917 Ry
     estimated scf accuracy    <       0.00011291 Ry

     total charge of GC-SCF    =      -5.11578931 e
     the Fermi energy          =      -1.65682222 eV
                        (error :       0.25282222 eV)
     electrostatic embedding   =      -4.72332047 Ry
     cavitation energy         =       0.02286878 Ry
     electrolyte free energy   =      -0.07109712 Ry
     correction to one-el term =     145.38246443 Ry

     iteration # 24     ecut=    80.00 Ry     beta= 0.20
     Davidson diagonalization with overlap

---- Real-time Memory Report at c_bands before calling an iterative solver
           458 MiB given to the printing process from OS
             0 MiB allocation reported by mallinfo(arena+hblkhd)
        473260 MiB available memory on the node where the printing process lives
------------------
     ethr =  1.46E-07,  avg # of iterations = 14.1

     negative rho (up, down):  3.325E-04 0.000E+00

     add environment contribution to local potential

     total cpu time spent up to now is      498.4 secs

     total energy              =    -361.12069851 Ry
     estimated scf accuracy    <       0.00004950 Ry

     total charge of GC-SCF    =      -5.28747705 e
     the Fermi energy          =      -1.59552601 eV
                        (error :       0.19152601 eV)
     electrostatic embedding   =      -5.18859622 Ry
     cavitation energy         =       0.02286878 Ry
     electrolyte free energy   =      -0.08300590 Ry
     correction to one-el term =     152.47466476 Ry

     iteration # 25     ecut=    80.00 Ry     beta= 0.20
     Davidson diagonalization with overlap

---- Real-time Memory Report at c_bands before calling an iterative solver
           458 MiB given to the printing process from OS
             0 MiB allocation reported by mallinfo(arena+hblkhd)
        473262 MiB available memory on the node where the printing process lives
------------------
     ethr =  6.40E-08,  avg # of iterations = 10.8

     negative rho (up, down):  3.165E-04 0.000E+00

     add environment contribution to local potential

     total cpu time spent up to now is      519.5 secs

     total energy              =    -361.12502623 Ry
     estimated scf accuracy    <       0.00002177 Ry

     total charge of GC-SCF    =      -5.48868029 e
     the Fermi energy          =      -1.55088706 eV
                        (error :       0.14688706 eV)
     electrostatic embedding   =      -5.49838764 Ry
     cavitation energy         =       0.02286878 Ry
     electrolyte free energy   =      -0.09171808 Ry
     correction to one-el term =     156.91874302 Ry

     iteration # 26     ecut=    80.00 Ry     beta= 0.20
     Davidson diagonalization with overlap

---- Real-time Memory Report at c_bands before calling an iterative solver
           458 MiB given to the printing process from OS
             0 MiB allocation reported by mallinfo(arena+hblkhd)
        473256 MiB available memory on the node where the printing process lives
------------------
     ethr =  2.81E-08,  avg # of iterations = 18.4

     negative rho (up, down):  2.956E-04 0.000E+00

     add environment contribution to local potential

     total cpu time spent up to now is      545.2 secs

     total energy              =    -361.12582740 Ry
     estimated scf accuracy    <       0.00001425 Ry

     total charge of GC-SCF    =      -5.61613716 e
     the Fermi energy          =      -1.49056467 eV
                        (error :       0.08656467 eV)
     electrostatic embedding   =      -5.87879997 Ry
     cavitation energy         =       0.02286878 Ry
     electrolyte free energy   =      -0.10290745 Ry
     correction to one-el term =     162.31861843 Ry

     iteration # 27     ecut=    80.00 Ry     beta= 0.20
     Davidson diagonalization with overlap

---- Real-time Memory Report at c_bands before calling an iterative solver
           458 MiB given to the printing process from OS
             0 MiB allocation reported by mallinfo(arena+hblkhd)
        473261 MiB available memory on the node where the printing process lives
------------------
     c_bands:  1 eigenvalues not converged
     ethr =  1.84E-08,  avg # of iterations = 29.1

     negative rho (up, down):  2.927E-04 0.000E+00

     add environment contribution to local potential

     total cpu time spent up to now is      576.0 secs

     total energy              =    -361.12574575 Ry
     estimated scf accuracy    <       0.00000720 Ry

     total charge of GC-SCF    =      -5.66520306 e
     the Fermi energy          =      -1.45997906 eV
                        (error :       0.05597906 eV)
     electrostatic embedding   =      -6.11637891 Ry
     cavitation energy         =       0.02286878 Ry
     electrolyte free energy   =      -0.11053527 Ry
     correction to one-el term =     165.53267234 Ry

     iteration # 28     ecut=    80.00 Ry     beta= 0.20
     Davidson diagonalization with overlap

---- Real-time Memory Report at c_bands before calling an iterative solver
           458 MiB given to the printing process from OS
             0 MiB allocation reported by mallinfo(arena+hblkhd)
        473253 MiB available memory on the node where the printing process lives
------------------
     ethr =  9.27E-09,  avg # of iterations = 14.0

     negative rho (up, down):  2.903E-04 0.000E+00

     add environment contribution to local potential

     total cpu time spent up to now is      599.8 secs

     total energy              =    -361.12625884 Ry
     estimated scf accuracy    <       0.00000519 Ry

     total charge of GC-SCF    =      -5.73981989 e
     the Fermi energy          =      -1.44387784 eV
                        (error :       0.03987784 eV)
     electrostatic embedding   =      -6.20285332 Ry
     cavitation energy         =       0.02286878 Ry
     electrolyte free energy   =      -0.11360046 Ry
     correction to one-el term =     166.64301285 Ry

     iteration # 29     ecut=    80.00 Ry     beta= 0.20
     Davidson diagonalization with overlap

---- Real-time Memory Report at c_bands before calling an iterative solver
           458 MiB given to the printing process from OS
             0 MiB allocation reported by mallinfo(arena+hblkhd)
        473253 MiB available memory on the node where the printing process lives
------------------
     ethr =  6.68E-09,  avg # of iterations = 15.6

     negative rho (up, down):  2.826E-04 0.000E+00

     add environment contribution to local potential

     total cpu time spent up to now is      623.6 secs

     total energy              =    -361.12609972 Ry
     estimated scf accuracy    <       0.00000301 Ry

     total charge of GC-SCF    =      -5.75731277 e
     the Fermi energy          =      -1.42829444 eV
                        (error :       0.02429444 eV)
     electrostatic embedding   =      -6.33620599 Ry
     cavitation energy         =       0.02286878 Ry
     electrolyte free energy   =      -0.11841329 Ry
     correction to one-el term =     168.32132981 Ry

     iteration # 30     ecut=    80.00 Ry     beta= 0.20
     Davidson diagonalization with overlap

---- Real-time Memory Report at c_bands before calling an iterative solver
           458 MiB given to the printing process from OS
             0 MiB allocation reported by mallinfo(arena+hblkhd)
        473226 MiB available memory on the node where the printing process lives
------------------
     ethr =  3.87E-09,  avg # of iterations = 10.9

     negative rho (up, down):  2.791E-04 0.000E+00

     add environment contribution to local potential

     total cpu time spent up to now is      645.2 secs

     total energy              =    -361.12620830 Ry
     estimated scf accuracy    <       0.00000200 Ry

     total charge of GC-SCF    =      -5.79503462 e
     the Fermi energy          =      -1.42340614 eV
                        (error :       0.01940614 eV)
     electrostatic embedding   =      -6.36517935 Ry
     cavitation energy         =       0.02286878 Ry
     electrolyte free energy   =      -0.11957015 Ry
     correction to one-el term =     168.67775471 Ry

     iteration # 31     ecut=    80.00 Ry     beta= 0.20
     Davidson diagonalization with overlap

---- Real-time Memory Report at c_bands before calling an iterative solver
           458 MiB given to the printing process from OS
             0 MiB allocation reported by mallinfo(arena+hblkhd)
        473233 MiB available memory on the node where the printing process lives
------------------
     ethr =  2.57E-09,  avg # of iterations =  9.7

     negative rho (up, down):  2.766E-04 0.000E+00

     add environment contribution to local potential

     total cpu time spent up to now is      665.7 secs

     total energy              =    -361.12611560 Ry
     estimated scf accuracy    <       0.00000124 Ry

     total charge of GC-SCF    =      -5.80757081 e
     the Fermi energy          =      -1.40950580 eV
                        (error :       0.00550580 eV)
     electrostatic embedding   =      -6.43834844 Ry
     cavitation energy         =       0.02286878 Ry
     electrolyte free energy   =      -0.12214589 Ry
     correction to one-el term =     169.66333675 Ry

     iteration # 32     ecut=    80.00 Ry     beta= 0.20
     Davidson diagonalization with overlap

---- Real-time Memory Report at c_bands before calling an iterative solver
           458 MiB given to the printing process from OS
             0 MiB allocation reported by mallinfo(arena+hblkhd)
        473205 MiB available memory on the node where the printing process lives
------------------
     ethr =  1.60E-09,  avg # of iterations = 11.9

     negative rho (up, down):  2.756E-04 0.000E+00

     add environment contribution to local potential

     total cpu time spent up to now is      687.3 secs

     total energy              =    -361.12611912 Ry
     estimated scf accuracy    <       0.00000051 Ry

     total charge of GC-SCF    =      -5.81576989 e
     the Fermi energy          =      -1.40969254 eV
                        (error :       0.00569254 eV)
     electrostatic embedding   =      -6.45711592 Ry
     cavitation energy         =       0.02286878 Ry
     electrolyte free energy   =      -0.12298865 Ry
     correction to one-el term =     169.85713940 Ry

     iteration # 33     ecut=    80.00 Ry     beta= 0.20
     Davidson diagonalization with overlap

---- Real-time Memory Report at c_bands before calling an iterative solver
           458 MiB given to the printing process from OS
             0 MiB allocation reported by mallinfo(arena+hblkhd)
        473219 MiB available memory on the node where the printing process lives
------------------
     ethr =  6.58E-10,  avg # of iterations =  8.6

     negative rho (up, down):  2.741E-04 0.000E+00

     add environment contribution to local potential

     total cpu time spent up to now is      707.3 secs

     total energy              =    -361.12618052 Ry
     estimated scf accuracy    <       0.00000031 Ry

     total charge of GC-SCF    =      -5.83846550 e
     the Fermi energy          =      -1.40612323 eV
                        (error :       0.00212323 eV)
     electrostatic embedding   =      -6.47516473 Ry
     cavitation energy         =       0.02286878 Ry
     electrolyte free energy   =      -0.12356986 Ry
     correction to one-el term =     170.11698340 Ry

     iteration # 34     ecut=    80.00 Ry     beta= 0.20
     Davidson diagonalization with overlap

---- Real-time Memory Report at c_bands before calling an iterative solver
           458 MiB given to the printing process from OS
             0 MiB allocation reported by mallinfo(arena+hblkhd)
        473236 MiB available memory on the node where the printing process lives
------------------
     ethr =  4.00E-10,  avg # of iterations = 11.7

     negative rho (up, down):  2.739E-04 0.000E+00

     add environment contribution to local potential

     total cpu time spent up to now is      728.6 secs

     total energy              =    -361.12608397 Ry
     estimated scf accuracy    <       0.00000017 Ry

     total charge of GC-SCF    =      -5.84095066 e
     the Fermi energy          =      -1.39930765 eV
                        (error :       0.00469235 eV)
     electrostatic embedding   =      -6.52081365 Ry
     cavitation energy         =       0.02286878 Ry
     electrolyte free energy   =      -0.12517457 Ry
     correction to one-el term =     170.73055671 Ry

     iteration # 35     ecut=    80.00 Ry     beta= 0.20
     Davidson diagonalization with overlap

---- Real-time Memory Report at c_bands before calling an iterative solver
           458 MiB given to the printing process from OS
             0 MiB allocation reported by mallinfo(arena+hblkhd)
        473247 MiB available memory on the node where the printing process lives
------------------
     ethr =  2.23E-10,  avg # of iterations =  9.0

     negative rho (up, down):  2.745E-04 0.000E+00

     add environment contribution to local potential

     total cpu time spent up to now is      747.6 secs

     total energy              =    -361.12609522 Ry
     estimated scf accuracy    <       0.00000012 Ry

     total charge of GC-SCF    =      -5.82523050 e
     the Fermi energy          =      -1.39834413 eV
                        (error :       0.00565587 eV)
     electrostatic embedding   =      -6.52624702 Ry
     cavitation energy         =       0.02286878 Ry
     electrolyte free energy   =      -0.12535413 Ry
     correction to one-el term =     170.80797449 Ry

     iteration # 36     ecut=    80.00 Ry     beta= 0.20
     Davidson diagonalization with overlap

---- Real-time Memory Report at c_bands before calling an iterative solver
           458 MiB given to the printing process from OS
             0 MiB allocation reported by mallinfo(arena+hblkhd)
        473253 MiB available memory on the node where the printing process lives
------------------
     ethr =  1.57E-10,  avg # of iterations = 10.7

     negative rho (up, down):  2.747E-04 0.000E+00

     add environment contribution to local potential

     total cpu time spent up to now is      768.3 secs

     total energy              =    -361.12609517 Ry
     estimated scf accuracy    <       0.00000005 Ry

     total charge of GC-SCF    =      -5.82299791 e
     the Fermi energy          =      -1.40277358 eV
                        (error :       0.00122642 eV)
     electrostatic embedding   =      -6.49537251 Ry
     cavitation energy         =       0.02286878 Ry
     electrolyte free energy   =      -0.12424262 Ry
     correction to one-el term =     170.40245047 Ry

     iteration # 37     ecut=    80.00 Ry     beta= 0.20
     Davidson diagonalization with overlap

---- Real-time Memory Report at c_bands before calling an iterative solver
           458 MiB given to the printing process from OS
             0 MiB allocation reported by mallinfo(arena+hblkhd)
        473260 MiB available memory on the node where the printing process lives
------------------
     ethr =  6.77E-11,  avg # of iterations =  9.2

     negative rho (up, down):  2.737E-04 0.000E+00

     total cpu time spent up to now is      777.8 secs

     End of self-consistent calculation

          k = 0.0000 0.0000 0.0000 (221585 PWs)   bands (ev):

   -48.2394 -48.2375 -48.2373 -48.2368 -48.2312 -48.2291 -48.2291 -48.2285
   -47.9912 -47.9876 -47.9875 -47.9872 -47.9831 -47.9795 -47.9794 -47.9791
   -47.8448 -47.8385 -47.8385 -47.8320 -47.8307 -47.8303 -47.8302 -47.8299
    -4.8289  -4.2750  -3.6393  -3.6391  -3.5056  -3.0262  -3.0261  -2.6669
    -2.1500  -2.1494  -1.7305  -1.7269  -1.3110  -1.3109  -1.2649  -1.0955
    -1.0904  -0.9870  -0.7182  -0.7178  -0.6746  -0.6732  -0.6053  -0.5786
    -0.5782  -0.0840  -0.0678   0.0889   0.1111   0.1595

     occupation numbers 
     1.0000   1.0000   1.0000   1.0000   1.0000   1.0000   1.0000   1.0000
     1.0000   1.0000   1.0000   1.0000   1.0000   1.0000   1.0000   1.0000
     1.0000   1.0000   1.0000   1.0000   1.0000   1.0000   1.0000   1.0000
     1.0000   1.0000   1.0000   1.0000   1.0000   1.0000   1.0000   1.0000
     1.0000   1.0000   1.0143   1.0155   0.0829   0.0826   0.0275   0.0001
     0.0001   0.0000   0.0000   0.0000   0.0000   0.0000   0.0000   0.0000
     0.0000   0.0000   0.0000   0.0000   0.0000   0.0000

          k = 0.0000 0.0875 0.0000 (221558 PWs)   bands (ev):

   -48.2394 -48.2375 -48.2373 -48.2368 -48.2312 -48.2291 -48.2291 -48.2285
   -47.9912 -47.9876 -47.9875 -47.9872 -47.9831 -47.9795 -47.9794 -47.9791
   -47.8447 -47.8399 -47.8371 -47.8321 -47.8307 -47.8303 -47.8302 -47.8299
    -4.8045  -4.2491  -3.9533  -3.4774  -3.3524  -3.2796  -2.6831  -2.6397
    -2.4584  -1.8629  -1.7069  -1.7033  -1.5173  -1.2432  -1.1436  -1.0787
    -1.0737  -1.0199  -0.9266  -0.9238  -0.6965  -0.6956  -0.5826  -0.3637
    -0.3596  -0.3062  -0.0337  -0.0109   0.1341   0.1420

     occupation numbers 
     1.0000   1.0000   1.0000   1.0000   1.0000   1.0000   1.0000   1.0000
     1.0000   1.0000   1.0000   1.0000   1.0000   1.0000   1.0000   1.0000
     1.0000   1.0000   1.0000   1.0000   1.0000   1.0000   1.0000   1.0000
     1.0000   1.0000   1.0000   1.0000   1.0000   1.0000   1.0000   1.0000
     1.0000   1.0002   1.0237   1.0254   0.9643   0.0152   0.0005   0.0000
     0.0000   0.0000   0.0000   0.0000   0.0000   0.0000   0.0000   0.0000
     0.0000   0.0000   0.0000   0.0000   0.0000   0.0000

          k = 0.0000 0.1750 0.0000 (221554 PWs)   bands (ev):

   -48.2394 -48.2375 -48.2373 -48.2368 -48.2312 -48.2291 -48.2291 -48.2285
   -47.9912 -47.9876 -47.9875 -47.9872 -47.9831 -47.9795 -47.9794 -47.9791
   -47.8442 -47.8413 -47.8357 -47.8326 -47.8307 -47.8303 -47.8303 -47.8299
    -4.7314  -4.2202  -4.1715  -3.6318  -3.3931  -2.8795  -2.8156  -2.5588
    -2.2067  -1.9997  -1.6365  -1.6329  -1.5158  -1.2253  -1.1861  -1.1602
    -1.1571  -1.0298  -1.0249  -0.8687  -0.7684  -0.7658  -0.7377  -0.5246
    -0.0970  -0.0926   0.0038   0.0621   0.1574   0.2160

     occupation numbers 
     1.0000   1.0000   1.0000   1.0000   1.0000   1.0000   1.0000   1.0000
     1.0000   1.0000   1.0000   1.0000   1.0000   1.0000   1.0000   1.0000
     1.0000   1.0000   1.0000   1.0000   1.0000   1.0000   1.0000   1.0000
     1.0000   1.0000   1.0000   1.0000   1.0000   1.0000   1.0000   1.0000
     1.0000   1.0000   1.0677   1.0700   0.9594   0.0089   0.0025   0.0010
     0.0009   0.0000   0.0000   0.0000   0.0000   0.0000   0.0000   0.0000
     0.0000   0.0000   0.0000   0.0000   0.0000   0.0000

          k = 0.0000 0.2624 0.0000 (221568 PWs)   bands (ev):

   -48.2394 -48.2374 -48.2374 -48.2368 -48.2312 -48.2291 -48.2291 -48.2285
   -47.9912 -47.9876 -47.9875 -47.9872 -47.9831 -47.9795 -47.9794 -47.9791
   -47.8435 -47.8425 -47.8345 -47.8334 -47.8307 -47.8303 -47.8303 -47.8299
    -4.6096  -4.4391  -4.0424  -3.8623  -3.2531  -3.0588  -2.4569  -2.4288
    -2.2093  -1.9630  -1.7564  -1.5203  -1.5168  -1.3604  -1.3570  -1.2951
    -1.0184  -0.9543  -0.9498  -0.9237  -0.8617  -0.8579  -0.7925  -0.5095
    -0.0014   0.0496   0.1276   0.1326   0.2143   0.2172

     occupation numbers 
     1.0000   1.0000   1.0000   1.0000   1.0000   1.0000   1.0000   1.0000
     1.0000   1.0000   1.0000   1.0000   1.0000   1.0000   1.0000   1.0000
     1.0000   1.0000   1.0000   1.0000   1.0000   1.0000   1.0000   1.0000
     1.0000   1.0000   1.0000   1.0000   1.0000   1.0000   1.0000   1.0000
     1.0000   1.0000   1.0076   0.9742   0.9628   0.2130   0.2013   0.0580
     0.0000   0.0000   0.0000   0.0000   0.0000   0.0000   0.0000   0.0000
     0.0000   0.0000   0.0000   0.0000   0.0000   0.0000

          k = 0.0909 0.0000 0.0000 (221718 PWs)   bands (ev):

   -48.2393 -48.2373 -48.2371 -48.2366 -48.2313 -48.2293 -48.2293 -48.2287
   -47.9911 -47.9874 -47.9874 -47.9870 -47.9833 -47.9797 -47.9795 -47.9792
   -47.8446 -47.8384 -47.8383 -47.8319 -47.8314 -47.8305 -47.8305 -47.8294
    -4.8025  -4.2468  -3.6122  -3.6121  -3.4743  -2.9977  -2.9977  -2.6343
    -2.2269  -2.1191  -2.1184  -1.6612  -1.2769  -1.2768  -1.2341  -1.1141
    -1.1136  -1.0550  -0.9527  -0.9088  -0.7244  -0.7238  -0.5712  -0.3298
    -0.3296  -0.0497  -0.0328   0.1231   0.1461   0.1515

     occupation numbers 
     1.0000   1.0000   1.0000   1.0000   1.0000   1.0000   1.0000   1.0000
     1.0000   1.0000   1.0000   1.0000   1.0000   1.0000   1.0000   1.0000
     1.0000   1.0000   1.0000   1.0000   1.0000   1.0000   1.0000   1.0000
     1.0000   1.0000   1.0000   1.0000   1.0000   1.0000   1.0000   1.0000
     1.0000   1.0000   1.0000   1.0510   0.0375   0.0373   0.0117   0.0002
     0.0002   0.0000   0.0000   0.0000   0.0000   0.0000   0.0000   0.0000
     0.0000   0.0000   0.0000   0.0000   0.0000   0.0000

          k = 0.0909 0.0875 0.0000 (221669 PWs)   bands (ev):

   -48.2393 -48.2373 -48.2371 -48.2366 -48.2313 -48.2293 -48.2293 -48.2287
   -47.9911 -47.9874 -47.9874 -47.9870 -47.9833 -47.9797 -47.9795 -47.9792
   -47.8444 -47.8398 -47.8369 -47.8320 -47.8314 -47.8307 -47.8303 -47.8294
    -4.7781  -4.2209  -3.9264  -3.4461  -3.3243  -3.2521  -2.6530  -2.6071
    -2.4292  -2.2032  -1.8301  -1.6388  -1.4853  -1.3940  -1.2125  -1.1105
    -1.0349  -0.9853  -0.9725  -0.8902  -0.7248  -0.6178  -0.5484  -0.4648
    -0.2732  -0.1927   0.0014   0.0198   0.1525   0.1684

     occupation numbers 
     1.0000   1.0000   1.0000   1.0000   1.0000   1.0000   1.0000   1.0000
     1.0000   1.0000   1.0000   1.0000   1.0000   1.0000   1.0000   1.0000
     1.0000   1.0000   1.0000   1.0000   1.0000   1.0000   1.0000   1.0000
     1.0000   1.0000   1.0000   1.0000   1.0000   1.0000   1.0000   1.0000
     1.0000   1.0000   1.0008   1.0663   0.8344   0.3534   0.0060   0.0001
     0.0000   0.0000   0.0000   0.0000   0.0000   0.0000   0.0000   0.0000
     0.0000   0.0000   0.0000   0.0000   0.0000   0.0000

          k = 0.0909 0.1750 0.0000 (221668 PWs)   bands (ev):

   -48.2393 -48.2373 -48.2372 -48.2366 -48.2313 -48.2293 -48.2293 -48.2287
   -47.9911 -47.9874 -47.9874 -47.9870 -47.9833 -47.9796 -47.9796 -47.9792
   -47.8440 -47.8411 -47.8356 -47.8325 -47.8314 -47.8308 -47.8301 -47.8295
    -4.7050  -4.1935  -4.1433  -3.6037  -3.3618  -2.8516  -2.7840  -2.5260
    -2.1788  -2.1323  -1.9661  -1.6432  -1.5721  -1.4848  -1.1943  -1.1555
    -1.1413  -0.9757  -0.8372  -0.8350  -0.7065  -0.6200  -0.6080  -0.4901
    -0.3875  -0.0499   0.0358   0.0971   0.1502   0.1913

     occupation numbers 
     1.0000   1.0000   1.0000   1.0000   1.0000   1.0000   1.0000   1.0000
     1.0000   1.0000   1.0000   1.0000   1.0000   1.0000   1.0000   1.0000
     1.0000   1.0000   1.0000   1.0000   1.0000   1.0000   1.0000   1.0000
     1.0000   1.0000   1.0000   1.0000   1.0000   1.0000   1.0000   1.0000
     1.0000   1.0000   1.0000   1.0634   1.0745   0.8316   0.0033   0.0008
     0.0005   0.0000   0.0000   0.0000   0.0000   0.0000   0.0000   0.0000
     0.0000   0.0000   0.0000   0.0000   0.0000   0.0000

          k = 0.0909 0.2624 0.0000 (221625 PWs)   bands (ev):

   -48.2393 -48.2373 -48.2372 -48.2366 -48.2313 -48.2293 -48.2293 -48.2287
   -47.9911 -47.9874 -47.9874 -47.9870 -47.9833 -47.9796 -47.9796 -47.9792
   -47.8433 -47.8422 -47.8344 -47.8332 -47.8313 -47.8309 -47.8300 -47.8296
    -4.5831  -4.4125  -4.0142  -3.8341  -3.2218  -3.0275  -2.4278  -2.3958
    -2.1767  -2.0146  -1.9335  -1.8510  -1.7280  -1.4632  -1.3165  -1.2660
    -0.9866  -0.8915  -0.8812  -0.7605  -0.7598  -0.7565  -0.6709  -0.4750
    -0.0269   0.0312   0.0650   0.0804   0.1284   0.2493

     occupation numbers 
     1.0000   1.0000   1.0000   1.0000   1.0000   1.0000   1.0000   1.0000
     1.0000   1.0000   1.0000   1.0000   1.0000   1.0000   1.0000   1.0000
     1.0000   1.0000   1.0000   1.0000   1.0000   1.0000   1.0000   1.0000
     1.0000   1.0000   1.0000   1.0000   1.0000   1.0000   1.0000   1.0000
     1.0000   1.0000   1.0000   1.0004   1.0151   0.7225   0.0932   0.0283
     0.0000   0.0000   0.0000   0.0000   0.0000   0.0000   0.0000   0.0000
     0.0000   0.0000   0.0000   0.0000   0.0000   0.0000

          k = 0.1818 0.0000 0.0000 (221744 PWs)   bands (ev):

   -48.2388 -48.2368 -48.2366 -48.2361 -48.2318 -48.2298 -48.2298 -48.2292
   -47.9906 -47.9869 -47.9869 -47.9865 -47.9837 -47.9801 -47.9800 -47.9797
   -47.8439 -47.8379 -47.8378 -47.8327 -47.8317 -47.8310 -47.8309 -47.8290
    -4.7233  -4.1623  -3.5312  -3.5310  -3.3806  -2.9127  -2.9127  -2.7098
    -2.5367  -2.0915  -2.0265  -2.0258  -1.5500  -1.5496  -1.1748  -1.1747
    -1.1712  -1.1421  -1.0054  -1.0051  -0.8496  -0.6269  -0.4691  -0.2171
    -0.2169   0.0533   0.0722   0.2257   0.2512   0.2857

     occupation numbers 
     1.0000   1.0000   1.0000   1.0000   1.0000   1.0000   1.0000   1.0000
     1.0000   1.0000   1.0000   1.0000   1.0000   1.0000   1.0000   1.0000
     1.0000   1.0000   1.0000   1.0000   1.0000   1.0000   1.0000   1.0000
     1.0000   1.0000   1.0000   1.0000   1.0000   1.0000   1.0000   1.0000
     1.0000   1.0000   1.0000   1.0000   1.0472   1.0463   0.0017   0.0017
     0.0015   0.0005   0.0000   0.0000   0.0000   0.0000   0.0000   0.0000
     0.0000   0.0000   0.0000   0.0000   0.0000   0.0000

          k = 0.1818 0.0875 0.0000 (221735 PWs)   bands (ev):

   -48.2388 -48.2368 -48.2367 -48.2361 -48.2318 -48.2298 -48.2298 -48.2292
   -47.9906 -47.9869 -47.9869 -47.9865 -47.9837 -47.9801 -47.9800 -47.9797
   -47.8438 -47.8392 -47.8365 -47.8327 -47.8318 -47.8313 -47.8306 -47.8291
    -4.6989  -4.1364  -3.8460  -3.3525  -3.2405  -3.1694  -2.6858  -2.5631
    -2.5093  -2.3418  -2.0682  -1.8514  -1.7321  -1.3897  -1.3276  -1.1476
    -1.1393  -1.1205  -1.0112  -0.8814  -0.7554  -0.6018  -0.4460  -0.3335
    -0.1747  -0.1456   0.1065   0.1113   0.2711   0.2822

     occupation numbers 
     1.0000   1.0000   1.0000   1.0000   1.0000   1.0000   1.0000   1.0000
     1.0000   1.0000   1.0000   1.0000   1.0000   1.0000   1.0000   1.0000
     1.0000   1.0000   1.0000   1.0000   1.0000   1.0000   1.0000   1.0000
     1.0000   1.0000   1.0000   1.0000   1.0000   1.0000   1.0000   1.0000
     1.0000   1.0000   1.0000   1.0004   1.0138   0.3330   0.1170   0.0006
     0.0004   0.0002   0.0000   0.0000   0.0000   0.0000   0.0000   0.0000
     0.0000   0.0000   0.0000   0.0000   0.0000   0.0000

          k = 0.1818 0.1750 0.0000 (221735 PWs)   bands (ev):

   -48.2388 -48.2368 -48.2367 -48.2361 -48.2318 -48.2298 -48.2298 -48.2292
   -47.9906 -47.9869 -47.9869 -47.9865 -47.9837 -47.9801 -47.9800 -47.9797
   -47.8433 -47.8405 -47.8352 -47.8326 -47.8323 -47.8317 -47.8302 -47.8292
    -4.6257  -4.1135  -4.0589  -3.5195  -3.2681  -2.7679  -2.6894  -2.6137
    -2.4279  -2.1116  -2.0956  -1.9985  -1.8655  -1.5282  -1.3918  -1.1017
    -1.0774  -1.0639  -0.7829  -0.7342  -0.6881  -0.6130  -0.5288  -0.3868
    -0.2837  -0.1744   0.1318   0.2022   0.2929   0.3382

     occupation numbers 
     1.0000   1.0000   1.0000   1.0000   1.0000   1.0000   1.0000   1.0000
     1.0000   1.0000   1.0000   1.0000   1.0000   1.0000   1.0000   1.0000
     1.0000   1.0000   1.0000   1.0000   1.0000   1.0000   1.0000   1.0000
     1.0000   1.0000   1.0000   1.0000   1.0000   1.0000   1.0000   1.0000
     1.0000   1.0000   1.0000   1.0000   1.0002   0.9978   0.3429   0.0001
     0.0000   0.0000   0.0000   0.0000   0.0000   0.0000   0.0000   0.0000
     0.0000   0.0000   0.0000   0.0000   0.0000   0.0000

          k = 0.1818 0.2624 0.0000 (221799 PWs)   bands (ev):

   -48.2388 -48.2368 -48.2367 -48.2361 -48.2318 -48.2298 -48.2298 -48.2292
   -47.9906 -47.9869 -47.9869 -47.9865 -47.9837 -47.9801 -47.9801 -47.9797
   -47.8427 -47.8416 -47.8340 -47.8329 -47.8324 -47.8320 -47.8299 -47.8294
    -4.5036  -4.3329  -3.9299  -3.7499  -3.1280  -2.9336  -2.4937  -2.3407
    -2.3262  -2.2970  -2.0788  -1.8836  -1.8452  -1.7253  -1.6430  -1.1792
    -0.9653  -0.8916  -0.8222  -0.7951  -0.6647  -0.4166  -0.3718  -0.3620
    -0.2772  -0.0420   0.1012   0.1286   0.1717   0.1845

     occupation numbers 
     1.0000   1.0000   1.0000   1.0000   1.0000   1.0000   1.0000   1.0000
     1.0000   1.0000   1.0000   1.0000   1.0000   1.0000   1.0000   1.0000
     1.0000   1.0000   1.0000   1.0000   1.0000   1.0000   1.0000   1.0000
     1.0000   1.0000   1.0000   1.0000   1.0000   1.0000   1.0000   1.0000
     1.0000   1.0000   1.0000   1.0001   1.0005   1.0161   1.0635   0.0020
     0.0000   0.0000   0.0000   0.0000   0.0000   0.0000   0.0000   0.0000
     0.0000   0.0000   0.0000   0.0000   0.0000   0.0000

          k = 0.2727 0.0000 0.0000 (221756 PWs)   bands (ev):

   -48.2380 -48.2361 -48.2359 -48.2354 -48.2326 -48.2306 -48.2305 -48.2300
   -47.9898 -47.9862 -47.9861 -47.9858 -47.9845 -47.9809 -47.9808 -47.9805
   -47.8429 -47.8372 -47.8371 -47.8343 -47.8319 -47.8318 -47.8310 -47.8289
    -4.5914  -4.0219  -3.3966  -3.3964  -3.2250  -3.1495  -2.7721  -2.7720
    -2.5254  -2.3741  -1.9650  -1.9646  -1.8731  -1.8724  -1.5950  -1.3539
    -1.3537  -1.0048  -1.0047  -0.9892  -0.7039  -0.6779  -0.4025  -0.4021
    -0.2993   0.2249   0.2472   0.3965   0.4264   0.4413

     occupation numbers 
     1.0000   1.0000   1.0000   1.0000   1.0000   1.0000   1.0000   1.0000
     1.0000   1.0000   1.0000   1.0000   1.0000   1.0000   1.0000   1.0000
     1.0000   1.0000   1.0000   1.0000   1.0000   1.0000   1.0000   1.0000
     1.0000   1.0000   1.0000   1.0000   1.0000   1.0000   1.0000   1.0000
     1.0000   1.0000   1.0000   1.0000   1.0002   1.0002   1.0833   0.1907
     0.1901   0.0000   0.0000   0.0000   0.0000   0.0000   0.0000   0.0000
     0.0000   0.0000   0.0000   0.0000   0.0000   0.0000

          k = 0.2727 0.0875 0.0000 (221778 PWs)   bands (ev):

   -48.2380 -48.2360 -48.2359 -48.2354 -48.2326 -48.2306 -48.2305 -48.2300
   -47.9898 -47.9862 -47.9861 -47.9858 -47.9845 -47.9809 -47.9808 -47.9805
   -47.8427 -47.8384 -47.8358 -47.8343 -47.8324 -47.8314 -47.8310 -47.8290
    -4.5670  -3.9961  -3.7123  -3.1969  -3.1252  -3.1022  -3.0317  -2.5011
    -2.4152  -2.3465  -2.2764  -2.1963  -1.7016  -1.5695  -1.5688  -1.5554
    -1.2311  -1.0286  -0.9677  -0.8464  -0.7084  -0.6737  -0.6721  -0.2757
    -0.1176  -0.0114   0.2621   0.2816   0.4319   0.4424

     occupation numbers 
     1.0000   1.0000   1.0000   1.0000   1.0000   1.0000   1.0000   1.0000
     1.0000   1.0000   1.0000   1.0000   1.0000   1.0000   1.0000   1.0000
     1.0000   1.0000   1.0000   1.0000   1.0000   1.0000   1.0000   1.0000
     1.0000   1.0000   1.0000   1.0000   1.0000   1.0000   1.0000   1.0000
     1.0000   1.0000   1.0000   1.0000   1.0263   1.0724   1.0717   1.0558
     0.0107   0.0000   0.0000   0.0000   0.0000   0.0000   0.0000   0.0000
     0.0000   0.0000   0.0000   0.0000   0.0000   0.0000

          k = 0.2727 0.1750 0.0000 (221876 PWs)   bands (ev):

   -48.2380 -48.2360 -48.2359 -48.2354 -48.2326 -48.2306 -48.2305 -48.2300
   -47.9898 -47.9862 -47.9861 -47.9858 -47.9845 -47.9809 -47.9808 -47.9805
   -47.8423 -47.8396 -47.8346 -47.8340 -47.8329 -47.8317 -47.8306 -47.8292
    -4.4936  -3.9805  -3.9187  -3.3799  -3.1125  -3.0523  -2.6292  -2.5426
    -2.5327  -2.4284  -2.2644  -1.9581  -1.9274  -1.6979  -1.4906  -1.2378
    -1.1808  -0.9776  -0.9494  -0.9121  -0.6087  -0.5793  -0.5667  -0.4587
    -0.2148   0.0401   0.2000   0.2794   0.2908   0.3773

     occupation numbers 
     1.0000   1.0000   1.0000   1.0000   1.0000   1.0000   1.0000   1.0000
     1.0000   1.0000   1.0000   1.0000   1.0000   1.0000   1.0000   1.0000
     1.0000   1.0000   1.0000   1.0000   1.0000   1.0000   1.0000   1.0000
     1.0000   1.0000   1.0000   1.0000   1.0000   1.0000   1.0000   1.0000
     1.0000   1.0000   1.0000   1.0000   1.0000   1.0282   0.8587   0.0130
     0.0021   0.0000   0.0000   0.0000   0.0000   0.0000   0.0000   0.0000
     0.0000   0.0000   0.0000   0.0000   0.0000   0.0000

          k = 0.2727 0.2624 0.0000 (221844 PWs)   bands (ev):

   -48.2380 -48.2360 -48.2360 -48.2354 -48.2326 -48.2306 -48.2306 -48.2300
   -47.9898 -47.9862 -47.9861 -47.9858 -47.9845 -47.9809 -47.9808 -47.9805
   -47.8417 -47.8407 -47.8339 -47.8334 -47.8333 -47.8323 -47.8301 -47.8295
    -4.3714  -4.2003  -3.7899  -3.6101  -2.9724  -2.9309  -2.7778  -2.7609
    -2.3077  -2.1966  -2.1399  -2.1324  -1.9154  -1.6990  -1.5028  -1.3620
    -1.1866  -1.0362  -0.7338  -0.7315  -0.6351  -0.5071  -0.4266  -0.2352
    -0.2248  -0.2056  -0.2003   0.1647   0.2898   0.3206

     occupation numbers 
     1.0000   1.0000   1.0000   1.0000   1.0000   1.0000   1.0000   1.0000
     1.0000   1.0000   1.0000   1.0000   1.0000   1.0000   1.0000   1.0000
     1.0000   1.0000   1.0000   1.0000   1.0000   1.0000   1.0000   1.0000
     1.0000   1.0000   1.0000   1.0000   1.0000   1.0000   1.0000   1.0000
     1.0000   1.0000   1.0000   1.0000   1.0000   1.0276   0.9108   0.2188
     0.0026   0.0000   0.0000   0.0000   0.0000   0.0000   0.0000   0.0000
     0.0000   0.0000   0.0000   0.0000   0.0000   0.0000

          k = 0.3636 0.0000 0.0000 (221758 PWs)   bands (ev):

   -48.2370 -48.2351 -48.2349 -48.2344 -48.2336 -48.2316 -48.2315 -48.2309
   -47.9889 -47.9854 -47.9852 -47.9852 -47.9848 -47.9819 -47.9818 -47.9814
   -47.8414 -47.8364 -47.8361 -47.8358 -47.8328 -47.8327 -47.8305 -47.8291
    -4.4069  -3.8264  -3.5407  -3.2091  -3.2089  -3.0085  -2.9231  -2.5774
    -2.5774  -2.3444  -2.3441  -2.1471  -2.0171  -1.7084  -1.7083  -1.6607
    -1.6600  -1.1055  -0.7765  -0.7672  -0.7671  -0.7310  -0.7304  -0.4379
    -0.0629   0.1944   0.3386   0.3386   0.4647   0.4921

     occupation numbers 
     1.0000   1.0000   1.0000   1.0000   1.0000   1.0000   1.0000   1.0000
     1.0000   1.0000   1.0000   1.0000   1.0000   1.0000   1.0000   1.0000
     1.0000   1.0000   1.0000   1.0000   1.0000   1.0000   1.0000   1.0000
     1.0000   1.0000   1.0000   1.0000   1.0000   1.0000   1.0000   1.0000
     1.0000   1.0000   1.0000   1.0000   1.0000   1.0230   1.0230   1.0514
     1.0518   0.0001   0.0000   0.0000   0.0000   0.0000   0.0000   0.0000
     0.0000   0.0000   0.0000   0.0000   0.0000   0.0000

          k = 0.3636 0.0875 0.0000 (221868 PWs)   bands (ev):

   -48.2370 -48.2350 -48.2349 -48.2344 -48.2336 -48.2316 -48.2315 -48.2309
   -47.9889 -47.9854 -47.9852 -47.9852 -47.9848 -47.9819 -47.9818 -47.9814
   -47.8413 -47.8374 -47.8361 -47.8349 -47.8335 -47.8320 -47.8306 -47.8292
    -4.3824  -3.8006  -3.5258  -3.5162  -2.9804  -2.9115  -2.8981  -2.8389
    -2.6604  -2.2124  -2.1192  -2.0598  -1.9930  -1.9898  -1.9442  -1.3492
    -1.3437  -1.0755  -1.0564  -1.0110  -0.7552  -0.6171  -0.4664  -0.3751
    -0.0384  -0.0126   0.2102   0.2142   0.4190   0.4687

     occupation numbers 
     1.0000   1.0000   1.0000   1.0000   1.0000   1.0000   1.0000   1.0000
     1.0000   1.0000   1.0000   1.0000   1.0000   1.0000   1.0000   1.0000
     1.0000   1.0000   1.0000   1.0000   1.0000   1.0000   1.0000   1.0000
     1.0000   1.0000   1.0000   1.0000   1.0000   1.0000   1.0000   1.0000
     1.0000   1.0000   1.0000   1.0000   1.0000   1.0000   1.0000   0.1757
     0.1590   0.0000   0.0000   0.0000   0.0000   0.0000   0.0000   0.0000
     0.0000   0.0000   0.0000   0.0000   0.0000   0.0000

          k = 0.3636 0.1750 0.0000 (221891 PWs)   bands (ev):

   -48.2370 -48.2350 -48.2349 -48.2344 -48.2336 -48.2316 -48.2315 -48.2309
   -47.9889 -47.9854 -47.9852 -47.9852 -47.9848 -47.9818 -47.9818 -47.9814
   -47.8409 -47.8385 -47.8358 -47.8342 -47.8337 -47.8314 -47.8309 -47.8294
    -4.3090  -3.7948  -3.7235  -3.4429  -3.1862  -2.9292  -2.8961  -2.8233
    -2.4364  -2.3153  -2.3045  -2.0360  -1.9081  -1.7685  -1.5573  -1.4632
    -1.3481  -1.0246  -0.9857  -0.9380  -0.7413  -0.7014  -0.3631  -0.3335
    -0.2466  -0.0786   0.0254   0.0452   0.2252   0.5113

     occupation numbers 
     1.0000   1.0000   1.0000   1.0000   1.0000   1.0000   1.0000   1.0000
     1.0000   1.0000   1.0000   1.0000   1.0000   1.0000   1.0000   1.0000
     1.0000   1.0000   1.0000   1.0000   1.0000   1.0000   1.0000   1.0000
     1.0000   1.0000   1.0000   1.0000   1.0000   1.0000   1.0000   1.0000
     1.0000   1.0000   1.0000   1.0000   1.0000   1.0055   1.0585   0.7225
     0.1722   0.0000   0.0000   0.0000   0.0000   0.0000   0.0000   0.0000
     0.0000   0.0000   0.0000   0.0000   0.0000   0.0000

          k = 0.3636 0.2624 0.0000 (221911 PWs)   bands (ev):

   -48.2370 -48.2350 -48.2350 -48.2344 -48.2336 -48.2316 -48.2315 -48.2309
   -47.9889 -47.9854 -47.9852 -47.9852 -47.9848 -47.9818 -47.9818 -47.9814
   -47.8403 -47.8394 -47.8355 -47.8348 -47.8327 -47.8318 -47.8305 -47.8298
    -4.1866  -4.0151  -3.5951  -3.4158  -3.3206  -3.1493  -2.7561  -2.6990
    -2.5615  -2.5256  -1.9973  -1.9024  -1.7728  -1.6865  -1.5851  -1.4965
    -1.3102  -1.1031  -0.8415  -0.8402  -0.6204  -0.5939  -0.5145  -0.4972
    -0.4128  -0.2920  -0.0418   0.0386   0.4316   0.4803

     occupation numbers 
     1.0000   1.0000   1.0000   1.0000   1.0000   1.0000   1.0000   1.0000
     1.0000   1.0000   1.0000   1.0000   1.0000   1.0000   1.0000   1.0000
     1.0000   1.0000   1.0000   1.0000   1.0000   1.0000   1.0000   1.0000
     1.0000   1.0000   1.0000   1.0000   1.0000   1.0000   1.0000   1.0000
     1.0000   1.0000   1.0000   1.0000   1.0049   1.0346   1.0816   0.8848
[...]
     atom   12 type  1   force =     0.00000448    0.00000900   -0.11263002
     atom   13 type  1   force =    -0.00004313    0.00000007   -0.09129458
     atom   14 type  1   force =     0.00001720    0.00011159    0.09116778
     atom   15 type  1   force =    -0.00000309   -0.00000003    0.11267655
     atom   16 type  1   force =    -0.00000134   -0.00000088    0.01922630
     atom   17 type  1   force =     0.00000495    0.00000000   -0.01923123
     atom   18 type  1   force =     0.00000647    0.00006256   -0.11263104
     atom   19 type  1   force =     0.00002293    0.00000005   -0.09151645
     atom   20 type  1   force =     0.00001720   -0.00011146    0.09116781
     atom   21 type  1   force =    -0.00002078   -0.00000001    0.11241604
     atom   22 type  1   force =    -0.00000134    0.00000088    0.01922631
     atom   23 type  1   force =    -0.00000347   -0.00000000   -0.01920121
     atom   24 type  1   force =     0.00000647   -0.00006260   -0.11263102


     Forces acting on atoms (cartesian axes, Ry/au):

     atom    1 type  1   force =    -0.00012200    0.00000000    0.00005245
     atom    2 type  1   force =    -0.00003543    0.00005718    0.00004071
     atom    3 type  1   force =     0.00008390    0.00000000    0.00002750
     atom    4 type  1   force =     0.00005866    0.00018085    0.00001201
     atom    5 type  1   force =    -0.00003875    0.00000000    0.00001033
     atom    6 type  1   force =    -0.00002661    0.00021095   -0.00006284
     atom    7 type  1   force =     0.00021619    0.00000000    0.00019051
     atom    8 type  1   force =    -0.00003543   -0.00005718    0.00004071
     atom    9 type  1   force =     0.00006316    0.00000000   -0.00019914
     atom   10 type  1   force =     0.00005866   -0.00018085    0.00001201
     atom   11 type  1   force =    -0.00019143    0.00000000   -0.00006284
     atom   12 type  1   force =    -0.00002661   -0.00021095   -0.00006284
     atom   13 type  1   force =     0.00023149    0.00000000    0.00007645
     atom   14 type  1   force =    -0.00006200    0.00006674    0.00004436
     atom   15 type  1   force =     0.00004339    0.00000000   -0.00003441
     atom   16 type  1   force =     0.00003038    0.00006694    0.00002400
     atom   17 type  1   force =    -0.00019944    0.00000000   -0.00015710
     atom   18 type  1   force =    -0.00002914   -0.00000317   -0.00007119
     atom   19 type  1   force =    -0.00008893    0.00000000    0.00015849
     atom   20 type  1   force =    -0.00006200   -0.00006674    0.00004436
     atom   21 type  1   force =     0.00011149    0.00000000   -0.00012182
     atom   22 type  1   force =     0.00003038   -0.00006694    0.00002400
     atom   23 type  1   force =     0.00001919    0.00000000    0.00008549
     atom   24 type  1   force =    -0.00002914    0.00000317   -0.00007119
     The non-local contrib.  to forces
     atom    1 type  1   force =    -0.00030969    0.00000000    0.03723157
     atom    2 type  1   force =     0.00008674   -0.00002429   -0.03726711
     atom    3 type  1   force =    -0.00003108    0.00000000   -0.02287799
     atom    4 type  1   force =    -0.00001394    0.00028204    0.00502434
     atom    5 type  1   force =     0.00021015    0.00000000   -0.00504124
     atom    6 type  1   force =     0.00004228    0.00019509    0.02289231
     atom    7 type  1   force =     0.00008815    0.00000000    0.03739288
     atom    8 type  1   force =     0.00008674    0.00002429   -0.03726711
     atom    9 type  1   force =    -0.00012402    0.00000000   -0.02305586
     atom   10 type  1   force =    -0.00001394   -0.00028204    0.00502434
     atom   11 type  1   force =    -0.00003229    0.00000000   -0.00508587
     atom   12 type  1   force =     0.00004228   -0.00019509    0.02289231
     atom   13 type  1   force =     0.00012586    0.00000000    0.03726230
     atom   14 type  1   force =     0.00005817    0.00000560   -0.03726259
     atom   15 type  1   force =    -0.00010456    0.00000000   -0.02294425
     atom   16 type  1   force =    -0.00003876    0.00015742    0.00504284
     atom   17 type  1   force =     0.00004365    0.00000000   -0.00526316
     atom   18 type  1   force =     0.00004739   -0.00002809    0.02287745
     atom   19 type  1   force =    -0.00029686    0.00000000    0.03735576
     atom   20 type  1   force =     0.00005817   -0.00000560   -0.03726259
     atom   21 type  1   force =    -0.00005854    0.00000000   -0.02296470
     atom   22 type  1   force =    -0.00003876   -0.00015742    0.00504284
     atom   23 type  1   force =     0.00018108    0.00000000   -0.00489830
     atom   24 type  1   force =     0.00004739    0.00002809    0.02287745
     The ionic contribution  to forces
     atom    1 type  1   force =    -0.00305071   -0.00000002    8.25201217
     atom    2 type  1   force =    -0.00026506    0.00398499   -8.25700905
     atom    3 type  1   force =     0.00121170    0.00000002   -6.07263314
     atom    4 type  1   force =     0.00068160    0.00921796   -1.29314998
     atom    5 type  1   force =     0.00067148   -0.00000001    1.28968127
     atom    6 type  1   force =    -0.00038748    0.00736129    6.07392680
     atom    7 type  1   force =     0.00386193    0.00000004    8.25147860
     atom    8 type  1   force =    -0.00026507   -0.00398502   -8.25700897
     atom    9 type  1   force =     0.00030967    0.00000002   -6.06091021
     atom   10 type  1   force =     0.00068163   -0.00921800   -1.29314988
     atom   11 type  1   force =    -0.00294623    0.00000005    1.29283991
     atom   12 type  1   force =    -0.00038748   -0.00736132    6.07392700
     atom   13 type  1   force =     0.00424653   -0.00000002    8.25187763
     atom   14 type  1   force =    -0.00079280    0.00436600   -8.25698752
     atom   15 type  1   force =    -0.00000030    0.00000002   -6.07208719
     atom   16 type  1   force =     0.00013964    0.00694312   -1.29333325
     atom   17 type  1   force =    -0.00279810   -0.00000001    1.29075117
     atom   18 type  1   force =    -0.00027922    0.00284266    6.07399454
     atom   19 type  1   force =    -0.00248698    0.00000004    8.25178319
     atom   20 type  1   force =    -0.00079280   -0.00436603   -8.25698742
     atom   21 type  1   force =     0.00130586    0.00000001   -6.06161644
     atom   22 type  1   force =     0.00013967   -0.00694316   -1.29333317
     atom   23 type  1   force =     0.00148174    0.00000005    1.29193917
     atom   24 type  1   force =    -0.00027922   -0.00284269    6.07399474
     The local contribution  to forces
     atom    1 type  1   force =     0.00320240   -0.00004225   -8.19793805
     atom    2 type  1   force =     0.00013452   -0.00406127    8.20314878
     atom    3 type  1   force =    -0.00108365   -0.00004365    5.98284889
     atom    4 type  1   force =    -0.00061173   -0.00936039    1.26891797
     atom    5 type  1   force =    -0.00091788   -0.00004493   -1.26545158
     atom    6 type  1   force =     0.00031199   -0.00737942   -5.98424998
     atom    7 type  1   force =    -0.00369751   -0.00004365   -8.19711091
     atom    8 type  1   force =     0.00013684    0.00397094    8.20314515
     atom    9 type  1   force =    -0.00011223   -0.00004446    5.97136551
     atom   10 type  1   force =    -0.00060128    0.00927169    1.26891554
     atom   11 type  1   force =     0.00278183   -0.00004169   -1.26856913
     atom   12 type  1   force =     0.00031606    0.00729270   -5.98425484
     atom   13 type  1   force =    -0.00409812   -0.00004225   -8.19776996
     atom   14 type  1   force =     0.00065390   -0.00446152    8.20313024
     atom   15 type  1   force =     0.00015157   -0.00004365    5.98232027
     atom   16 type  1   force =    -0.00007428   -0.00707685    1.26908907
     atom   17 type  1   force =     0.00255023   -0.00004493   -1.26641339
     atom   18 type  1   force =     0.00019406   -0.00292295   -5.98431014
     atom   19 type  1   force =     0.00267235   -0.00004365   -8.19746601
     atom   20 type  1   force =     0.00065680    0.00437119    8.20312601
     atom   21 type  1   force =    -0.00111505   -0.00004446    5.97204245
     atom   22 type  1   force =    -0.00006383    0.00698815    1.26908664
     atom   23 type  1   force =    -0.00164041   -0.00004169   -1.26775407
     atom   24 type  1   force =     0.00019812    0.00283624   -5.98431501
     The core correction contribution to forces
     atom    1 type  1   force =     0.00000000    0.00000000    0.00000000
     atom    2 type  1   force =     0.00000000    0.00000000    0.00000000
     atom    3 type  1   force =     0.00000000    0.00000000    0.00000000
     atom    4 type  1   force =     0.00000000    0.00000000    0.00000000
     atom    5 type  1   force =     0.00000000    0.00000000    0.00000000
     atom    6 type  1   force =     0.00000000    0.00000000    0.00000000
     atom    7 type  1   force =     0.00000000    0.00000000    0.00000000
     atom    8 type  1   force =     0.00000000    0.00000000    0.00000000
     atom    9 type  1   force =     0.00000000    0.00000000    0.00000000
     atom   10 type  1   force =     0.00000000    0.00000000    0.00000000
     atom   11 type  1   force =     0.00000000    0.00000000    0.00000000
     atom   12 type  1   force =     0.00000000    0.00000000    0.00000000
     atom   13 type  1   force =     0.00000000    0.00000000    0.00000000
     atom   14 type  1   force =     0.00000000    0.00000000    0.00000000
     atom   15 type  1   force =     0.00000000    0.00000000    0.00000000
     atom   16 type  1   force =     0.00000000    0.00000000    0.00000000
     atom   17 type  1   force =     0.00000000    0.00000000    0.00000000
     atom   18 type  1   force =     0.00000000    0.00000000    0.00000000
     atom   19 type  1   force =     0.00000000    0.00000000    0.00000000
     atom   20 type  1   force =     0.00000000    0.00000000    0.00000000
     atom   21 type  1   force =     0.00000000    0.00000000    0.00000000
     atom   22 type  1   force =     0.00000000    0.00000000    0.00000000
     atom   23 type  1   force =     0.00000000    0.00000000    0.00000000
     atom   24 type  1   force =     0.00000000    0.00000000    0.00000000
     The Hubbard contrib.    to forces
     atom    1 type  1   force =     0.00000000    0.00000000    0.00000000
     atom    2 type  1   force =     0.00000000    0.00000000    0.00000000
     atom    3 type  1   force =     0.00000000    0.00000000    0.00000000
     atom    4 type  1   force =     0.00000000    0.00000000    0.00000000
     atom    5 type  1   force =     0.00000000    0.00000000    0.00000000
     atom    6 type  1   force =     0.00000000    0.00000000    0.00000000
     atom    7 type  1   force =     0.00000000    0.00000000    0.00000000
     atom    8 type  1   force =     0.00000000    0.00000000    0.00000000
     atom    9 type  1   force =     0.00000000    0.00000000    0.00000000
     atom   10 type  1   force =     0.00000000    0.00000000    0.00000000
     atom   11 type  1   force =     0.00000000    0.00000000    0.00000000
     atom   12 type  1   force =     0.00000000    0.00000000    0.00000000
     atom   13 type  1   force =     0.00000000    0.00000000    0.00000000
     atom   14 type  1   force =     0.00000000    0.00000000    0.00000000
     atom   15 type  1   force =     0.00000000    0.00000000    0.00000000
     atom   16 type  1   force =     0.00000000    0.00000000    0.00000000
     atom   17 type  1   force =     0.00000000    0.00000000    0.00000000
     atom   18 type  1   force =     0.00000000    0.00000000    0.00000000
     atom   19 type  1   force =     0.00000000    0.00000000    0.00000000
     atom   20 type  1   force =     0.00000000    0.00000000    0.00000000
     atom   21 type  1   force =     0.00000000    0.00000000    0.00000000
     atom   22 type  1   force =     0.00000000    0.00000000    0.00000000
     atom   23 type  1   force =     0.00000000    0.00000000    0.00000000
     atom   24 type  1   force =     0.00000000    0.00000000    0.00000000
     The SCF correction term to forces
     atom    1 type  1   force =    -0.00000055   -0.00000000    0.00000105
     atom    2 type  1   force =     0.00000018   -0.00000009   -0.00000138
     atom    3 type  1   force =    -0.00000004   -0.00000000    0.00000058
     atom    4 type  1   force =    -0.00000005    0.00000003    0.00000026
     atom    5 type  1   force =     0.00000020   -0.00000000   -0.00000008
     atom    6 type  1   force =     0.00000011   -0.00000036    0.00000048
     atom    7 type  1   force =     0.00000024    0.00000000    0.00000209
     atom    8 type  1   force =     0.00000018    0.00000009   -0.00000138
     atom    9 type  1   force =    -0.00000004    0.00000000    0.00000058
     atom   10 type  1   force =    -0.00000005   -0.00000003    0.00000026
     atom   11 type  1   force =    -0.00000016    0.00000000   -0.00000011
     atom   12 type  1   force =     0.00000011    0.00000036    0.00000048
     atom   13 type  1   force =     0.00000037   -0.00000000    0.00000115
     atom   14 type  1   force =     0.00000009   -0.00000004   -0.00000141
     atom   15 type  1   force =    -0.00000021   -0.00000000    0.00000030
     atom   16 type  1   force =    -0.00000011   -0.00000024    0.00000030
     atom   17 type  1   force =    -0.00000017   -0.00000000   -0.00000039
     atom   18 type  1   force =     0.00000013   -0.00000075    0.00000042
     atom   19 type  1   force =    -0.00000035    0.00000000    0.00000209
     atom   20 type  1   force =     0.00000009    0.00000004   -0.00000141
     atom   21 type  1   force =     0.00000000    0.00000000    0.00000093
     atom   22 type  1   force =    -0.00000011    0.00000024    0.00000030
     atom   23 type  1   force =     0.00000026    0.00000000   -0.00000001
     atom   24 type  1   force =     0.00000013    0.00000075    0.00000042

     Total force =     0.000785     Total SCF correction =     0.000005
     Energy error            =      2.9E-06 Ry
     Gradient error          =      2.3E-04 Ry/Bohr

     bfgs converged in  18 scf cycles and  17 bfgs steps
     (criteria: energy <  1.0E-05 Ry, force <  3.9E-04 Ry/Bohr)

     End of BFGS Geometry Optimization

     Final energy             =    -361.1269227395 Ry

     File ./Li/Lithium.bfgs deleted, as requested
Begin final coordinates

ATOMIC_POSITIONS (angstrom)
Li               2.7257472795        4.8580445300       26.6499576696
Li               1.2409651540        2.4255916303       20.3935008777
Li               2.7256365585        4.8580445600       21.3240123757
Li               2.7288693288        2.4271747912       23.0397958288
Li               1.2456649937        4.8580445800       24.0069982958
Li               1.2371283168        2.4265970833       25.7222151556
Li               2.7214714890        9.7160883600       26.6462983263
Li               1.2409651140        7.2904975297       20.3935009377
Li               2.7230036833        9.7160883800       21.3313008864
Li               2.7288691488        7.2889143488       23.0397958688
Li               1.2439386813        9.7160883300       24.0078096548
Li               1.2371282468        7.2894920267       25.7222152355
Li               5.6976926605        4.8580445300       26.6495196942
Li               4.2161425499        2.4254736670       20.3934523758
Li               5.7008701688        4.8580445600       21.3246460618
Li               5.7040660112        2.4281640796       23.0396331908
Li               4.2219792857        4.8580445800       24.0085477219
Li               4.2121038200        2.4285627431       25.7223226013
Li               5.6989276891        9.7160883600       26.6469410861
Li               4.2161424999        7.2906154930       20.3934524458
Li               5.6975596721        9.7160883800       21.3304558252
Li               5.7040658312        7.2879250604       23.0396332308
Li               4.2170698785        9.7160883300       24.0064898638
Li               4.2121037500        7.2875263669       25.7223226813
End final coordinates



     Writing all to output data dir ./Li/Lithium.save/ :
     XML data file
     init_run     :     15.79s CPU     22.62s WALL (       1 calls)
     electrons    :   6073.64s CPU   7682.29s WALL (      18 calls)
     update_pot   :      2.01s CPU      2.48s WALL (      17 calls)
     forces       :    149.28s CPU    151.73s WALL (      18 calls)

     Called by init_run:
     wfcinit      :      1.12s CPU      1.59s WALL (       1 calls)
     wfcinit:wfcr :      1.03s CPU      1.49s WALL (      12 calls)
     potinit      :      0.68s CPU      0.72s WALL (       1 calls)
     hinit0       :      2.69s CPU      2.99s WALL (       1 calls)

     Called by electrons:
     c_bands      :   2908.50s CPU   3843.79s WALL (     361 calls)
     sum_band     :    202.03s CPU    274.44s WALL (     361 calls)
     v_of_rho     :     33.00s CPU     40.04s WALL (     363 calls)
     v_h          :      2.81s CPU      3.58s WALL (     363 calls)
     v_xc         :     30.18s CPU     36.45s WALL (     363 calls)
     newd         :     15.16s CPU     22.36s WALL (     363 calls)
     PAW_pot      :      3.02s CPU      4.13s WALL (     380 calls)
     mix_rho      :     77.08s CPU     99.28s WALL (     361 calls)

     Called by c_bands:
     init_us_2    :     28.31s CPU     29.43s WALL (    9096 calls)
     cegterg      :   2690.30s CPU   3312.16s WALL (    5308 calls)

     Called by sum_band:
     sum_band:wei :      0.39s CPU      0.48s WALL (     361 calls)
     sum_band:loo :    182.35s CPU    247.14s WALL (     361 calls)
     sum_band:buf :      2.76s CPU      2.99s WALL (    4332 calls)
     sum_band:ini :     13.23s CPU     13.40s WALL (    4332 calls)
     sum_band:cal :     28.33s CPU     33.19s WALL (    4536 calls)
     sum_band:bec :      0.36s CPU      0.40s WALL (    4536 calls)
     addusdens    :     11.27s CPU     11.87s WALL (     361 calls)
                                        0.00s GPU  (     361 calls)
     addusd:skk   :      2.09s CPU      2.11s WALL (     361 calls)
                                        0.00s GPU  (     361 calls)

     Called by *egterg:
     cdiaghg      :    595.78s CPU    618.88s WALL (   66386 calls)
     cegterg:over :    188.18s CPU    206.49s WALL (   61580 calls)
     cegterg:upda :    167.21s CPU    171.36s WALL (   61580 calls)
     cegterg:last :     36.97s CPU     37.27s WALL (    6578 calls)
     h_psi        :   1509.04s CPU   2076.09s WALL (   66900 calls)
     s_psi        :    124.42s CPU    126.75s WALL (   66900 calls)
     g_psi        :      2.52s CPU      2.61s WALL (   61580 calls)

     Called by h_psi:
     h_psi:calbec :    192.21s CPU    228.81s WALL (   66900 calls)
     vloc_psi     :   1168.89s CPU   1691.27s WALL (   66900 calls)
                                        0.00s GPU  (   66900 calls)
     add_vuspsi   :    139.67s CPU    147.18s WALL (   66900 calls)

     General routines
     calbec       :    224.94s CPU    266.88s WALL (   72300 calls)
     fft          :     22.59s CPU     32.75s WALL (    4752 calls)
     ffts         :     48.09s CPU     62.82s WALL (   40945 calls)
     fftw         :   1237.41s CPU   1795.42s WALL ( 2231690 calls)
     interpolate  :      3.13s CPU      3.86s WALL (     363 calls)

     Parallel routines

     PAW routines
     PAW_pot      :      3.02s CPU      4.13s WALL (     380 calls)
     PAW_symme    :      0.13s CPU      0.16s WALL (     741 calls)

     Environ routines

     PWSCF        :      1h47m CPU      2h14m WALL


   This run was terminated on:   5:31:44   5Jan2025            

=------------------------------------------------------------------------------=
   JOB DONE.
=------------------------------------------------------------------------------=
