
     Program PWSCF v.7.4 starts on 28Dec2024 at 17:57:48 

     This program is part of the open-source Quantum ESPRESSO suite
     for quantum simulation of materials; please cite
         "P. Giannozzi et al., J. Phys.:Condens. Matter 21 395502 (2009);
         "P. Giannozzi et al., J. Phys.:Condens. Matter 29 465901 (2017);
         "P. Giannozzi et al., J. Chem. Phys. 152 154105 (2020);
          URL http://www.quantum-espresso.org", 
     in publications or presentations arising from this work. More details at
     http://www.quantum-espresso.org/quote

     Parallel version (MPI & OpenMP), running on     384 processor cores
     Number of MPI processes:               384
     Threads/MPI process:                     1

     MPI processes distributed on     2 nodes
     666535 MiB available memory on the printing compute node when the environment starts
 
     Reading input from espresso.pwi
Warning: card &CELL ignored
Warning: card    PRESS_CONV_THR   = 0.1 ignored
Warning: card    CELL_DOFREE      = 'ALL' ignored
Warning: card / ignored
Warning: card &FCP ignored
Warning: card / ignored
Warning: card &RISM ignored
Warning: card / ignored

     Current dimensions of program PWSCF are:
     Max number of different atomic species (ntypx) = 10
     Max number of k-points (npk) =  40000
     Max angular momentum in pseudopotentials (lmaxx) =  4

     IMPORTANT: XC functional enforced from input :
     Exchange-correlation= PBE
                           (   1   4   3   4   0   0   0)
     Any further DFT definition will be discarded
     Please, verify this is what you really want

 
     Reading input from environ.in:
     * using ionic solvent mode
     * setting boundary derivatives method to SSCS default
     * setting electrolyte-boundary derivatives method to SSCS default

Environ Warning (1001): card EOF ignored

     
     Found identity + (  0.5000  0.0000 -0.0000) symmetry
     This is a supercell, fractional translations are disabled
 
     K-points division:     npool     =       2
     R & G space division:  proc/nbgrp/npool/nimage =     192
     Subspace diagonalization in iterative solution of the eigenvalue problem:
     a serial algorithm will be used

 
     Parallelization info
     --------------------
     sticks:   dense  smooth     PW     G-vecs:    dense   smooth      PW
     Min         100      40     10                59448    15032    2032
     Max         101      41     11                59497    15055    2089
     Sum       19367    7745   2063             11420683  2888861  395615
 
     Using Slab Decomposition
 


     bravais-lattice index     =            8
     lattice parameter (alat)  =      12.9830  a.u.
     unit-cell volume          =   29886.2298 (a.u.)^3
     number of atoms/cell      =           52
     number of atomic types    =            1
     number of electrons       =       156.00
     number of Kohn-Sham states=          117
     kinetic-energy cutoff     =      80.0000  Ry
     charge density cutoff     =     800.0000  Ry
     scf convergence threshold =      1.0E-14
     mixing beta               =       0.2000
     number of iterations used =            8  local-TF  mixing
     Exchange-correlation= PBE
                           (   1   4   3   4   0   0   0)

     ================================================================================
 
                                  Environ Setup Summary

     ================================================================================
 
     Please cite

          O. Andreussi, I. Dabo and N. Marzari, J. Chem. Phys. 136, 064102 (2012)
          F. Nattino, M. Truscott, N. Marzari, and O. Andreussi, J. Chem. Phys. 150, 041722 (2019)

     in publications or presentations arising from this work.

     ================================================================================
 
     Parameters
     ==========

     compensation onset threshold      =               0.1000E+00
     static permittivity               =                    89.90
     surface tension in input (dyn/cm) =                    37.30
     surface tension in internal units =               0.4792E-04

     Solvent Boundary
     ================

     solvent mode                      =                    ionic
     derivatives method                =                   lowmem
     electrolyte derivatives method    =                   lowmem
     numerical core for derivatives    =                      fft
     switching function adopted        =                     SCCS
     density limit for vacuum region   =               0.5000E-02
     density limit for bulk solvent    =               0.1000E-03
     soft-sphere radius mode           =                    bondi
     soft-sphere softness              =                     0.50
     alpha                             =                     1.32

     Electrostatic Setup
     ===================

     electrostatic problem to solve    =                    modpb
     numerical solver adopted          =                   newton
     type of auxiliary density adopted =                     none
     numerical core for poisson        =                      fft
     adopting a nested solver scheme
     inner solver                      =                       cg
     inner core                        =                      fft
     type of pbc corrections           =                parabolic
     numerical core for corrections    =                      1da

     ================================================================================
 

     celldm(1)=  12.983009  celldm(2)=   1.802776  celldm(3)=   7.575360
     celldm(4)=   0.000000  celldm(5)=   0.000000  celldm(6)=   0.000000

     crystal axes: (cart. coord. in units of alat)
               a(1) = (   1.000000   0.000000   0.000000 )  
               a(2) = (   0.000000   1.802776   0.000000 )  
               a(3) = (   0.000000   0.000000   7.575360 )  

     reciprocal axes: (cart. coord. in units 2 pi/alat)
               b(1) = (  1.000000  0.000000  0.000000 )  
               b(2) = (  0.000000  0.554700  0.000000 )  
               b(3) = (  0.000000  0.000000  0.132007 )  


     PseudoPot. # 1 for Li read from file:
     /home/ba3g18/Repos/Pseudopotentials/pslibrary.1.0.0/pbe/PSEUDOPOTENTIALS/Li.pbe-sl-kjpaw_psl.1.0.0.UPF
     MD5 check sum: 3f4d2cafebb47c6c3aa8ed472e6f074d
     Pseudo is Projector augmented-wave, Zval =  3.0
     Generated using 'atomic' code by A. Dal Corso  v.7.4
     Shape of augmentation charge: PSQ
     Using radial grid of 1017 points,  4 beta functions with: 
                l(1) =   0
                l(2) =   0
                l(3) =   1
                l(4) =   1
     Q(r) pseudized with 0 coefficients 


     atomic species   valence    mass     pseudopotential
     Li                3.00     6.94000     Li( 1.00)

      2 Sym. Ops. (no inversion) found


                                    s                        frac. trans.

      isym =  1     identity                                     

 cryst.   s( 1) = (     1          0          0      )
                  (     0          1          0      )
                  (     0          0          1      )

 cart.    s( 1) = (  1.0000000  0.0000000  0.0000000 )
                  (  0.0000000  1.0000000  0.0000000 )
                  (  0.0000000  0.0000000  1.0000000 )


      isym =  2     inv. 180 deg rotation - cart. axis [1,0,0]   

 cryst.   s( 2) = (    -1          0          0      )
                  (     0          1          0      )
                  (     0          0          1      )

 cart.    s( 2) = ( -1.0000000  0.0000000  0.0000000 )
                  (  0.0000000  1.0000000  0.0000000 )
                  (  0.0000000  0.0000000  1.0000000 )


     point group C_s (m)    
     there are  2 classes
     the character table:

       E     s    
A'     1.00  1.00
A''    1.00 -1.00

     the symmetry operations in each class and the name of the first element:

     E        1
          identity                                               
     s        2
          inv. 180 deg rotation - cart. axis [1,0,0]             

   Cartesian axes

     site n.     atom                  positions (alat units)
         1        Li     tau(   1) = (  -0.0000000   1.1549884   4.5231607  )
         2        Li     tau(   2) = (  -0.0000000   1.5267950   4.2570255  )
         3        Li     tau(   3) = (  -0.0000000   0.4289595   4.3568589  )
         4        Li     tau(   4) = (  -0.0000000   0.8335874   4.1007768  )
         5        Li     tau(   5) = (  -0.0000000   1.2470596   3.8279238  )
         6        Li     tau(   6) = (  -0.0000000   1.6603452   3.5632719  )
         7        Li     tau(   7) = (  -0.0000000   0.1383544   3.9632176  )
         8        Li     tau(   8) = (  -0.0000000   0.5577362   3.6642443  )
         9        Li     tau(   9) = (  -0.0000000   0.9702119   3.3956913  )
        10        Li     tau(  10) = (  -0.0000000   1.3695222   3.1268562  )
        11        Li     tau(  11) = (  -0.0000000   0.2719694   3.2632736  )
        12        Li     tau(  12) = (  -0.0000000   0.6141657   2.9742715  )
        13        Li     tau(  13) = (  -0.0000000   0.1209596   4.6642844  )
        14        Li     tau(  14) = (   0.2500000   1.1792528   4.1796707  )
        15        Li     tau(  15) = (   0.2500000   1.5917289   3.9111178  )
        16        Li     tau(  16) = (   0.2500000   0.4891196   4.0120908  )
        17        Li     tau(  17) = (   0.2500000   0.9024060   3.7474391  )
        18        Li     tau(  18) = (   0.2500000   1.3158763   3.4745862  )
        19        Li     tau(  19) = (   0.2500000   1.7205021   3.2185044  )
        20        Li     tau(  20) = (   0.2500000   0.2083349   3.6121433  )
        21        Li     tau(  21) = (   0.2500000   0.6226690   3.3183358  )
        22        Li     tau(  22) = (   0.2500000   0.9944737   3.0522005  )
        23        Li     tau(  23) = (   0.2500000   1.5352953   4.6010891  )
        24        Li     tau(  24) = (   0.2500000   0.2257232   2.9110757  )
        25        Li     tau(  25) = (   0.2500000   0.7799392   4.4485063  )
        26        Li     tau(  26) = (   0.2500000   0.0747183   4.3120870  )
        27        Li     tau(  27) = (   0.5000000   1.1549884   4.5231606  )
        28        Li     tau(  28) = (   0.5000000   1.5267950   4.2570254  )
        29        Li     tau(  29) = (   0.5000000   0.4289595   4.3568589  )
        30        Li     tau(  30) = (   0.5000000   0.8335875   4.1007768  )
        31        Li     tau(  31) = (   0.5000000   1.2470596   3.8279238  )
        32        Li     tau(  32) = (   0.5000000   1.6603452   3.5632720  )
        33        Li     tau(  33) = (   0.5000000   0.1383543   3.9632176  )
        34        Li     tau(  34) = (   0.5000000   0.5577362   3.6642443  )
        35        Li     tau(  35) = (   0.5000000   0.9702119   3.3956913  )
        36        Li     tau(  36) = (   0.5000000   1.3695222   3.1268561  )
        37        Li     tau(  37) = (   0.5000000   0.2719694   3.2632736  )
        38        Li     tau(  38) = (   0.5000000   0.6141657   2.9742715  )
        39        Li     tau(  39) = (   0.5000000   0.1209596   4.6642845  )
        40        Li     tau(  40) = (   0.7500000   1.1792528   4.1796707  )
        41        Li     tau(  41) = (   0.7500000   1.5917289   3.9111178  )
        42        Li     tau(  42) = (   0.7500000   0.4891196   4.0120908  )
        43        Li     tau(  43) = (   0.7500000   0.9024060   3.7474391  )
        44        Li     tau(  44) = (   0.7500000   1.3158763   3.4745862  )
        45        Li     tau(  45) = (   0.7500000   1.7205021   3.2185044  )
        46        Li     tau(  46) = (   0.7500000   0.2083349   3.6121433  )
        47        Li     tau(  47) = (   0.7500000   0.6226690   3.3183358  )
        48        Li     tau(  48) = (   0.7500000   0.9944737   3.0522005  )
        49        Li     tau(  49) = (   0.7500000   1.5352953   4.6010891  )
        50        Li     tau(  50) = (   0.7500000   0.2257232   2.9110757  )
        51        Li     tau(  51) = (   0.7500000   0.7799392   4.4485063  )
        52        Li     tau(  52) = (   0.7500000   0.0747183   4.3120870  )

   Crystallographic axes

     site n.     atom                  positions (cryst. coord.)
         1        Li     tau(   1) = ( -0.0000000  0.6406722  0.5970885  )
         2        Li     tau(   2) = ( -0.0000000  0.8469133  0.5619568  )
         3        Li     tau(   3) = ( -0.0000000  0.2379439  0.5751355  )
         4        Li     tau(   4) = ( -0.0000000  0.4623910  0.5413309  )
         5        Li     tau(   5) = ( -0.0000000  0.6917441  0.5053124  )
         6        Li     tau(   6) = ( -0.0000000  0.9209936  0.4703766  )
         7        Li     tau(   7) = ( -0.0000000  0.0767452  0.5231722  )
         8        Li     tau(   8) = ( -0.0000000  0.3093763  0.4837056  )
         9        Li     tau(   9) = ( -0.0000000  0.5381766  0.4482548  )
        10        Li     tau(  10) = ( -0.0000000  0.7596741  0.4127667  )
        11        Li     tau(  11) = ( -0.0000000  0.1508614  0.4307747  )
        12        Li     tau(  12) = ( -0.0000000  0.3406778  0.3926244  )
        13        Li     tau(  13) = ( -0.0000000  0.0670963  0.6157178  )
        14        Li     tau(  14) = (  0.2500000  0.6541316  0.5517455  )
        15        Li     tau(  15) = (  0.2500000  0.8829321  0.5162946  )
        16        Li     tau(  16) = (  0.2500000  0.2713147  0.5296238  )
        17        Li     tau(  17) = (  0.2500000  0.5005647  0.4946879  )
        18        Li     tau(  18) = (  0.2500000  0.7299167  0.4586694  )
        19        Li     tau(  19) = (  0.2500000  0.9543627  0.4248649  )
        20        Li     tau(  20) = (  0.2500000  0.1155634  0.4768279  )
        21        Li     tau(  21) = (  0.2500000  0.3453945  0.4380433  )
        22        Li     tau(  22) = (  0.2500000  0.5516346  0.4029116  )
        23        Li     tau(  23) = (  0.2500000  0.8516284  0.6073756  )
        24        Li     tau(  24) = (  0.2500000  0.1252087  0.3842822  )
        25        Li     tau(  25) = (  0.2500000  0.4326324  0.5872336  )
        26        Li     tau(  26) = (  0.2500000  0.0414462  0.5692253  )
        27        Li     tau(  27) = (  0.5000000  0.6406722  0.5970885  )
        28        Li     tau(  28) = (  0.5000000  0.8469133  0.5619568  )
        29        Li     tau(  29) = (  0.5000000  0.2379439  0.5751355  )
        30        Li     tau(  30) = (  0.5000000  0.4623910  0.5413309  )
        31        Li     tau(  31) = (  0.5000000  0.6917441  0.5053124  )
        32        Li     tau(  32) = (  0.5000000  0.9209936  0.4703766  )
        33        Li     tau(  33) = (  0.5000000  0.0767451  0.5231722  )
        34        Li     tau(  34) = (  0.5000000  0.3093763  0.4837056  )
        35        Li     tau(  35) = (  0.5000000  0.5381766  0.4482548  )
        36        Li     tau(  36) = (  0.5000000  0.7596741  0.4127667  )
        37        Li     tau(  37) = (  0.5000000  0.1508614  0.4307747  )
        38        Li     tau(  38) = (  0.5000000  0.3406778  0.3926244  )
        39        Li     tau(  39) = (  0.5000000  0.0670963  0.6157178  )
        40        Li     tau(  40) = (  0.7500000  0.6541316  0.5517455  )
        41        Li     tau(  41) = (  0.7500000  0.8829321  0.5162946  )
        42        Li     tau(  42) = (  0.7500000  0.2713147  0.5296238  )
        43        Li     tau(  43) = (  0.7500000  0.5005647  0.4946879  )
        44        Li     tau(  44) = (  0.7500000  0.7299167  0.4586694  )
        45        Li     tau(  45) = (  0.7500000  0.9543627  0.4248649  )
        46        Li     tau(  46) = (  0.7500000  0.1155634  0.4768279  )
        47        Li     tau(  47) = (  0.7500000  0.3453945  0.4380433  )
        48        Li     tau(  48) = (  0.7500000  0.5516346  0.4029116  )
        49        Li     tau(  49) = (  0.7500000  0.8516284  0.6073756  )
        50        Li     tau(  50) = (  0.7500000  0.1252087  0.3842822  )
        51        Li     tau(  51) = (  0.7500000  0.4326324  0.5872336  )
        52        Li     tau(  52) = (  0.7500000  0.0414462  0.5692253  )

     number of k points=    24  Marzari-Vanderbilt smearing, width (Ry)=  0.0100
                       cart. coord. in units 2pi/alat
        k(    1) = (   0.0000000   0.0000000   0.0000000), wk =   0.0333333
        k(    2) = (   0.0000000   0.0924500   0.0000000), wk =   0.0666667
        k(    3) = (   0.0000000   0.1849000   0.0000000), wk =   0.0666667
        k(    4) = (   0.0000000  -0.2773500   0.0000000), wk =   0.0333333
        k(    5) = (   0.1000000   0.0000000   0.0000000), wk =   0.0666667
        k(    6) = (   0.1000000   0.0924500   0.0000000), wk =   0.1333333
        k(    7) = (   0.1000000   0.1849000   0.0000000), wk =   0.1333333
        k(    8) = (   0.1000000  -0.2773500   0.0000000), wk =   0.0666667
        k(    9) = (   0.2000000   0.0000000   0.0000000), wk =   0.0666667
        k(   10) = (   0.2000000   0.0924500   0.0000000), wk =   0.1333333
        k(   11) = (   0.2000000   0.1849000   0.0000000), wk =   0.1333333
        k(   12) = (   0.2000000  -0.2773500   0.0000000), wk =   0.0666667
        k(   13) = (   0.3000000   0.0000000   0.0000000), wk =   0.0666667
        k(   14) = (   0.3000000   0.0924500   0.0000000), wk =   0.1333333
        k(   15) = (   0.3000000   0.1849000   0.0000000), wk =   0.1333333
        k(   16) = (   0.3000000  -0.2773500   0.0000000), wk =   0.0666667
        k(   17) = (   0.4000000   0.0000000   0.0000000), wk =   0.0666667
        k(   18) = (   0.4000000   0.0924500   0.0000000), wk =   0.1333333
        k(   19) = (   0.4000000   0.1849000   0.0000000), wk =   0.1333333
        k(   20) = (   0.4000000  -0.2773500   0.0000000), wk =   0.0666667
        k(   21) = (  -0.5000000   0.0000000   0.0000000), wk =   0.0333333
        k(   22) = (  -0.5000000   0.0924500   0.0000000), wk =   0.0666667
        k(   23) = (  -0.5000000   0.1849000   0.0000000), wk =   0.0666667
        k(   24) = (  -0.5000000  -0.2773500   0.0000000), wk =   0.0333333

                       cryst. coord.
        k(    1) = (   0.0000000   0.0000000   0.0000000), wk =   0.0333333
        k(    2) = (   0.0000000   0.1666667   0.0000000), wk =   0.0666667
        k(    3) = (   0.0000000   0.3333333   0.0000000), wk =   0.0666667
        k(    4) = (   0.0000000  -0.5000000   0.0000000), wk =   0.0333333
        k(    5) = (   0.1000000   0.0000000   0.0000000), wk =   0.0666667
        k(    6) = (   0.1000000   0.1666667   0.0000000), wk =   0.1333333
        k(    7) = (   0.1000000   0.3333333   0.0000000), wk =   0.1333333
        k(    8) = (   0.1000000  -0.5000000   0.0000000), wk =   0.0666667
        k(    9) = (   0.2000000   0.0000000   0.0000000), wk =   0.0666667
        k(   10) = (   0.2000000   0.1666667   0.0000000), wk =   0.1333333
        k(   11) = (   0.2000000   0.3333333   0.0000000), wk =   0.1333333
        k(   12) = (   0.2000000  -0.5000000   0.0000000), wk =   0.0666667
        k(   13) = (   0.3000000   0.0000000   0.0000000), wk =   0.0666667
        k(   14) = (   0.3000000   0.1666667   0.0000000), wk =   0.1333333
        k(   15) = (   0.3000000   0.3333333   0.0000000), wk =   0.1333333
        k(   16) = (   0.3000000  -0.5000000   0.0000000), wk =   0.0666667
        k(   17) = (   0.4000000   0.0000000   0.0000000), wk =   0.0666667
        k(   18) = (   0.4000000   0.1666667   0.0000000), wk =   0.1333333
        k(   19) = (   0.4000000   0.3333333   0.0000000), wk =   0.1333333
        k(   20) = (   0.4000000  -0.5000000   0.0000000), wk =   0.0666667
        k(   21) = (  -0.5000000   0.0000000   0.0000000), wk =   0.0333333
        k(   22) = (  -0.5000000   0.1666667   0.0000000), wk =   0.0666667
        k(   23) = (  -0.5000000   0.3333333   0.0000000), wk =   0.0666667
        k(   24) = (  -0.5000000  -0.5000000   0.0000000), wk =   0.0333333

     Dense  grid: 11420683 G-vectors     FFT dimensions: ( 120, 216, 900)

     Smooth grid:  2888861 G-vectors     FFT dimensions: (  75, 135, 576)

     Dynamical RAM for                 wfc:       3.36 MB

     Dynamical RAM for     wfc (w. buffer):      43.63 MB

     Dynamical RAM for           str. fact:       0.91 MB

     Dynamical RAM for           local pot:       0.00 MB

     Dynamical RAM for          nlocal pot:      11.93 MB

     Dynamical RAM for                qrad:       0.65 MB

     Dynamical RAM for          rho,v,vnew:       5.69 MB

     Dynamical RAM for               rhoin:       1.90 MB

     Dynamical RAM for            rho*nmix:      14.53 MB

     Dynamical RAM for           G-vectors:       3.52 MB

     Dynamical RAM for          h,s,v(r/c):       2.51 MB

     Dynamical RAM for          <psi|beta>:       0.74 MB

     Dynamical RAM for                 psi:       6.71 MB

     Dynamical RAM for                hpsi:       6.71 MB

     Dynamical RAM for                spsi:       6.71 MB

     Dynamical RAM for      wfcinit/wfcrot:       7.03 MB

     Dynamical RAM for           addusdens:      43.58 MB

     Dynamical RAM for          addusforce:      89.92 MB

     Estimated static dynamical RAM per process >      74.99 MB

     Estimated max dynamical RAM per process >     179.43 MB

     Estimated total dynamical RAM >      64.56 GB

     Initial potential from superposition of free atoms

     starting charge     155.7603, renormalised to     156.0000

     negative rho (up, down):  5.095E-03 0.000E+00
     Starting wfcs are random
     Checking if some PAW data can be deallocated... 

     total cpu time spent up to now is       17.9 secs

     Self-consistent Calculation

     iteration #  1     ecut=    80.00 Ry     beta= 0.20
     Davidson diagonalization with overlap

---- Real-time Memory Report at c_bands before calling an iterative solver
          1038 MiB given to the printing process from OS
             0 MiB allocation reported by mallinfo(arena+hblkhd)
        628800 MiB available memory on the node where the printing process lives
------------------
     ethr =  1.00E-02,  avg # of iterations = 12.4

     negative rho (up, down):  9.982E-05 0.000E+00

     total cpu time spent up to now is       56.6 secs

     total energy              =    -778.97271731 Ry
     estimated scf accuracy    <       7.61271114 Ry
     electrostatic embedding   =       0.00000000 Ry
     cavitation energy         =       0.03501171 Ry
     electrolyte free energy   =       0.01286340 Ry
     correction to one-el term =       0.00000000 Ry

     iteration #  2     ecut=    80.00 Ry     beta= 0.20
     Davidson diagonalization with overlap

---- Real-time Memory Report at c_bands before calling an iterative solver
          1038 MiB given to the printing process from OS
             0 MiB allocation reported by mallinfo(arena+hblkhd)
        623205 MiB available memory on the node where the printing process lives
------------------
     ethr =  4.88E-03,  avg # of iterations =  4.9

     negative rho (up, down):  6.078E-07 0.000E+00

     total cpu time spent up to now is       71.6 secs

     total energy              =    -780.37585840 Ry
     estimated scf accuracy    <       2.64294066 Ry
     electrostatic embedding   =       0.00000000 Ry
     cavitation energy         =       0.03501171 Ry
     electrolyte free energy   =       0.01286340 Ry
     correction to one-el term =       0.00000000 Ry

     iteration #  3     ecut=    80.00 Ry     beta= 0.20
     Davidson diagonalization with overlap

---- Real-time Memory Report at c_bands before calling an iterative solver
          1038 MiB given to the printing process from OS
             0 MiB allocation reported by mallinfo(arena+hblkhd)
        618205 MiB available memory on the node where the printing process lives
------------------
     ethr =  1.69E-03,  avg # of iterations =  4.3

     negative rho (up, down):  1.079E-07 0.000E+00

     total cpu time spent up to now is       89.1 secs

     total energy              =    -781.82127158 Ry
     estimated scf accuracy    <       0.41016998 Ry
     electrostatic embedding   =       0.00000000 Ry
     cavitation energy         =       0.03501171 Ry
     electrolyte free energy   =       0.01286340 Ry
     correction to one-el term =       0.00000000 Ry

     iteration #  4     ecut=    80.00 Ry     beta= 0.20
     Davidson diagonalization with overlap

---- Real-time Memory Report at c_bands before calling an iterative solver
          1038 MiB given to the printing process from OS
             0 MiB allocation reported by mallinfo(arena+hblkhd)
        617310 MiB available memory on the node where the printing process lives
------------------
     ethr =  2.63E-04,  avg # of iterations =  9.2

     negative rho (up, down):  3.069E-08 0.000E+00

     total cpu time spent up to now is      108.0 secs

     total energy              =    -781.94274842 Ry
     estimated scf accuracy    <       0.57992080 Ry
     electrostatic embedding   =       0.00000000 Ry
     cavitation energy         =       0.03501171 Ry
     electrolyte free energy   =       0.01286340 Ry
     correction to one-el term =       0.00000000 Ry

     iteration #  5     ecut=    80.00 Ry     beta= 0.20
     Davidson diagonalization with overlap

---- Real-time Memory Report at c_bands before calling an iterative solver
          1038 MiB given to the printing process from OS
             0 MiB allocation reported by mallinfo(arena+hblkhd)
        617158 MiB available memory on the node where the printing process lives
------------------
     ethr =  2.63E-04,  avg # of iterations =  1.3

     negative rho (up, down):  1.706E-04 0.000E+00

     total cpu time spent up to now is      117.9 secs

     total energy              =    -781.91250380 Ry
     estimated scf accuracy    <       0.58236232 Ry
     electrostatic embedding   =       0.00000000 Ry
     cavitation energy         =       0.03501171 Ry
     electrolyte free energy   =       0.01286340 Ry
     correction to one-el term =       0.00000000 Ry

     iteration #  6     ecut=    80.00 Ry     beta= 0.20
     Davidson diagonalization with overlap

---- Real-time Memory Report at c_bands before calling an iterative solver
          1038 MiB given to the printing process from OS
             0 MiB allocation reported by mallinfo(arena+hblkhd)
        617131 MiB available memory on the node where the printing process lives
------------------
     ethr =  2.63E-04,  avg # of iterations =  1.0

     negative rho (up, down):  3.904E-03 0.000E+00

     total cpu time spent up to now is      127.5 secs

     total energy              =    -781.88563540 Ry
     estimated scf accuracy    <       0.39185613 Ry
     electrostatic embedding   =       0.00000000 Ry
     cavitation energy         =       0.03501171 Ry
     electrolyte free energy   =       0.01286340 Ry
     correction to one-el term =       0.00000000 Ry

     iteration #  7     ecut=    80.00 Ry     beta= 0.20
     Davidson diagonalization with overlap

---- Real-time Memory Report at c_bands before calling an iterative solver
          1038 MiB given to the printing process from OS
             0 MiB allocation reported by mallinfo(arena+hblkhd)
        617093 MiB available memory on the node where the printing process lives
------------------
     ethr =  2.51E-04,  avg # of iterations =  1.0

     negative rho (up, down):  1.409E-02 0.000E+00

     total cpu time spent up to now is      137.2 secs

     total energy              =    -781.90203651 Ry
     estimated scf accuracy    <       0.16332765 Ry
     electrostatic embedding   =       0.00000000 Ry
     cavitation energy         =       0.03501171 Ry
     electrolyte free energy   =       0.01286340 Ry
     correction to one-el term =       0.00000000 Ry

     iteration #  8     ecut=    80.00 Ry     beta= 0.20
     Davidson diagonalization with overlap

---- Real-time Memory Report at c_bands before calling an iterative solver
          1038 MiB given to the printing process from OS
             0 MiB allocation reported by mallinfo(arena+hblkhd)
        616884 MiB available memory on the node where the printing process lives
------------------
     ethr =  1.05E-04,  avg # of iterations =  5.0

     negative rho (up, down):  8.765E-03 0.000E+00

     total cpu time spent up to now is      149.7 secs

     total energy              =    -781.92541428 Ry
     estimated scf accuracy    <       0.31169240 Ry
     electrostatic embedding   =       0.00000000 Ry
     cavitation energy         =       0.03501171 Ry
     electrolyte free energy   =       0.01286340 Ry
     correction to one-el term =       0.00000000 Ry

     iteration #  9     ecut=    80.00 Ry     beta= 0.20
     Davidson diagonalization with overlap

---- Real-time Memory Report at c_bands before calling an iterative solver
          1064 MiB given to the printing process from OS
             0 MiB allocation reported by mallinfo(arena+hblkhd)
        616864 MiB available memory on the node where the printing process lives
------------------
     ethr =  1.05E-04,  avg # of iterations =  1.1

     negative rho (up, down):  7.054E-02 0.000E+00

     total cpu time spent up to now is      159.4 secs

     total energy              =    -781.92021126 Ry
     estimated scf accuracy    <       0.51557752 Ry
     electrostatic embedding   =       0.00000000 Ry
     cavitation energy         =       0.03501171 Ry
     electrolyte free energy   =       0.01286340 Ry
     correction to one-el term =       0.00000000 Ry

     iteration # 10     ecut=    80.00 Ry     beta= 0.20
     Davidson diagonalization with overlap

---- Real-time Memory Report at c_bands before calling an iterative solver
          1100 MiB given to the printing process from OS
             0 MiB allocation reported by mallinfo(arena+hblkhd)
        616823 MiB available memory on the node where the printing process lives
------------------
     ethr =  1.05E-04,  avg # of iterations =  1.3

     negative rho (up, down):  9.617E-02 0.000E+00

     total cpu time spent up to now is      169.4 secs

     total energy              =    -781.88963787 Ry
     estimated scf accuracy    <       0.40001588 Ry
     electrostatic embedding   =       0.00000000 Ry
     cavitation energy         =       0.03501171 Ry
     electrolyte free energy   =       0.01286340 Ry
     correction to one-el term =       0.00000000 Ry

     iteration # 11     ecut=    80.00 Ry     beta= 0.20
     Davidson diagonalization with overlap

---- Real-time Memory Report at c_bands before calling an iterative solver
          1137 MiB given to the printing process from OS
             0 MiB allocation reported by mallinfo(arena+hblkhd)
        616795 MiB available memory on the node where the printing process lives
------------------
     c_bands:  1 eigenvalues not converged
     c_bands:  1 eigenvalues not converged
     c_bands:  1 eigenvalues not converged
     ethr =  1.05E-04,  avg # of iterations = 11.0

     negative rho (up, down):  1.657E-01 0.000E+00

     total cpu time spent up to now is      187.3 secs

     total energy              =    -781.87869530 Ry
     estimated scf accuracy    <       0.11986682 Ry
     electrostatic embedding   =       0.00000000 Ry
     cavitation energy         =       0.03501171 Ry
     electrolyte free energy   =       0.01286340 Ry
     correction to one-el term =       0.00000000 Ry

     iteration # 12     ecut=    80.00 Ry     beta= 0.20
     Davidson diagonalization with overlap

---- Real-time Memory Report at c_bands before calling an iterative solver
          1175 MiB given to the printing process from OS
             0 MiB allocation reported by mallinfo(arena+hblkhd)
        616755 MiB available memory on the node where the printing process lives
------------------
     ethr =  7.68E-05,  avg # of iterations =  3.8

     negative rho (up, down):  1.120E-01 0.000E+00

     total cpu time spent up to now is      199.3 secs

     total energy              =    -781.89566493 Ry
     estimated scf accuracy    <       0.17272861 Ry
     electrostatic embedding   =       0.00000000 Ry
     cavitation energy         =       0.03501171 Ry
     electrolyte free energy   =       0.01286340 Ry
     correction to one-el term =       0.00000000 Ry

     iteration # 13     ecut=    80.00 Ry     beta= 0.20
     Davidson diagonalization with overlap

---- Real-time Memory Report at c_bands before calling an iterative solver
          1208 MiB given to the printing process from OS
             0 MiB allocation reported by mallinfo(arena+hblkhd)
        616747 MiB available memory on the node where the printing process lives
------------------
     ethr =  7.68E-05,  avg # of iterations =  3.0

     negative rho (up, down):  1.569E-01 0.000E+00

     total cpu time spent up to now is      210.5 secs

     total energy              =    -781.88120771 Ry
     estimated scf accuracy    <       0.27601301 Ry
     electrostatic embedding   =       0.00000000 Ry
     cavitation energy         =       0.03501171 Ry
     electrolyte free energy   =       0.01286340 Ry
     correction to one-el term =       0.00000000 Ry

     iteration # 14     ecut=    80.00 Ry     beta= 0.20
     Davidson diagonalization with overlap

---- Real-time Memory Report at c_bands before calling an iterative solver
          1242 MiB given to the printing process from OS
             0 MiB allocation reported by mallinfo(arena+hblkhd)
        616704 MiB available memory on the node where the printing process lives
------------------
     ethr =  7.68E-05,  avg # of iterations =  1.2

     negative rho (up, down):  1.640E-01 0.000E+00

     total cpu time spent up to now is      220.4 secs

     total energy              =    -781.86023375 Ry
     estimated scf accuracy    <       0.21240844 Ry
     electrostatic embedding   =       0.00000000 Ry
     cavitation energy         =       0.03501171 Ry
     electrolyte free energy   =       0.01286340 Ry
     correction to one-el term =       0.00000000 Ry

     iteration # 15     ecut=    80.00 Ry     beta= 0.20
     Davidson diagonalization with overlap

---- Real-time Memory Report at c_bands before calling an iterative solver
          1274 MiB given to the printing process from OS
             0 MiB allocation reported by mallinfo(arena+hblkhd)
        616690 MiB available memory on the node where the printing process lives
------------------
     c_bands:  3 eigenvalues not converged
     ethr =  7.68E-05,  avg # of iterations = 14.5

     negative rho (up, down):  1.077E-01 0.000E+00

     add environment contribution to local potential

     total cpu time spent up to now is      245.8 secs

     total energy              =    -781.85124005 Ry
     estimated scf accuracy    <       0.06419718 Ry
     electrostatic embedding   =       0.00000000 Ry
     cavitation energy         =       0.03501171 Ry
     electrolyte free energy   =       0.01286340 Ry
     correction to one-el term =       0.00000000 Ry

     iteration # 16     ecut=    80.00 Ry     beta= 0.20
     Davidson diagonalization with overlap

---- Real-time Memory Report at c_bands before calling an iterative solver
          1308 MiB given to the printing process from OS
             0 MiB allocation reported by mallinfo(arena+hblkhd)
        619760 MiB available memory on the node where the printing process lives
------------------
     c_bands:  1 eigenvalues not converged
     c_bands:  1 eigenvalues not converged
     c_bands:  2 eigenvalues not converged
     c_bands:  2 eigenvalues not converged
     c_bands:  5 eigenvalues not converged
     ethr =  4.12E-05,  avg # of iterations = 19.1

     negative rho (up, down):  1.195E-01 0.000E+00

     add environment contribution to local potential

     total cpu time spent up to now is      277.6 secs

     total energy              =    -781.90055795 Ry
     estimated scf accuracy    <       0.06171677 Ry
     electrostatic embedding   =      -0.02803064 Ry
     cavitation energy         =       0.03501171 Ry
     electrolyte free energy   =      -0.00105723 Ry
     correction to one-el term =       4.56784203 Ry

     iteration # 17     ecut=    80.00 Ry     beta= 0.20
     Davidson diagonalization with overlap

---- Real-time Memory Report at c_bands before calling an iterative solver
          1353 MiB given to the printing process from OS
             0 MiB allocation reported by mallinfo(arena+hblkhd)
        615405 MiB available memory on the node where the printing process lives
------------------
     ethr =  3.96E-05,  avg # of iterations =  2.0

     negative rho (up, down):  1.745E-01 0.000E+00

     add environment contribution to local potential

     total cpu time spent up to now is      294.1 secs

     total energy              =    -781.91373560 Ry
     estimated scf accuracy    <       0.05268834 Ry
     electrostatic embedding   =      -0.03043469 Ry
     cavitation energy         =       0.03501171 Ry
     electrolyte free energy   =      -0.00145666 Ry
     correction to one-el term =       3.74359390 Ry

     iteration # 18     ecut=    80.00 Ry     beta= 0.20
     Davidson diagonalization with overlap

---- Real-time Memory Report at c_bands before calling an iterative solver
          1384 MiB given to the printing process from OS
             0 MiB allocation reported by mallinfo(arena+hblkhd)
        615311 MiB available memory on the node where the printing process lives
------------------
     c_bands:  1 eigenvalues not converged
     c_bands:  1 eigenvalues not converged
     ethr =  3.38E-05,  avg # of iterations =  9.4

     negative rho (up, down):  7.160E-02 0.000E+00

     total cpu time spent up to now is      309.0 secs

     total energy              =    -781.88127678 Ry
     estimated scf accuracy    <       0.12041116 Ry
     electrostatic embedding   =      -0.02830712 Ry
     cavitation energy         =       0.03501171 Ry
     electrolyte free energy   =      -0.00080576 Ry
     correction to one-el term =       6.81148896 Ry

     iteration # 19     ecut=    80.00 Ry     beta= 0.20
     Davidson diagonalization with overlap

---- Real-time Memory Report at c_bands before calling an iterative solver
          1411 MiB given to the printing process from OS
             0 MiB allocation reported by mallinfo(arena+hblkhd)
        615292 MiB available memory on the node where the printing process lives
------------------
     c_bands:  1 eigenvalues not converged
     ethr =  3.38E-05,  avg # of iterations = 13.2

     negative rho (up, down):  8.109E-02 0.000E+00

     total cpu time spent up to now is      329.9 secs

     total energy              =    -781.91158971 Ry
     estimated scf accuracy    <       0.30714183 Ry
     electrostatic embedding   =      -0.02717423 Ry
     cavitation energy         =       0.03501171 Ry
     electrolyte free energy   =      -0.00080576 Ry
     correction to one-el term =       6.80922318 Ry

     iteration # 20     ecut=    80.00 Ry     beta= 0.20
     Davidson diagonalization with overlap

---- Real-time Memory Report at c_bands before calling an iterative solver
          1436 MiB given to the printing process from OS
             0 MiB allocation reported by mallinfo(arena+hblkhd)
        615268 MiB available memory on the node where the printing process lives
------------------
     ethr =  3.38E-05,  avg # of iterations =  1.2

     negative rho (up, down):  6.957E-02 0.000E+00

     total cpu time spent up to now is      339.7 secs

     total energy              =    -781.91611187 Ry
     estimated scf accuracy    <       0.24600592 Ry
     electrostatic embedding   =      -0.02763611 Ry
     cavitation energy         =       0.03501171 Ry
     electrolyte free energy   =      -0.00080576 Ry
     correction to one-el term =       6.81014695 Ry

     iteration # 21     ecut=    80.00 Ry     beta= 0.20
     Davidson diagonalization with overlap

---- Real-time Memory Report at c_bands before calling an iterative solver
          1461 MiB given to the printing process from OS
             0 MiB allocation reported by mallinfo(arena+hblkhd)
        615254 MiB available memory on the node where the printing process lives
------------------
     ethr =  3.38E-05,  avg # of iterations =  1.0

     negative rho (up, down):  6.482E-02 0.000E+00

     total cpu time spent up to now is      349.2 secs

     total energy              =    -781.91176554 Ry
     estimated scf accuracy    <       0.33752634 Ry
     electrostatic embedding   =      -0.02760530 Ry
     cavitation energy         =       0.03501171 Ry
     electrolyte free energy   =      -0.00080576 Ry
     correction to one-el term =       6.81008532 Ry

     iteration # 22     ecut=    80.00 Ry     beta= 0.20
     Davidson diagonalization with overlap

---- Real-time Memory Report at c_bands before calling an iterative solver
          1484 MiB given to the printing process from OS
             0 MiB allocation reported by mallinfo(arena+hblkhd)
        615244 MiB available memory on the node where the printing process lives
------------------
     ethr =  3.38E-05,  avg # of iterations =  1.0

     negative rho (up, down):  6.229E-02 0.000E+00

     total cpu time spent up to now is      359.0 secs

     total energy              =    -781.91097192 Ry
     estimated scf accuracy    <       0.26408569 Ry
     electrostatic embedding   =      -0.02742854 Ry
     cavitation energy         =       0.03501171 Ry
     electrolyte free energy   =      -0.00080576 Ry
     correction to one-el term =       6.80973181 Ry

     iteration # 23     ecut=    80.00 Ry     beta= 0.20
     Davidson diagonalization with overlap

---- Real-time Memory Report at c_bands before calling an iterative solver
          1505 MiB given to the printing process from OS
             0 MiB allocation reported by mallinfo(arena+hblkhd)
        615237 MiB available memory on the node where the printing process lives
------------------
     ethr =  3.38E-05,  avg # of iterations =  1.0

     negative rho (up, down):  7.539E-02 0.000E+00

     total cpu time spent up to now is      368.8 secs

     total energy              =    -781.90281268 Ry
     estimated scf accuracy    <       0.23870555 Ry
     electrostatic embedding   =      -0.02747230 Ry
     cavitation energy         =       0.03501171 Ry
     electrolyte free energy   =      -0.00080576 Ry
     correction to one-el term =       6.80981932 Ry

     iteration # 24     ecut=    80.00 Ry     beta= 0.20
     Davidson diagonalization with overlap

---- Real-time Memory Report at c_bands before calling an iterative solver
          1526 MiB given to the printing process from OS
             0 MiB allocation reported by mallinfo(arena+hblkhd)
        615218 MiB available memory on the node where the printing process lives
------------------
     ethr =  3.38E-05,  avg # of iterations =  1.0

     negative rho (up, down):  6.029E-02 0.000E+00

     total cpu time spent up to now is      378.4 secs

     total energy              =    -781.90905883 Ry
     estimated scf accuracy    <       0.10241218 Ry
     electrostatic embedding   =      -0.02813602 Ry
     cavitation energy         =       0.03501171 Ry
     electrolyte free energy   =      -0.00080576 Ry
     correction to one-el term =       6.81114676 Ry

     iteration # 25     ecut=    80.00 Ry     beta= 0.20
     Davidson diagonalization with overlap

---- Real-time Memory Report at c_bands before calling an iterative solver
          1546 MiB given to the printing process from OS
             0 MiB allocation reported by mallinfo(arena+hblkhd)
        615208 MiB available memory on the node where the printing process lives
------------------
     ethr =  3.38E-05,  avg # of iterations =  3.6

     negative rho (up, down):  1.026E-01 0.000E+00

     total cpu time spent up to now is      390.3 secs

     total energy              =    -781.91124104 Ry
     estimated scf accuracy    <       0.30198957 Ry
     electrostatic embedding   =      -0.02850326 Ry
     cavitation energy         =       0.03501171 Ry
     electrolyte free energy   =      -0.00080576 Ry
     correction to one-el term =       6.81188125 Ry

     iteration # 26     ecut=    80.00 Ry     beta= 0.20
     Davidson diagonalization with overlap

---- Real-time Memory Report at c_bands before calling an iterative solver
          1575 MiB given to the printing process from OS
             0 MiB allocation reported by mallinfo(arena+hblkhd)
        615207 MiB available memory on the node where the printing process lives
------------------
     ethr =  3.38E-05,  avg # of iterations =  1.5

     negative rho (up, down):  1.527E-01 0.000E+00

     total cpu time spent up to now is      400.4 secs

     total energy              =    -781.88339926 Ry
     estimated scf accuracy    <       0.27301750 Ry
     electrostatic embedding   =      -0.02928606 Ry
     cavitation energy         =       0.03501171 Ry
     electrolyte free energy   =      -0.00080576 Ry
     correction to one-el term =       6.81344685 Ry

     iteration # 27     ecut=    80.00 Ry     beta= 0.20
     Davidson diagonalization with overlap

---- Real-time Memory Report at c_bands before calling an iterative solver
          1594 MiB given to the printing process from OS
             0 MiB allocation reported by mallinfo(arena+hblkhd)
        615197 MiB available memory on the node where the printing process lives
------------------
     ethr =  3.38E-05,  avg # of iterations = 10.2

     negative rho (up, down):  8.771E-02 0.000E+00

     add environment contribution to local potential

     total cpu time spent up to now is      423.0 secs

     total energy              =    -781.89439945 Ry
     estimated scf accuracy    <       0.00670624 Ry
     electrostatic embedding   =      -0.03142390 Ry
     cavitation energy         =       0.03501171 Ry
     electrolyte free energy   =      -0.00080576 Ry
     correction to one-el term =       6.81772253 Ry

     iteration # 28     ecut=    80.00 Ry     beta= 0.20
     Davidson diagonalization with overlap

---- Real-time Memory Report at c_bands before calling an iterative solver
          1615 MiB given to the printing process from OS
             0 MiB allocation reported by mallinfo(arena+hblkhd)
        615180 MiB available memory on the node where the printing process lives
------------------
     c_bands:  1 eigenvalues not converged
     c_bands:  1 eigenvalues not converged
     ethr =  4.30E-06,  avg # of iterations = 10.6

     negative rho (up, down):  9.870E-02 0.000E+00

     add environment contribution to local potential

     total cpu time spent up to now is      448.8 secs

     total energy              =    -781.90049819 Ry
     estimated scf accuracy    <       0.05448693 Ry
     electrostatic embedding   =      -0.03446663 Ry
     cavitation energy         =       0.03501171 Ry
     electrolyte free energy   =      -0.00134644 Ry
     correction to one-el term =       5.49993599 Ry

     iteration # 29     ecut=    80.00 Ry     beta= 0.20
     Davidson diagonalization with overlap

---- Real-time Memory Report at c_bands before calling an iterative solver
          1641 MiB given to the printing process from OS
             0 MiB allocation reported by mallinfo(arena+hblkhd)
        615149 MiB available memory on the node where the printing process lives
------------------
     ethr =  4.30E-06,  avg # of iterations =  7.6

     negative rho (up, down):  9.235E-02 0.000E+00

     add environment contribution to local potential

     total cpu time spent up to now is      469.0 secs

     total energy              =    -781.90537383 Ry
     estimated scf accuracy    <       0.02533630 Ry
     electrostatic embedding   =      -0.03582892 Ry
     cavitation energy         =       0.03501171 Ry
     electrolyte free energy   =      -0.00146371 Ry
     correction to one-el term =       6.09780167 Ry

     iteration # 30     ecut=    80.00 Ry     beta= 0.20
     Davidson diagonalization with overlap

---- Real-time Memory Report at c_bands before calling an iterative solver
          1664 MiB given to the printing process from OS
             0 MiB allocation reported by mallinfo(arena+hblkhd)
        615182 MiB available memory on the node where the printing process lives
------------------
     ethr =  4.30E-06,  avg # of iterations =  1.8

     negative rho (up, down):  4.542E-02 0.000E+00

     add environment contribution to local potential

     total cpu time spent up to now is      485.8 secs

     total energy              =    -781.89808419 Ry
     estimated scf accuracy    <       0.04407086 Ry
     electrostatic embedding   =      -0.03471208 Ry
     cavitation energy         =       0.03501171 Ry
     electrolyte free energy   =      -0.00135304 Ry
     correction to one-el term =       6.12228602 Ry

     iteration # 31     ecut=    80.00 Ry     beta= 0.20
     Davidson diagonalization with overlap

---- Real-time Memory Report at c_bands before calling an iterative solver
          1677 MiB given to the printing process from OS
             0 MiB allocation reported by mallinfo(arena+hblkhd)
        615121 MiB available memory on the node where the printing process lives
------------------
     ethr =  4.30E-06,  avg # of iterations = 12.7

     negative rho (up, down):  4.257E-02 0.000E+00

     add environment contribution to local potential

     total cpu time spent up to now is      512.0 secs

     total energy              =    -781.90172581 Ry
     estimated scf accuracy    <       0.00941713 Ry
     electrostatic embedding   =      -0.03642787 Ry
     cavitation energy         =       0.03501171 Ry
     electrolyte free energy   =      -0.00176650 Ry
     correction to one-el term =       3.97445353 Ry

     iteration # 32     ecut=    80.00 Ry     beta= 0.20
     Davidson diagonalization with overlap

---- Real-time Memory Report at c_bands before calling an iterative solver
          1698 MiB given to the printing process from OS
             0 MiB allocation reported by mallinfo(arena+hblkhd)
        615119 MiB available memory on the node where the printing process lives
------------------
     ethr =  4.30E-06,  avg # of iterations =  4.5

     negative rho (up, down):  4.658E-02 0.000E+00

     add environment contribution to local potential

     total cpu time spent up to now is      530.5 secs

     total energy              =    -781.90221241 Ry
     estimated scf accuracy    <       0.00767302 Ry
     electrostatic embedding   =      -0.03582620 Ry
     cavitation energy         =       0.03501171 Ry
     electrolyte free energy   =      -0.00162054 Ry
     correction to one-el term =       4.58702309 Ry

     iteration # 33     ecut=    80.00 Ry     beta= 0.20
     Davidson diagonalization with overlap

---- Real-time Memory Report at c_bands before calling an iterative solver
          1719 MiB given to the printing process from OS
             0 MiB allocation reported by mallinfo(arena+hblkhd)
        615113 MiB available memory on the node where the printing process lives
------------------
     ethr =  4.30E-06,  avg # of iterations =  7.8

     negative rho (up, down):  5.460E-02 0.000E+00

     add environment contribution to local potential

     total cpu time spent up to now is      551.2 secs

     total energy              =    -781.90217972 Ry
     estimated scf accuracy    <       0.00834916 Ry
     electrostatic embedding   =      -0.03612432 Ry
     cavitation energy         =       0.03501171 Ry
     electrolyte free energy   =      -0.00150441 Ry
     correction to one-el term =       4.83255572 Ry

     iteration # 34     ecut=    80.00 Ry     beta= 0.20
     Davidson diagonalization with overlap

---- Real-time Memory Report at c_bands before calling an iterative solver
          1736 MiB given to the printing process from OS
             0 MiB allocation reported by mallinfo(arena+hblkhd)
        615105 MiB available memory on the node where the printing process lives
------------------
     ethr =  4.30E-06,  avg # of iterations =  8.0

     negative rho (up, down):  4.828E-02 0.000E+00

     add environment contribution to local potential

     total cpu time spent up to now is      572.5 secs

     total energy              =    -781.90386895 Ry
     estimated scf accuracy    <       0.00592066 Ry
     electrostatic embedding   =      -0.03604349 Ry
     cavitation energy         =       0.03501171 Ry
     electrolyte free energy   =      -0.00160394 Ry
     correction to one-el term =       5.45704102 Ry

     iteration # 35     ecut=    80.00 Ry     beta= 0.20
     Davidson diagonalization with overlap

---- Real-time Memory Report at c_bands before calling an iterative solver
          1749 MiB given to the printing process from OS
             0 MiB allocation reported by mallinfo(arena+hblkhd)
        615100 MiB available memory on the node where the printing process lives
------------------
     ethr =  3.80E-06,  avg # of iterations =  5.6

     negative rho (up, down):  4.249E-02 0.000E+00

     add environment contribution to local potential

     total cpu time spent up to now is      591.6 secs

     total energy              =    -781.90031007 Ry
     estimated scf accuracy    <       0.01299248 Ry
     electrostatic embedding   =      -0.03384591 Ry
     cavitation energy         =       0.03501171 Ry
     electrolyte free energy   =      -0.00136106 Ry
     correction to one-el term =       5.16601028 Ry

     iteration # 36     ecut=    80.00 Ry     beta= 0.20
     Davidson diagonalization with overlap

---- Real-time Memory Report at c_bands before calling an iterative solver
          1767 MiB given to the printing process from OS
             0 MiB allocation reported by mallinfo(arena+hblkhd)
        615094 MiB available memory on the node where the printing process lives
------------------
     c_bands:  1 eigenvalues not converged
     c_bands:  1 eigenvalues not converged
     ethr =  3.80E-06,  avg # of iterations = 12.2

     negative rho (up, down):  3.580E-02 0.000E+00

     add environment contribution to local potential

     total cpu time spent up to now is      616.4 secs

     total energy              =    -781.90046124 Ry
     estimated scf accuracy    <       0.00903651 Ry
     electrostatic embedding   =      -0.03888676 Ry
     cavitation energy         =       0.03501171 Ry
     electrolyte free energy   =      -0.00180575 Ry
     correction to one-el term =       4.67125556 Ry

     iteration # 37     ecut=    80.00 Ry     beta= 0.20
     Davidson diagonalization with overlap

---- Real-time Memory Report at c_bands before calling an iterative solver
          1784 MiB given to the printing process from OS
             0 MiB allocation reported by mallinfo(arena+hblkhd)
        615021 MiB available memory on the node where the printing process lives
------------------
     ethr =  3.80E-06,  avg # of iterations =  8.2

     negative rho (up, down):  3.858E-02 0.000E+00

     add environment contribution to local potential

     total cpu time spent up to now is      638.7 secs

     total energy              =    -781.90235521 Ry
     estimated scf accuracy    <       0.00288853 Ry
     electrostatic embedding   =      -0.04201773 Ry
     cavitation energy         =       0.03501171 Ry
     electrolyte free energy   =      -0.00214377 Ry
     correction to one-el term =       5.08918472 Ry

     iteration # 38     ecut=    80.00 Ry     beta= 0.20
     Davidson diagonalization with overlap

---- Real-time Memory Report at c_bands before calling an iterative solver
          1798 MiB given to the printing process from OS
             0 MiB allocation reported by mallinfo(arena+hblkhd)
        615020 MiB available memory on the node where the printing process lives
------------------
     ethr =  1.85E-06,  avg # of iterations =  9.6

     negative rho (up, down):  3.566E-02 0.000E+00

     add environment contribution to local potential

     total cpu time spent up to now is      661.2 secs

     total energy              =    -781.90214312 Ry
     estimated scf accuracy    <       0.00475797 Ry
     electrostatic embedding   =      -0.04169734 Ry
     cavitation energy         =       0.03501171 Ry
     electrolyte free energy   =      -0.00222515 Ry
     correction to one-el term =       5.19661711 Ry

     iteration # 39     ecut=    80.00 Ry     beta= 0.20
     Davidson diagonalization with overlap

---- Real-time Memory Report at c_bands before calling an iterative solver
          1813 MiB given to the printing process from OS
             0 MiB allocation reported by mallinfo(arena+hblkhd)
        615024 MiB available memory on the node where the printing process lives
------------------
     ethr =  1.85E-06,  avg # of iterations =  2.7

     negative rho (up, down):  2.670E-02 0.000E+00

     add environment contribution to local potential

     total cpu time spent up to now is      679.0 secs

     total energy              =    -781.90171538 Ry
     estimated scf accuracy    <       0.00271330 Ry
     electrostatic embedding   =      -0.04223658 Ry
     cavitation energy         =       0.03501171 Ry
     electrolyte free energy   =      -0.00217278 Ry
     correction to one-el term =       5.07731905 Ry

     iteration # 40     ecut=    80.00 Ry     beta= 0.20
     Davidson diagonalization with overlap

---- Real-time Memory Report at c_bands before calling an iterative solver
          1825 MiB given to the printing process from OS
             0 MiB allocation reported by mallinfo(arena+hblkhd)
        615055 MiB available memory on the node where the printing process lives
------------------
     ethr =  1.74E-06,  avg # of iterations =  9.2

     negative rho (up, down):  2.895E-02 0.000E+00

     add environment contribution to local potential

     total cpu time spent up to now is      701.4 secs

     total energy              =    -781.90181625 Ry
     estimated scf accuracy    <       0.00265354 Ry
     electrostatic embedding   =      -0.04514654 Ry
     cavitation energy         =       0.03501171 Ry
     electrolyte free energy   =      -0.00209501 Ry
     correction to one-el term =       5.06601559 Ry

     iteration # 41     ecut=    80.00 Ry     beta= 0.20
     Davidson diagonalization with overlap

---- Real-time Memory Report at c_bands before calling an iterative solver
          1839 MiB given to the printing process from OS
             0 MiB allocation reported by mallinfo(arena+hblkhd)
        615003 MiB available memory on the node where the printing process lives
------------------
     c_bands:  1 eigenvalues not converged
     ethr =  1.70E-06,  avg # of iterations = 13.3

     negative rho (up, down):  1.866E-02 0.000E+00

     add environment contribution to local potential

     total cpu time spent up to now is      727.7 secs

     total energy              =    -781.90244541 Ry
     estimated scf accuracy    <       0.00076073 Ry
     electrostatic embedding   =      -0.05001130 Ry
     cavitation energy         =       0.03501171 Ry
     electrolyte free energy   =      -0.00212562 Ry
     correction to one-el term =       6.12978572 Ry

     iteration # 42     ecut=    80.00 Ry     beta= 0.20
     Davidson diagonalization with overlap

---- Real-time Memory Report at c_bands before calling an iterative solver
          1850 MiB given to the printing process from OS
             0 MiB allocation reported by mallinfo(arena+hblkhd)
        614996 MiB available memory on the node where the printing process lives
------------------
     ethr =  4.88E-07,  avg # of iterations = 13.1

     negative rho (up, down):  1.491E-02 0.000E+00

     add environment contribution to local potential

     total cpu time spent up to now is      753.5 secs

     total energy              =    -781.90262284 Ry
     estimated scf accuracy    <       0.00063332 Ry
     electrostatic embedding   =      -0.05184862 Ry
     cavitation energy         =       0.03501171 Ry
     electrolyte free energy   =      -0.00210458 Ry
     correction to one-el term =       6.52797871 Ry

     iteration # 43     ecut=    80.00 Ry     beta= 0.20
     Davidson diagonalization with overlap

---- Real-time Memory Report at c_bands before calling an iterative solver
          1863 MiB given to the printing process from OS
             0 MiB allocation reported by mallinfo(arena+hblkhd)
        614999 MiB available memory on the node where the printing process lives
------------------
     c_bands:  1 eigenvalues not converged
     ethr =  4.06E-07,  avg # of iterations = 10.2

     negative rho (up, down):  1.786E-02 0.000E+00

     add environment contribution to local potential

     total cpu time spent up to now is      776.6 secs

     total energy              =    -781.90287802 Ry
     estimated scf accuracy    <       0.00033329 Ry
     electrostatic embedding   =      -0.05326236 Ry
     cavitation energy         =       0.03501171 Ry
     electrolyte free energy   =      -0.00213085 Ry
     correction to one-el term =       7.09832075 Ry

     iteration # 44     ecut=    80.00 Ry     beta= 0.20
     Davidson diagonalization with overlap

---- Real-time Memory Report at c_bands before calling an iterative solver
          1877 MiB given to the printing process from OS
             0 MiB allocation reported by mallinfo(arena+hblkhd)
        614999 MiB available memory on the node where the printing process lives
------------------
     ethr =  2.14E-07,  avg # of iterations = 10.4

     negative rho (up, down):  1.171E-02 0.000E+00

     add environment contribution to local potential

     total cpu time spent up to now is      799.8 secs

     total energy              =    -781.90284087 Ry
     estimated scf accuracy    <       0.00021609 Ry
     electrostatic embedding   =      -0.05244610 Ry
     cavitation energy         =       0.03501171 Ry
     electrolyte free energy   =      -0.00207201 Ry
     correction to one-el term =       7.31814301 Ry

     iteration # 45     ecut=    80.00 Ry     beta= 0.20
     Davidson diagonalization with overlap

---- Real-time Memory Report at c_bands before calling an iterative solver
          1886 MiB given to the printing process from OS
             0 MiB allocation reported by mallinfo(arena+hblkhd)
        614984 MiB available memory on the node where the printing process lives
------------------
     ethr =  1.39E-07,  avg # of iterations =  3.5

     negative rho (up, down):  4.487E-03 0.000E+00

     add environment contribution to local potential

     total cpu time spent up to now is      818.5 secs

     total energy              =    -781.90279787 Ry
     estimated scf accuracy    <       0.00015925 Ry
     electrostatic embedding   =      -0.05254353 Ry
     cavitation energy         =       0.03501171 Ry
     electrolyte free energy   =      -0.00205138 Ry
     correction to one-el term =       7.30745899 Ry

     iteration # 46     ecut=    80.00 Ry     beta= 0.20
     Davidson diagonalization with overlap

---- Real-time Memory Report at c_bands before calling an iterative solver
          1902 MiB given to the printing process from OS
             0 MiB allocation reported by mallinfo(arena+hblkhd)
        614975 MiB available memory on the node where the printing process lives
------------------
     c_bands:  1 eigenvalues not converged
     ethr =  1.02E-07,  avg # of iterations = 11.4

     negative rho (up, down):  1.490E-03 0.000E+00

     add environment contribution to local potential

     total cpu time spent up to now is      842.3 secs

     total energy              =    -781.90281891 Ry
     estimated scf accuracy    <       0.00012356 Ry
     electrostatic embedding   =      -0.05272992 Ry
     cavitation energy         =       0.03501171 Ry
     electrolyte free energy   =      -0.00202872 Ry
     correction to one-el term =       7.28139104 Ry

     iteration # 47     ecut=    80.00 Ry     beta= 0.20
     Davidson diagonalization with overlap

---- Real-time Memory Report at c_bands before calling an iterative solver
          1915 MiB given to the printing process from OS
             0 MiB allocation reported by mallinfo(arena+hblkhd)
        614969 MiB available memory on the node where the printing process lives
------------------
     c_bands:  1 eigenvalues not converged
     ethr =  7.92E-08,  avg # of iterations = 12.2

     negative rho (up, down):  6.351E-04 0.000E+00

     add environment contribution to local potential

     total cpu time spent up to now is      868.1 secs

     total energy              =    -781.90290210 Ry
     estimated scf accuracy    <       0.00005662 Ry
     electrostatic embedding   =      -0.05375621 Ry
     cavitation energy         =       0.03501171 Ry
     electrolyte free energy   =      -0.00200959 Ry
     correction to one-el term =       7.47250393 Ry

     iteration # 48     ecut=    80.00 Ry     beta= 0.20
     Davidson diagonalization with overlap

---- Real-time Memory Report at c_bands before calling an iterative solver
          1926 MiB given to the printing process from OS
             0 MiB allocation reported by mallinfo(arena+hblkhd)
        614971 MiB available memory on the node where the printing process lives
------------------
     ethr =  3.63E-08,  avg # of iterations =  7.3

     negative rho (up, down):  8.058E-04 0.000E+00

     add environment contribution to local potential

     total cpu time spent up to now is      888.7 secs

     total energy              =    -781.90292108 Ry
     estimated scf accuracy    <       0.00003090 Ry
     electrostatic embedding   =      -0.05339655 Ry
     cavitation energy         =       0.03501171 Ry
     electrolyte free energy   =      -0.00202850 Ry
     correction to one-el term =       7.35912276 Ry

     iteration # 49     ecut=    80.00 Ry     beta= 0.20
     Davidson diagonalization with overlap

---- Real-time Memory Report at c_bands before calling an iterative solver
          1939 MiB given to the printing process from OS
             0 MiB allocation reported by mallinfo(arena+hblkhd)
        614959 MiB available memory on the node where the printing process lives
------------------
     ethr =  1.98E-08,  avg # of iterations =  2.0

     negative rho (up, down):  1.211E-03 0.000E+00

     add environment contribution to local potential

     total cpu time spent up to now is      906.2 secs

     total energy              =    -781.90292634 Ry
     estimated scf accuracy    <       0.00002605 Ry
     electrostatic embedding   =      -0.05330367 Ry
     cavitation energy         =       0.03501171 Ry
     electrolyte free energy   =      -0.00203539 Ry
     correction to one-el term =       7.37675746 Ry

     iteration # 50     ecut=    80.00 Ry     beta= 0.20
     Davidson diagonalization with overlap

---- Real-time Memory Report at c_bands before calling an iterative solver
          1947 MiB given to the printing process from OS
             0 MiB allocation reported by mallinfo(arena+hblkhd)
        614952 MiB available memory on the node where the printing process lives
------------------
     ethr =  1.67E-08,  avg # of iterations =  6.9

     negative rho (up, down):  3.528E-04 0.000E+00

     add environment contribution to local potential

     total cpu time spent up to now is      926.6 secs

     total energy              =    -781.90292840 Ry
     estimated scf accuracy    <       0.00001864 Ry
     electrostatic embedding   =      -0.05324081 Ry
     cavitation energy         =       0.03501171 Ry
     electrolyte free energy   =      -0.00202901 Ry
     correction to one-el term =       7.48315104 Ry

     iteration # 51     ecut=    80.00 Ry     beta= 0.20
     Davidson diagonalization with overlap

---- Real-time Memory Report at c_bands before calling an iterative solver
          1956 MiB given to the printing process from OS
             0 MiB allocation reported by mallinfo(arena+hblkhd)
        614953 MiB available memory on the node where the printing process lives
------------------
     ethr =  1.19E-08,  avg # of iterations =  6.7

     negative rho (up, down):  2.783E-04 0.000E+00

     add environment contribution to local potential

     total cpu time spent up to now is      947.1 secs

     total energy              =    -781.90292693 Ry
     estimated scf accuracy    <       0.00001152 Ry
     electrostatic embedding   =      -0.05329040 Ry
     cavitation energy         =       0.03501171 Ry
     electrolyte free energy   =      -0.00203548 Ry
     correction to one-el term =       7.56152166 Ry

     iteration # 52     ecut=    80.00 Ry     beta= 0.20
     Davidson diagonalization with overlap

---- Real-time Memory Report at c_bands before calling an iterative solver
          1967 MiB given to the printing process from OS
             0 MiB allocation reported by mallinfo(arena+hblkhd)
        614999 MiB available memory on the node where the printing process lives
------------------
     c_bands:  1 eigenvalues not converged
     ethr =  7.38E-09,  avg # of iterations = 11.4

     negative rho (up, down):  4.354E-04 0.000E+00

     add environment contribution to local potential

     total cpu time spent up to now is      970.7 secs

     total energy              =    -781.90293859 Ry
     estimated scf accuracy    <       0.00000636 Ry
     electrostatic embedding   =      -0.05337798 Ry
     cavitation energy         =       0.03501171 Ry
     electrolyte free energy   =      -0.00204318 Ry
     correction to one-el term =       7.66715971 Ry

     iteration # 53     ecut=    80.00 Ry     beta= 0.20
     Davidson diagonalization with overlap

---- Real-time Memory Report at c_bands before calling an iterative solver
          1975 MiB given to the printing process from OS
             0 MiB allocation reported by mallinfo(arena+hblkhd)
        614950 MiB available memory on the node where the printing process lives
------------------
     ethr =  4.08E-09,  avg # of iterations =  3.8

     negative rho (up, down):  8.614E-04 0.000E+00

     add environment contribution to local potential

     total cpu time spent up to now is      989.2 secs

     total energy              =    -781.90294561 Ry
     estimated scf accuracy    <       0.00000324 Ry
     electrostatic embedding   =      -0.05320035 Ry
     cavitation energy         =       0.03501171 Ry
     electrolyte free energy   =      -0.00204138 Ry
     correction to one-el term =       7.70542581 Ry

     iteration # 54     ecut=    80.00 Ry     beta= 0.20
     Davidson diagonalization with overlap

---- Real-time Memory Report at c_bands before calling an iterative solver
          1980 MiB given to the printing process from OS
             0 MiB allocation reported by mallinfo(arena+hblkhd)
        614947 MiB available memory on the node where the printing process lives
------------------
     ethr =  2.07E-09,  avg # of iterations =  3.0

     negative rho (up, down):  7.929E-04 0.000E+00

     add environment contribution to local potential

     total cpu time spent up to now is     1007.4 secs

     total energy              =    -781.90294682 Ry
     estimated scf accuracy    <       0.00000184 Ry
     electrostatic embedding   =      -0.05314974 Ry
     cavitation energy         =       0.03501171 Ry
     electrolyte free energy   =      -0.00203756 Ry
     correction to one-el term =       7.73850473 Ry

     iteration # 55     ecut=    80.00 Ry     beta= 0.20
     Davidson diagonalization with overlap

---- Real-time Memory Report at c_bands before calling an iterative solver
          1987 MiB given to the printing process from OS
             0 MiB allocation reported by mallinfo(arena+hblkhd)
        614942 MiB available memory on the node where the printing process lives
------------------
     ethr =  1.18E-09,  avg # of iterations =  2.9

     negative rho (up, down):  6.259E-04 0.000E+00

     add environment contribution to local potential

     total cpu time spent up to now is     1025.1 secs

     total energy              =    -781.90294595 Ry
     estimated scf accuracy    <       0.00000120 Ry
     electrostatic embedding   =      -0.05312665 Ry
     cavitation energy         =       0.03501171 Ry
     electrolyte free energy   =      -0.00203958 Ry
     correction to one-el term =       7.74141812 Ry

     iteration # 56     ecut=    80.00 Ry     beta= 0.20
     Davidson diagonalization with overlap

---- Real-time Memory Report at c_bands before calling an iterative solver
          1997 MiB given to the printing process from OS
             0 MiB allocation reported by mallinfo(arena+hblkhd)
        614934 MiB available memory on the node where the printing process lives
------------------
     ethr =  7.67E-10,  avg # of iterations =  3.0

     negative rho (up, down):  4.601E-04 0.000E+00

     add environment contribution to local potential

     total cpu time spent up to now is     1043.0 secs

     total energy              =    -781.90294625 Ry
     estimated scf accuracy    <       0.00000087 Ry
     electrostatic embedding   =      -0.05311895 Ry
     cavitation energy         =       0.03501171 Ry
     electrolyte free energy   =      -0.00204010 Ry
     correction to one-el term =       7.75103531 Ry

     iteration # 57     ecut=    80.00 Ry     beta= 0.20
     Davidson diagonalization with overlap

---- Real-time Memory Report at c_bands before calling an iterative solver
          2002 MiB given to the printing process from OS
             0 MiB allocation reported by mallinfo(arena+hblkhd)
        614934 MiB available memory on the node where the printing process lives
------------------
     ethr =  5.59E-10,  avg # of iterations =  3.0

     negative rho (up, down):  6.156E-04 0.000E+00

     add environment contribution to local potential

     total cpu time spent up to now is     1060.7 secs

     total energy              =    -781.90294640 Ry
     estimated scf accuracy    <       0.00000043 Ry
     electrostatic embedding   =      -0.05320199 Ry
     cavitation energy         =       0.03501171 Ry
     electrolyte free energy   =      -0.00203834 Ry
     correction to one-el term =       7.76991053 Ry

     iteration # 58     ecut=    80.00 Ry     beta= 0.20
     Davidson diagonalization with overlap

---- Real-time Memory Report at c_bands before calling an iterative solver
          2009 MiB given to the printing process from OS
             0 MiB allocation reported by mallinfo(arena+hblkhd)
        614929 MiB available memory on the node where the printing process lives
------------------
     ethr =  2.76E-10,  avg # of iterations =  4.3

     negative rho (up, down):  6.120E-04 0.000E+00

     add environment contribution to local potential

     total cpu time spent up to now is     1080.0 secs

     total energy              =    -781.90294670 Ry
     estimated scf accuracy    <       0.00000027 Ry
     electrostatic embedding   =      -0.05326725 Ry
     cavitation energy         =       0.03501171 Ry
     electrolyte free energy   =      -0.00203870 Ry
     correction to one-el term =       7.78062202 Ry

     iteration # 59     ecut=    80.00 Ry     beta= 0.20
     Davidson diagonalization with overlap

---- Real-time Memory Report at c_bands before calling an iterative solver
          2015 MiB given to the printing process from OS
             0 MiB allocation reported by mallinfo(arena+hblkhd)
        614927 MiB available memory on the node where the printing process lives
------------------
     ethr =  1.72E-10,  avg # of iterations =  1.7

     negative rho (up, down):  6.026E-04 0.000E+00

     add environment contribution to local potential

     total cpu time spent up to now is     1097.1 secs

     total energy              =    -781.90294697 Ry
     estimated scf accuracy    <       0.00000025 Ry
     electrostatic embedding   =      -0.05327669 Ry
     cavitation energy         =       0.03501171 Ry
     electrolyte free energy   =      -0.00203896 Ry
     correction to one-el term =       7.77986415 Ry

     iteration # 60     ecut=    80.00 Ry     beta= 0.20
     Davidson diagonalization with overlap

---- Real-time Memory Report at c_bands before calling an iterative solver
          2021 MiB given to the printing process from OS
             0 MiB allocation reported by mallinfo(arena+hblkhd)
        614919 MiB available memory on the node where the printing process lives
------------------
     ethr =  1.61E-10,  avg # of iterations =  2.0

     negative rho (up, down):  6.233E-04 0.000E+00

     add environment contribution to local potential

     total cpu time spent up to now is     1114.2 secs

     total energy              =    -781.90294700 Ry
     estimated scf accuracy    <       0.00000017 Ry
     electrostatic embedding   =      -0.05331655 Ry
     cavitation energy         =       0.03501171 Ry
     electrolyte free energy   =      -0.00204029 Ry
     correction to one-el term =       7.78047479 Ry

     iteration # 61     ecut=    80.00 Ry     beta= 0.20
     Davidson diagonalization with overlap

---- Real-time Memory Report at c_bands before calling an iterative solver
          2029 MiB given to the printing process from OS
             0 MiB allocation reported by mallinfo(arena+hblkhd)
        614917 MiB available memory on the node where the printing process lives
------------------
     ethr =  1.12E-10,  avg # of iterations =  2.0

     negative rho (up, down):  6.207E-04 0.000E+00

     add environment contribution to local potential

     total cpu time spent up to now is     1131.2 secs

     total energy              =    -781.90294700 Ry
     estimated scf accuracy    <       0.00000015 Ry
     electrostatic embedding   =      -0.05333045 Ry
     cavitation energy         =       0.03501171 Ry
     electrolyte free energy   =      -0.00204067 Ry
     correction to one-el term =       7.78295981 Ry

     iteration # 62     ecut=    80.00 Ry     beta= 0.20
     Davidson diagonalization with overlap

---- Real-time Memory Report at c_bands before calling an iterative solver
          2036 MiB given to the printing process from OS
             0 MiB allocation reported by mallinfo(arena+hblkhd)
        614915 MiB available memory on the node where the printing process lives
------------------
     ethr =  9.49E-11,  avg # of iterations =  2.8

     negative rho (up, down):  5.994E-04 0.000E+00

     add environment contribution to local potential

     total cpu time spent up to now is     1148.9 secs

     total energy              =    -781.90294699 Ry
     estimated scf accuracy    <       0.00000007 Ry
     electrostatic embedding   =      -0.05335183 Ry
     cavitation energy         =       0.03501171 Ry
     electrolyte free energy   =      -0.00204133 Ry
     correction to one-el term =       7.78633491 Ry

     iteration # 63     ecut=    80.00 Ry     beta= 0.20
     Davidson diagonalization with overlap

---- Real-time Memory Report at c_bands before calling an iterative solver
          2046 MiB given to the printing process from OS
             0 MiB allocation reported by mallinfo(arena+hblkhd)
        614917 MiB available memory on the node where the printing process lives
------------------
     ethr =  4.57E-11,  avg # of iterations =  4.0

     negative rho (up, down):  5.656E-04 0.000E+00

     add environment contribution to local potential

     total cpu time spent up to now is     1167.2 secs

     total energy              =    -781.90294700 Ry
     estimated scf accuracy    <       0.00000006 Ry
[...]
     atom   50 type  1   force =    -0.00000005   -0.59195148  -12.96805746
     atom   51 type  1   force =    -0.00000005   -0.18744516   11.03311611
     atom   52 type  1   force =     0.00000018    0.26841631    8.27978791
     The local contribution  to forces
     atom    1 type  1   force =     0.00000349    0.51071852  -11.84742376
     atom    2 type  1   force =     0.00000348    0.10012135   -7.36827029
     atom    3 type  1   force =     0.00000349   -0.37246835   -9.51018914
     atom    4 type  1   force =     0.00000349    0.03287337   -5.18878267
     atom    5 type  1   force =     0.00000349    0.04716947   -0.58755755
     atom    6 type  1   force =     0.00000349    0.09826675    3.73987733
     atom    7 type  1   force =     0.00000349   -0.06388393   -2.79680596
     atom    8 type  1   force =     0.00000349   -0.05010677    1.87243225
     atom    9 type  1   force =     0.00000348   -0.19630001    6.29807208
     atom   10 type  1   force =     0.00000349   -0.17250201   11.06732491
     atom   11 type  1   force =     0.00000349    0.24995840    8.28119628
     atom   12 type  1   force =     0.00000349   -0.30515005   12.54311104
     atom   13 type  1   force =     0.00000350   -0.57540634  -13.07817482
     atom   14 type  1   force =     0.00000431    0.19631533   -6.29807052
     atom   15 type  1   force =     0.00000432    0.05010146   -1.87242727
     atom   16 type  1   force =     0.00000443   -0.09827081   -3.73988153
     atom   17 type  1   force =     0.00000456   -0.04715700    0.58755153
     atom   18 type  1   force =     0.00000463   -0.03287120    5.18877152
     atom   19 type  1   force =     0.00000428    0.37245871    9.51017018
     atom   20 type  1   force =     0.00000411    0.06387329    2.79682961
     atom   21 type  1   force =     0.00000423   -0.10012304    7.36827887
     atom   22 type  1   force =     0.00000446   -0.51071098   11.84742890
     atom   23 type  1   force =     0.00000476    0.30515246  -12.54310688
     atom   24 type  1   force =     0.00000437    0.57540661   13.07817392
     atom   25 type  1   force =     0.00000464    0.17249739  -11.06733250
     atom   26 type  1   force =     0.00000458   -0.24996270   -8.28117798
     atom   27 type  1   force =     0.00000441    0.51071856  -11.84742344
     atom   28 type  1   force =     0.00000440    0.10012151   -7.36826953
     atom   29 type  1   force =     0.00000441   -0.37246851   -9.51019009
     atom   30 type  1   force =     0.00000441    0.03287326   -5.18878308
     atom   31 type  1   force =     0.00000441    0.04716955   -0.58755787
     atom   32 type  1   force =     0.00000441    0.09826661    3.73987691
     atom   33 type  1   force =     0.00000441   -0.06388402   -2.79680568
     atom   34 type  1   force =     0.00000441   -0.05010665    1.87243256
     atom   35 type  1   force =     0.00000499   -0.19629993    6.29807232
     atom   36 type  1   force =     0.00000441   -0.17250189   11.06732572
     atom   37 type  1   force =     0.00000441    0.24995836    8.28119603
     atom   38 type  1   force =     0.00000442   -0.30515012   12.54311106
     atom   39 type  1   force =     0.00000442   -0.57540633  -13.07817511
     atom   40 type  1   force =     0.00000450    0.19631533   -6.29807112
     atom   41 type  1   force =     0.00000450    0.05010146   -1.87242727
     atom   42 type  1   force =     0.00000438   -0.09827081   -3.73988214
     atom   43 type  1   force =     0.00000484   -0.04715700    0.58755153
     atom   44 type  1   force =     0.00000477   -0.03287120    5.18877152
     atom   45 type  1   force =     0.00000454    0.37245929    9.51017019
     atom   46 type  1   force =     0.00000470    0.06387387    2.79682961
     atom   47 type  1   force =     0.00000458   -0.10012304    7.36827887
     atom   48 type  1   force =     0.00000495   -0.51071098   11.84742830
     atom   49 type  1   force =     0.00000465    0.30515305  -12.54310688
     atom   50 type  1   force =     0.00000448    0.57540603   13.07817392
     atom   51 type  1   force =     0.00000476    0.17249739  -11.06733250
     atom   52 type  1   force =     0.00000423   -0.24996270   -8.28117798
     The core correction contribution to forces
     atom    1 type  1   force =     0.00000000    0.00000000    0.00000000
     atom    2 type  1   force =     0.00000000    0.00000000    0.00000000
     atom    3 type  1   force =     0.00000000    0.00000000    0.00000000
     atom    4 type  1   force =     0.00000000    0.00000000    0.00000000
     atom    5 type  1   force =     0.00000000    0.00000000    0.00000000
     atom    6 type  1   force =     0.00000000    0.00000000    0.00000000
     atom    7 type  1   force =     0.00000000    0.00000000    0.00000000
     atom    8 type  1   force =     0.00000000    0.00000000    0.00000000
     atom    9 type  1   force =     0.00000000    0.00000000    0.00000000
     atom   10 type  1   force =     0.00000000    0.00000000    0.00000000
     atom   11 type  1   force =     0.00000000    0.00000000    0.00000000
     atom   12 type  1   force =     0.00000000    0.00000000    0.00000000
     atom   13 type  1   force =     0.00000000    0.00000000    0.00000000
     atom   14 type  1   force =     0.00000000    0.00000000    0.00000000
     atom   15 type  1   force =     0.00000000    0.00000000    0.00000000
     atom   16 type  1   force =     0.00000000    0.00000000    0.00000000
     atom   17 type  1   force =     0.00000000    0.00000000    0.00000000
     atom   18 type  1   force =     0.00000000    0.00000000    0.00000000
     atom   19 type  1   force =     0.00000000    0.00000000    0.00000000
     atom   20 type  1   force =     0.00000000    0.00000000    0.00000000
     atom   21 type  1   force =     0.00000000    0.00000000    0.00000000
     atom   22 type  1   force =     0.00000000    0.00000000    0.00000000
     atom   23 type  1   force =     0.00000000    0.00000000    0.00000000
     atom   24 type  1   force =     0.00000000    0.00000000    0.00000000
     atom   25 type  1   force =     0.00000000    0.00000000    0.00000000
     atom   26 type  1   force =     0.00000000    0.00000000    0.00000000
     atom   27 type  1   force =     0.00000000    0.00000000    0.00000000
     atom   28 type  1   force =     0.00000000    0.00000000    0.00000000
     atom   29 type  1   force =     0.00000000    0.00000000    0.00000000
     atom   30 type  1   force =     0.00000000    0.00000000    0.00000000
     atom   31 type  1   force =     0.00000000    0.00000000    0.00000000
     atom   32 type  1   force =     0.00000000    0.00000000    0.00000000
     atom   33 type  1   force =     0.00000000    0.00000000    0.00000000
     atom   34 type  1   force =     0.00000000    0.00000000    0.00000000
     atom   35 type  1   force =     0.00000000    0.00000000    0.00000000
     atom   36 type  1   force =     0.00000000    0.00000000    0.00000000
     atom   37 type  1   force =     0.00000000    0.00000000    0.00000000
     atom   38 type  1   force =     0.00000000    0.00000000    0.00000000
     atom   39 type  1   force =     0.00000000    0.00000000    0.00000000
     atom   40 type  1   force =     0.00000000    0.00000000    0.00000000
     atom   41 type  1   force =     0.00000000    0.00000000    0.00000000
     atom   42 type  1   force =     0.00000000    0.00000000    0.00000000
     atom   43 type  1   force =     0.00000000    0.00000000    0.00000000
     atom   44 type  1   force =     0.00000000    0.00000000    0.00000000
     atom   45 type  1   force =     0.00000000    0.00000000    0.00000000
     atom   46 type  1   force =     0.00000000    0.00000000    0.00000000
     atom   47 type  1   force =     0.00000000    0.00000000    0.00000000
     atom   48 type  1   force =     0.00000000    0.00000000    0.00000000
     atom   49 type  1   force =     0.00000000    0.00000000    0.00000000
     atom   50 type  1   force =     0.00000000    0.00000000    0.00000000
     atom   51 type  1   force =     0.00000000    0.00000000    0.00000000
     atom   52 type  1   force =     0.00000000    0.00000000    0.00000000
     The Hubbard contrib.    to forces
     atom    1 type  1   force =     0.00000000    0.00000000    0.00000000
     atom    2 type  1   force =     0.00000000    0.00000000    0.00000000
     atom    3 type  1   force =     0.00000000    0.00000000    0.00000000
     atom    4 type  1   force =     0.00000000    0.00000000    0.00000000
     atom    5 type  1   force =     0.00000000    0.00000000    0.00000000
     atom    6 type  1   force =     0.00000000    0.00000000    0.00000000
     atom    7 type  1   force =     0.00000000    0.00000000    0.00000000
     atom    8 type  1   force =     0.00000000    0.00000000    0.00000000
     atom    9 type  1   force =     0.00000000    0.00000000    0.00000000
     atom   10 type  1   force =     0.00000000    0.00000000    0.00000000
     atom   11 type  1   force =     0.00000000    0.00000000    0.00000000
     atom   12 type  1   force =     0.00000000    0.00000000    0.00000000
     atom   13 type  1   force =     0.00000000    0.00000000    0.00000000
     atom   14 type  1   force =     0.00000000    0.00000000    0.00000000
     atom   15 type  1   force =     0.00000000    0.00000000    0.00000000
     atom   16 type  1   force =     0.00000000    0.00000000    0.00000000
     atom   17 type  1   force =     0.00000000    0.00000000    0.00000000
     atom   18 type  1   force =     0.00000000    0.00000000    0.00000000
     atom   19 type  1   force =     0.00000000    0.00000000    0.00000000
     atom   20 type  1   force =     0.00000000    0.00000000    0.00000000
     atom   21 type  1   force =     0.00000000    0.00000000    0.00000000
     atom   22 type  1   force =     0.00000000    0.00000000    0.00000000
     atom   23 type  1   force =     0.00000000    0.00000000    0.00000000
     atom   24 type  1   force =     0.00000000    0.00000000    0.00000000
     atom   25 type  1   force =     0.00000000    0.00000000    0.00000000
     atom   26 type  1   force =     0.00000000    0.00000000    0.00000000
     atom   27 type  1   force =     0.00000000    0.00000000    0.00000000
     atom   28 type  1   force =     0.00000000    0.00000000    0.00000000
     atom   29 type  1   force =     0.00000000    0.00000000    0.00000000
     atom   30 type  1   force =     0.00000000    0.00000000    0.00000000
     atom   31 type  1   force =     0.00000000    0.00000000    0.00000000
     atom   32 type  1   force =     0.00000000    0.00000000    0.00000000
     atom   33 type  1   force =     0.00000000    0.00000000    0.00000000
     atom   34 type  1   force =     0.00000000    0.00000000    0.00000000
     atom   35 type  1   force =     0.00000000    0.00000000    0.00000000
     atom   36 type  1   force =     0.00000000    0.00000000    0.00000000
     atom   37 type  1   force =     0.00000000    0.00000000    0.00000000
     atom   38 type  1   force =     0.00000000    0.00000000    0.00000000
     atom   39 type  1   force =     0.00000000    0.00000000    0.00000000
     atom   40 type  1   force =     0.00000000    0.00000000    0.00000000
     atom   41 type  1   force =     0.00000000    0.00000000    0.00000000
     atom   42 type  1   force =     0.00000000    0.00000000    0.00000000
     atom   43 type  1   force =     0.00000000    0.00000000    0.00000000
     atom   44 type  1   force =     0.00000000    0.00000000    0.00000000
     atom   45 type  1   force =     0.00000000    0.00000000    0.00000000
     atom   46 type  1   force =     0.00000000    0.00000000    0.00000000
     atom   47 type  1   force =     0.00000000    0.00000000    0.00000000
     atom   48 type  1   force =     0.00000000    0.00000000    0.00000000
     atom   49 type  1   force =     0.00000000    0.00000000    0.00000000
     atom   50 type  1   force =     0.00000000    0.00000000    0.00000000
     atom   51 type  1   force =     0.00000000    0.00000000    0.00000000
     atom   52 type  1   force =     0.00000000    0.00000000    0.00000000
     The SCF correction term to forces
     atom    1 type  1   force =    -0.00000000    0.00000000    0.00000001
     atom    2 type  1   force =    -0.00000000    0.00000002    0.00000000
     atom    3 type  1   force =     0.00000000   -0.00000001    0.00000001
     atom    4 type  1   force =    -0.00000000    0.00000000   -0.00000000
     atom    5 type  1   force =     0.00000000    0.00000001    0.00000000
     atom    6 type  1   force =     0.00000000    0.00000001   -0.00000000
     atom    7 type  1   force =     0.00000000   -0.00000000    0.00000001
     atom    8 type  1   force =    -0.00000000   -0.00000001   -0.00000001
     atom    9 type  1   force =    -0.00000000   -0.00000000   -0.00000000
     atom   10 type  1   force =     0.00000000    0.00000000   -0.00000001
     atom   11 type  1   force =     0.00000000   -0.00000001    0.00000001
     atom   12 type  1   force =     0.00000000   -0.00000000   -0.00000001
     atom   13 type  1   force =     0.00000000   -0.00000001   -0.00000001
     atom   14 type  1   force =    -0.00000000    0.00000001    0.00000001
     atom   15 type  1   force =    -0.00000000    0.00000001    0.00000001
     atom   16 type  1   force =     0.00000000   -0.00000001    0.00000000
     atom   17 type  1   force =    -0.00000000   -0.00000000   -0.00000000
     atom   18 type  1   force =    -0.00000000    0.00000001   -0.00000001
     atom   19 type  1   force =    -0.00000000    0.00000000   -0.00000001
     atom   20 type  1   force =     0.00000000   -0.00000000   -0.00000001
     atom   21 type  1   force =    -0.00000000   -0.00000001   -0.00000001
     atom   22 type  1   force =     0.00000000   -0.00000000   -0.00000001
     atom   23 type  1   force =    -0.00000000    0.00000001    0.00000001
     atom   24 type  1   force =     0.00000000    0.00000001    0.00000000
     atom   25 type  1   force =     0.00000000   -0.00000001    0.00000001
     atom   26 type  1   force =     0.00000000    0.00000000   -0.00000001
     atom   27 type  1   force =     0.00000000    0.00000001    0.00000002
     atom   28 type  1   force =    -0.00000000    0.00000002    0.00000000
     atom   29 type  1   force =     0.00000000   -0.00000002    0.00000001
     atom   30 type  1   force =     0.00000000   -0.00000001    0.00000001
     atom   31 type  1   force =     0.00000000    0.00000000    0.00000000
     atom   32 type  1   force =    -0.00000000    0.00000001    0.00000000
     atom   33 type  1   force =    -0.00000000   -0.00000000    0.00000001
     atom   34 type  1   force =    -0.00000000   -0.00000001   -0.00000001
     atom   35 type  1   force =     0.00000000   -0.00000000   -0.00000001
     atom   36 type  1   force =    -0.00000000    0.00000000   -0.00000001
     atom   37 type  1   force =    -0.00000000   -0.00000001    0.00000001
     atom   38 type  1   force =     0.00000000   -0.00000001   -0.00000001
     atom   39 type  1   force =     0.00000000   -0.00000001   -0.00000001
     atom   40 type  1   force =     0.00000000    0.00000001    0.00000001
     atom   41 type  1   force =     0.00000000    0.00000001    0.00000001
     atom   42 type  1   force =    -0.00000000   -0.00000001    0.00000000
     atom   43 type  1   force =     0.00000000   -0.00000000   -0.00000000
     atom   44 type  1   force =     0.00000000    0.00000001   -0.00000001
     atom   45 type  1   force =     0.00000000    0.00000000   -0.00000001
     atom   46 type  1   force =    -0.00000000   -0.00000000   -0.00000001
     atom   47 type  1   force =     0.00000000   -0.00000001   -0.00000001
     atom   48 type  1   force =    -0.00000000   -0.00000000   -0.00000001
     atom   49 type  1   force =     0.00000000    0.00000001    0.00000001
     atom   50 type  1   force =    -0.00000000    0.00000001    0.00000000
     atom   51 type  1   force =    -0.00000000   -0.00000001    0.00000001
     atom   52 type  1   force =    -0.00000000    0.00000000   -0.00000001

     Total force =     0.000305     Total SCF correction =     0.000000
     Message from routine punch:
     Nothing written, as per user request (disk_io='none')
 
     init_run     :     15.25s CPU     16.49s WALL (       1 calls)
     electrons    :   2514.61s CPU   2541.10s WALL (       1 calls)
     forces       :     31.07s CPU     31.16s WALL (       1 calls)

     Called by init_run:
     wfcinit      :      3.43s CPU      3.69s WALL (       1 calls)
     wfcinit:wfcr :      3.20s CPU      3.45s WALL (      12 calls)
     potinit      :      0.67s CPU      0.72s WALL (       1 calls)
     hinit0       :      3.56s CPU      4.15s WALL (       1 calls)

     Called by electrons:
     c_bands      :   1426.36s CPU   1439.89s WALL (     148 calls)
     sum_band     :    227.69s CPU    233.64s WALL (     148 calls)
     v_of_rho     :     13.79s CPU     14.09s WALL (     149 calls)
     v_h          :      1.26s CPU      1.28s WALL (     149 calls)
     v_xc         :     12.52s CPU     12.81s WALL (     149 calls)
     newd         :     11.60s CPU     14.07s WALL (     149 calls)
     PAW_pot      :      1.91s CPU      1.97s WALL (     149 calls)
     mix_rho      :     40.45s CPU     41.17s WALL (     148 calls)

     Called by c_bands:
     init_us_2    :     46.42s CPU     46.69s WALL (    3576 calls)
     cegterg      :   1309.98s CPU   1323.06s WALL (    1776 calls)

     Called by sum_band:
     sum_band:wei :      0.25s CPU      0.27s WALL (     148 calls)
     sum_band:loo :    208.14s CPU    211.04s WALL (     148 calls)
     sum_band:buf :      4.80s CPU      4.83s WALL (    1776 calls)
     sum_band:ini :     22.52s CPU     22.56s WALL (    1776 calls)
     sum_band:cal :     55.26s CPU     55.50s WALL (    1776 calls)
     sum_band:bec :      1.30s CPU      1.32s WALL (    1776 calls)
     addusdens    :      7.81s CPU     10.47s WALL (     148 calls)
                                        0.00s GPU  (     148 calls)
     addusd:skk   :      1.36s CPU      2.56s WALL (     148 calls)
                                        0.00s GPU  (     148 calls)

     Called by *egterg:
     cdiaghg      :    107.50s CPU    107.69s WALL (    7746 calls)
     cegterg:over :     93.58s CPU     93.71s WALL (    5970 calls)
     cegterg:upda :     46.95s CPU     47.08s WALL (    5970 calls)
     cegterg:last :     73.36s CPU     73.46s WALL (    2946 calls)
     h_psi        :    803.16s CPU    815.57s WALL (    7758 calls)
     s_psi        :    107.44s CPU    107.68s WALL (    7758 calls)
     g_psi        :      0.85s CPU      0.86s WALL (    5970 calls)

     Called by h_psi:
     h_psi:calbec :    140.60s CPU    141.43s WALL (    7758 calls)
     vloc_psi     :    531.51s CPU    542.82s WALL (    7758 calls)
                                        0.00s GPU  (    7758 calls)
     add_vuspsi   :    124.30s CPU    124.53s WALL (    7758 calls)

     General routines
     calbec       :    197.12s CPU    198.22s WALL (    9582 calls)
     fft          :     10.86s CPU     10.93s WALL (    1937 calls)
     ffts         :     24.44s CPU     24.66s WALL (   18378 calls)
     fftw         :    614.15s CPU    627.27s WALL ( 1109528 calls)
     interpolate  :      1.08s CPU      1.08s WALL (     149 calls)
 
     Parallel routines

     PAW routines
     PAW_pot      :      1.91s CPU      1.97s WALL (     149 calls)
     PAW_symme    :      0.13s CPU      0.14s WALL (     297 calls)
 
     Environ routines
 
     PWSCF        :  42m45.47s CPU  43m14.01s WALL

 
   This run was terminated on:  18:41: 2  28Dec2024            

=------------------------------------------------------------------------------=
   JOB DONE.
=------------------------------------------------------------------------------=
