
     Program PWSCF v.7.4 starts on  6Jan2025 at 18:44:44 
        Git branch: develop
        Last git commit: e877ff360aceba4b8d76ffc2fb1c70545fc5dd57
        Last git commit date: Sat Jan 4 12:56:15 2025 +0000
        Last git commit subject: Merge branch 'orthoU' into 'develop'

     This program is part of the open-source Quantum ESPRESSO suite
     for quantum simulation of materials; please cite
         "P. Giannozzi et al., J. Phys.:Condens. Matter 21 395502 (2009);
         "P. Giannozzi et al., J. Phys.:Condens. Matter 29 465901 (2017);
         "P. Giannozzi et al., J. Chem. Phys. 152 154105 (2020);
          URL http://www.quantum-espresso.org", 
     in publications or presentations arising from this work. More details at
     http://www.quantum-espresso.org/quote

     Parallel version (MPI), running on   360 processors

     MPI processes distributed on     9 nodes
     177099 MiB available memory on the printing compute node when the environment starts
 
     Reading input from espresso.pwi
Warning: card &CELL ignored
Warning: card    PRESS_CONV_THR   = 0.1 ignored
Warning: card    CELL_DOFREE      = 'ALL' ignored
Warning: card / ignored
Warning: card &FCP ignored
Warning: card / ignored
Warning: card &RISM ignored
Warning: card / ignored

     Current dimensions of program PWSCF are:
     Max number of different atomic species (ntypx) = 10
     Max number of k-points (npk) =  40000
     Max angular momentum in pseudopotentials (lmaxx) =  4

     IMPORTANT: XC functional enforced from input :
     Exchange-correlation= PBE
                           (   1   4   3   4   0   0   0)
     Any further DFT definition will be discarded
     Please, verify this is what you really want

 
     Reading input from environ.in:
     * using ionic solvent mode
     * setting boundary derivatives method to SSCS default
     * setting electrolyte-boundary derivatives method to SSCS default

Environ Warning (1001): card EOF ignored

     
 
     K-points division:     npool     =       2
     R & G space division:  proc/nbgrp/npool/nimage =     180
     Subspace diagonalization in iterative solution of the eigenvalue problem:
     a serial algorithm will be used

 
     Parallelization info
     --------------------
     sticks:   dense  smooth     PW     G-vecs:    dense   smooth      PW
     Min          72      29      7                38906     9837    1323
     Max          73      30      8                38983     9869    1382
     Sum       13133    5269   1401              7013397  1773951  244485
 
     Using Slab Decomposition
 


     bravais-lattice index     =            8
     lattice parameter (alat)  =      11.2436  a.u.
     unit-cell volume          =   18353.5537 (a.u.)^3
     number of atoms/cell      =           24
     number of atomic types    =            1
     number of electrons       =        72.00
     number of Kohn-Sham states=           54
     kinetic-energy cutoff     =      80.0000  Ry
     charge density cutoff     =     800.0000  Ry
     scf convergence threshold =      1.0E-06
     mixing beta               =       0.2000
     number of iterations used =            8  local-TF  mixing
     energy convergence thresh.=      1.0E-05
     force convergence thresh. =      3.9E-04
     Exchange-correlation= PBE
                           (   1   4   3   4   0   0   0)
     nstep                     =          999


     ================================================================================
 
                                  Environ Setup Summary

     ================================================================================
 
     Please cite

          O. Andreussi, I. Dabo and N. Marzari, J. Chem. Phys. 136, 064102 (2012)
          F. Nattino, M. Truscott, N. Marzari, and O. Andreussi, J. Chem. Phys. 150, 041722 (2019)

     in publications or presentations arising from this work.

     ================================================================================
 
     Parameters
     ==========

     compensation onset threshold      =               0.1000E+00
     static permittivity               =                    89.90
     surface tension in input (dyn/cm) =                    37.30
     surface tension in internal units =               0.4792E-04

     Solvent Boundary
     ================

     solvent mode                      =                    ionic
     derivatives method                =                   lowmem
     electrolyte derivatives method    =                   lowmem
     numerical core for derivatives    =                      fft
     switching function adopted        =                     SCCS
     density limit for vacuum region   =               0.5000E-02
     density limit for bulk solvent    =               0.1000E-03
     soft-sphere radius mode           =                    bondi
     soft-sphere softness              =                     0.50
     alpha                             =                     1.32

     Electrostatic Setup
     ===================

     electrostatic problem to solve    =                    modpb
     numerical solver adopted          =                   newton
     type of auxiliary density adopted =                     none
     numerical core for poisson        =                      fft
     adopting a nested solver scheme
     inner solver                      =                       cg
     inner core                        =                      fft
     type of pbc corrections           =                parabolic
     numerical core for corrections    =                      1da

     ================================================================================
 

     >>>>> Grand-Canonical SCF is activated <<<<<
     Initial Total Charge  =     0.000000 e
     Target Fermi Energy   =    -4.404000 eV
     Thr. of Fermi Energy  =     0.001000 eV
     Wave-shift of Kerker  =     0.400000 bohr^-1
     Wave-shift of Hartree =     1.500000 bohr^-1
     Mixing Rate of Fermi  =     0.050000

     celldm(1)=  11.243615  celldm(2)=   1.632993  celldm(3)=   7.907113
     celldm(4)=   0.000000  celldm(5)=   0.000000  celldm(6)=   0.000000

     crystal axes: (cart. coord. in units of alat)
               a(1) = (   1.000000   0.000000   0.000000 )  
               a(2) = (   0.000000   1.632993   0.000000 )  
               a(3) = (   0.000000   0.000000   7.907113 )  

     reciprocal axes: (cart. coord. in units 2 pi/alat)
               b(1) = (  1.000000  0.000000  0.000000 )  
               b(2) = (  0.000000  0.612372  0.000000 )  
               b(3) = (  0.000000  0.000000  0.126468 )  


     PseudoPot. # 1 for Li read from file:
     /home/mmm1182/Repos/Pseudopotentials/pslibrary/Li.pbe-sl-kjpaw_psl.1.0.0.UPF
     MD5 check sum: f40bb4162937df3f7c561f1969c76545
     Pseudo is Projector augmented-wave, Zval =  3.0
     Generated using 'atomic' code by A. Dal Corso  v.7.3.1
     Shape of augmentation charge: PSQ
     Using radial grid of 1017 points,  4 beta functions with: 
                l(1) =   0
                l(2) =   0
                l(3) =   1
                l(4) =   1
     Q(r) pseudized with 0 coefficients 


     atomic species   valence    mass     pseudopotential
     Li                3.00     6.94000     Li( 1.00)

      2 Sym. Ops. (no inversion) found


                                    s                        frac. trans.

      isym =  1     identity                                     

 cryst.   s( 1) = (     1          0          0      )
                  (     0          1          0      )
                  (     0          0          1      )

 cart.    s( 1) = (  1.0000000  0.0000000  0.0000000 )
                  (  0.0000000  1.0000000  0.0000000 )
                  (  0.0000000  0.0000000  1.0000000 )


      isym =  2     inv. 180 deg rotation - cart. axis [0,1,0]   

 cryst.   s( 2) = (     1          0          0      )
                  (     0         -1          0      )
                  (     0          0          1      )

 cart.    s( 2) = (  1.0000000  0.0000000  0.0000000 )
                  (  0.0000000 -1.0000000  0.0000000 )
                  (  0.0000000  0.0000000  1.0000000 )


     point group C_s (m)    
     there are  2 classes
     the character table:

       E     s    
A'     1.00  1.00
A''    1.00 -1.00

     the symmetry operations in each class and the name of the first element:

     E        1
          identity                                               
     s        2
          inv. 180 deg rotation - cart. axis [0,1,0]             

   Cartesian axes

     site n.     atom                  positions (alat units)
         1        Li     tau(   1) = (   0.5292707   0.8164966   4.5733543  )
         2        Li     tau(   2) = (   0.1373748   0.4082812   3.3337026  )
         3        Li     tau(   3) = (   0.3317419   0.8164966   3.6230168  )
         4        Li     tau(   4) = (   0.5351608   0.4082496   3.8117829  )
         5        Li     tau(   5) = (   0.1314428   0.8164966   4.0953911  )
         6        Li     tau(   6) = (   0.3350014   0.4082609   4.2841457  )
         7        Li     tau(   7) = (   0.5292110   1.6329931   4.5733485  )
         8        Li     tau(   8) = (   0.1373748   1.2247120   3.3337027  )
         9        Li     tau(   9) = (   0.3316668   1.6329931   3.6230166  )
        10        Li     tau(  10) = (   0.5351608   1.2247436   3.8117830  )
        11        Li     tau(  11) = (   0.1314649   1.6329931   4.0952746  )
        12        Li     tau(  12) = (   0.3350014   1.2247324   4.2841457  )
        13        Li     tau(  13) = (   1.0294751   0.8164966   4.5733361  )
        14        Li     tau(  14) = (   0.6372938   0.4082947   3.3336810  )
        15        Li     tau(  15) = (   0.8317283   0.8164966   3.6230261  )
        16        Li     tau(  16) = (   1.0351265   0.4081921   3.8117686  )
        17        Li     tau(  17) = (   0.6315159   0.8164966   4.0954071  )
        18        Li     tau(  18) = (   0.8348722   0.4082466   4.2841135  )
        19        Li     tau(  19) = (   1.0294592   1.6329931   4.5733891  )
        20        Li     tau(  20) = (   0.6372937   1.2246985   3.3336810  )
        21        Li     tau(  21) = (   0.8318063   1.6329931   3.6230396  )
        22        Li     tau(  22) = (   1.0351264   1.2248012   3.8117686  )
        23        Li     tau(  23) = (   0.6315589   1.6329931   4.0953298  )
        24        Li     tau(  24) = (   0.8348722   1.2247467   4.2841135  )

   Crystallographic axes

     site n.     atom                  positions (cryst. coord.)
         1        Li     tau(   1) = (  0.5292707  0.5000001  0.5783848  )
         2        Li     tau(   2) = (  0.1373748  0.2500202  0.4216081  )
         3        Li     tau(   3) = (  0.3317419  0.5000001  0.4581972  )
         4        Li     tau(   4) = (  0.5351608  0.2500009  0.4820701  )
         5        Li     tau(   5) = (  0.1314428  0.5000001  0.5179376  )
         6        Li     tau(   6) = (  0.3350014  0.2500077  0.5418091  )
         7        Li     tau(   7) = (  0.5292110  1.0000001  0.5783841  )
         8        Li     tau(   8) = (  0.1373748  0.7499800  0.4216081  )
         9        Li     tau(   9) = (  0.3316668  1.0000001  0.4581971  )
        10        Li     tau(  10) = (  0.5351608  0.7499993  0.4820701  )
        11        Li     tau(  11) = (  0.1314649  1.0000001  0.5179229  )
        12        Li     tau(  12) = (  0.3350014  0.7499924  0.5418091  )
        13        Li     tau(  13) = (  1.0294751  0.5000001  0.5783825  )
        14        Li     tau(  14) = (  0.6372938  0.2500285  0.4216053  )
        15        Li     tau(  15) = (  0.8317283  0.5000001  0.4581983  )
        16        Li     tau(  16) = (  1.0351265  0.2499656  0.4820683  )
        17        Li     tau(  17) = (  0.6315159  0.5000001  0.5179396  )
        18        Li     tau(  18) = (  0.8348722  0.2499990  0.5418050  )
        19        Li     tau(  19) = (  1.0294592  1.0000001  0.5783892  )
        20        Li     tau(  20) = (  0.6372937  0.7499717  0.4216053  )
        21        Li     tau(  21) = (  0.8318063  1.0000001  0.4582000  )
        22        Li     tau(  22) = (  1.0351264  0.7500346  0.4820683  )
        23        Li     tau(  23) = (  0.6315589  1.0000001  0.5179298  )
        24        Li     tau(  24) = (  0.8348722  0.7500012  0.5418050  )

     number of k points=    24  Marzari-Vanderbilt smearing, width (Ry)=  0.0100
                       cart. coord. in units 2pi/alat
        k(    1) = (   0.0000000   0.0000000   0.0000000), wk =   0.0259740
        k(    2) = (   0.0000000   0.0874818   0.0000000), wk =   0.0519481
        k(    3) = (   0.0000000   0.1749636   0.0000000), wk =   0.0519481
        k(    4) = (   0.0000000   0.2624454   0.0000000), wk =   0.0519481
        k(    5) = (   0.0909091   0.0000000   0.0000000), wk =   0.0519481
        k(    6) = (   0.0909091   0.0874818   0.0000000), wk =   0.1038961
        k(    7) = (   0.0909091   0.1749636   0.0000000), wk =   0.1038961
        k(    8) = (   0.0909091   0.2624454   0.0000000), wk =   0.1038961
        k(    9) = (   0.1818182   0.0000000   0.0000000), wk =   0.0519481
        k(   10) = (   0.1818182   0.0874818   0.0000000), wk =   0.1038961
        k(   11) = (   0.1818182   0.1749636   0.0000000), wk =   0.1038961
        k(   12) = (   0.1818182   0.2624454   0.0000000), wk =   0.1038961
        k(   13) = (   0.2727273   0.0000000   0.0000000), wk =   0.0519481
        k(   14) = (   0.2727273   0.0874818   0.0000000), wk =   0.1038961
        k(   15) = (   0.2727273   0.1749636   0.0000000), wk =   0.1038961
        k(   16) = (   0.2727273   0.2624454   0.0000000), wk =   0.1038961
        k(   17) = (   0.3636364   0.0000000   0.0000000), wk =   0.0519481
        k(   18) = (   0.3636364   0.0874818   0.0000000), wk =   0.1038961
        k(   19) = (   0.3636364   0.1749636   0.0000000), wk =   0.1038961
        k(   20) = (   0.3636364   0.2624454   0.0000000), wk =   0.1038961
        k(   21) = (   0.4545455   0.0000000   0.0000000), wk =   0.0519481
        k(   22) = (   0.4545455   0.0874818   0.0000000), wk =   0.1038961
        k(   23) = (   0.4545455   0.1749636   0.0000000), wk =   0.1038961
        k(   24) = (   0.4545455   0.2624454   0.0000000), wk =   0.1038961

                       cryst. coord.
        k(    1) = (   0.0000000   0.0000000   0.0000000), wk =   0.0259740
        k(    2) = (   0.0000000   0.1428571   0.0000000), wk =   0.0519481
        k(    3) = (   0.0000000   0.2857143   0.0000000), wk =   0.0519481
        k(    4) = (   0.0000000   0.4285714   0.0000000), wk =   0.0519481
        k(    5) = (   0.0909091   0.0000000   0.0000000), wk =   0.0519481
        k(    6) = (   0.0909091   0.1428571   0.0000000), wk =   0.1038961
        k(    7) = (   0.0909091   0.2857143   0.0000000), wk =   0.1038961
        k(    8) = (   0.0909091   0.4285714   0.0000000), wk =   0.1038961
        k(    9) = (   0.1818182   0.0000000   0.0000000), wk =   0.0519481
        k(   10) = (   0.1818182   0.1428571   0.0000000), wk =   0.1038961
        k(   11) = (   0.1818182   0.2857143   0.0000000), wk =   0.1038961
        k(   12) = (   0.1818182   0.4285714   0.0000000), wk =   0.1038961
        k(   13) = (   0.2727273   0.0000000   0.0000000), wk =   0.0519481
        k(   14) = (   0.2727273   0.1428571   0.0000000), wk =   0.1038961
        k(   15) = (   0.2727273   0.2857143   0.0000000), wk =   0.1038961
        k(   16) = (   0.2727273   0.4285714   0.0000000), wk =   0.1038961
        k(   17) = (   0.3636364   0.0000000   0.0000000), wk =   0.0519481
        k(   18) = (   0.3636364   0.1428571   0.0000000), wk =   0.1038961
        k(   19) = (   0.3636364   0.2857143   0.0000000), wk =   0.1038961
        k(   20) = (   0.3636364   0.4285714   0.0000000), wk =   0.1038961
        k(   21) = (   0.4545455   0.0000000   0.0000000), wk =   0.0519481
        k(   22) = (   0.4545455   0.1428571   0.0000000), wk =   0.1038961
        k(   23) = (   0.4545455   0.2857143   0.0000000), wk =   0.1038961
        k(   24) = (   0.4545455   0.4285714   0.0000000), wk =   0.1038961

     Dense  grid:  7013397 G-vectors     FFT dimensions: ( 108, 180, 810)

     Smooth grid:  1773951 G-vectors     FFT dimensions: (  72, 108, 512)

     Dynamical RAM for                 wfc:       1.02 MB

     Dynamical RAM for     wfc (w. buffer):      13.20 MB

     Dynamical RAM for           str. fact:       0.59 MB

     Dynamical RAM for           local pot:       0.00 MB

     Dynamical RAM for          nlocal pot:       3.61 MB

     Dynamical RAM for                qrad:       0.65 MB

     Dynamical RAM for          rho,v,vnew:       4.01 MB

     Dynamical RAM for               rhoin:       1.34 MB

     Dynamical RAM for            rho*nmix:       9.50 MB

     Dynamical RAM for           G-vectors:       2.30 MB

     Dynamical RAM for          h,s,v(r/c):       2.14 MB

     Dynamical RAM for          <psi|beta>:       0.16 MB

     Dynamical RAM for                 psi:       4.06 MB

     Dynamical RAM for                hpsi:       4.06 MB

     Dynamical RAM for                spsi:       4.06 MB

     Dynamical RAM for      wfcinit/wfcrot:       2.10 MB

     Dynamical RAM for           addusdens:      20.19 MB

     Dynamical RAM for          addusforce:      33.86 MB

     Estimated static dynamical RAM per process >      30.59 MB

     Estimated max dynamical RAM per process >     107.02 MB

     Estimated total dynamical RAM >      24.33 GB

     Initial potential from superposition of free atoms

     starting charge      71.8894, renormalised to      72.0000

     negative rho (up, down):  3.028E-03 0.000E+00
     Starting wfcs are random
     Checking if some PAW data can be deallocated... 

     total cpu time spent up to now is        9.4 secs

     per-process dynamical memory:   128.2 Mb

     Self-consistent Calculation

     iteration #  1     ecut=    80.00 Ry     beta= 0.20
     Davidson diagonalization with overlap

---- Real-time Memory Report at c_bands before calling an iterative solver
           439 MiB given to the printing process from OS
           125 MiB allocation reported by mallinfo(arena+hblkhd)
        172757 MiB available memory on the node where the printing process lives
------------------
     c_bands:  1 eigenvalues not converged
     c_bands:  2 eigenvalues not converged
     c_bands:  1 eigenvalues not converged
     ethr =  1.00E-12,  avg # of iterations =109.4

     negative rho (up, down):  2.235E-03 0.000E+00

     total cpu time spent up to now is       72.2 secs

     total energy              =    -360.85794220 Ry
     estimated scf accuracy    <       0.11479506 Ry

     total charge of GC-SCF    =       0.06924963 e
     the Fermi energy          =      -4.64109495 eV
                        (error :       0.23709495 eV)
     electrostatic embedding   =       0.00000000 Ry
     cavitation energy         =       0.02597238 Ry
     electrolyte free energy   =       0.00789959 Ry
     correction to one-el term =       0.00000000 Ry

     iteration #  2     ecut=    80.00 Ry     beta= 0.20
     Davidson diagonalization with overlap

---- Real-time Memory Report at c_bands before calling an iterative solver
           439 MiB given to the printing process from OS
           166 MiB allocation reported by mallinfo(arena+hblkhd)
        171547 MiB available memory on the node where the printing process lives
------------------
     ethr =  1.00E-05,  avg # of iterations =  8.7

     negative rho (up, down):  1.582E-03 0.000E+00

     add environment contribution to local potential

     total cpu time spent up to now is       85.4 secs

     total energy              =    -360.69417599 Ry
     estimated scf accuracy    <       0.04507598 Ry

     total charge of GC-SCF    =       0.18747109 e
     the Fermi energy          =      -4.30155225 eV
                        (error :       0.10244775 eV)
     electrostatic embedding   =       0.00042673 Ry
     cavitation energy         =       0.02597238 Ry
     electrolyte free energy   =       0.00789959 Ry
     correction to one-el term =       0.00000000 Ry

     iteration #  3     ecut=    80.00 Ry     beta= 0.20
     Davidson diagonalization with overlap

---- Real-time Memory Report at c_bands before calling an iterative solver
           439 MiB given to the printing process from OS
           166 MiB allocation reported by mallinfo(arena+hblkhd)
        171500 MiB available memory on the node where the printing process lives
------------------
     ethr =  1.00E-05,  avg # of iterations = 20.4

     negative rho (up, down):  1.282E-03 0.000E+00

     add environment contribution to local potential

     total cpu time spent up to now is      103.0 secs

     total energy              =    -360.84253401 Ry
     estimated scf accuracy    <       0.01101328 Ry

     total charge of GC-SCF    =       0.26937157 e
     the Fermi energy          =      -3.02535691 eV
                        (error :       1.37864309 eV)
     electrostatic embedding   =      -0.03223368 Ry
     cavitation energy         =       0.02597238 Ry
     electrolyte free energy   =      -0.00333292 Ry
     correction to one-el term =      -5.77614049 Ry

     iteration #  4     ecut=    80.00 Ry     beta= 0.20
     Davidson diagonalization with overlap

---- Real-time Memory Report at c_bands before calling an iterative solver
           439 MiB given to the printing process from OS
           166 MiB allocation reported by mallinfo(arena+hblkhd)
        171543 MiB available memory on the node where the printing process lives
------------------
     ethr =  1.00E-05,  avg # of iterations =  8.7

     negative rho (up, down):  1.000E-03 0.000E+00

     add environment contribution to local potential

     total cpu time spent up to now is      115.5 secs

     total energy              =    -360.79416134 Ry
     estimated scf accuracy    <       0.00876262 Ry

     total charge of GC-SCF    =       0.63973517 e
     the Fermi energy          =      -3.31313886 eV
                        (error :       1.09086114 eV)
     electrostatic embedding   =      -0.03691491 Ry
     cavitation energy         =       0.02597238 Ry
     electrolyte free energy   =      -0.00419942 Ry
     correction to one-el term =      -7.65776660 Ry

     iteration #  5     ecut=    80.00 Ry     beta= 0.20
     Davidson diagonalization with overlap

---- Real-time Memory Report at c_bands before calling an iterative solver
           439 MiB given to the printing process from OS
           166 MiB allocation reported by mallinfo(arena+hblkhd)
        171544 MiB available memory on the node where the printing process lives
------------------
     ethr =  1.00E-05,  avg # of iterations = 11.1

     negative rho (up, down):  8.289E-04 0.000E+00

     add environment contribution to local potential

     total cpu time spent up to now is      129.0 secs

     total energy              =    -360.85718103 Ry
     estimated scf accuracy    <       0.00260300 Ry

     total charge of GC-SCF    =       0.92770681 e
     the Fermi energy          =      -3.12262983 eV
                        (error :       1.28137017 eV)
     electrostatic embedding   =      -0.09435039 Ry
     cavitation energy         =       0.02597238 Ry
     electrolyte free energy   =      -0.00369445 Ry
     correction to one-el term =     -16.38843137 Ry

     iteration #  6     ecut=    80.00 Ry     beta= 0.20
     Davidson diagonalization with overlap

---- Real-time Memory Report at c_bands before calling an iterative solver
           439 MiB given to the printing process from OS
           166 MiB allocation reported by mallinfo(arena+hblkhd)
        171543 MiB available memory on the node where the printing process lives
------------------
     ethr =  3.66E-06,  avg # of iterations = 21.7

     negative rho (up, down):  3.123E-03 0.000E+00

     add environment contribution to local potential

     total cpu time spent up to now is      146.1 secs

     total energy              =    -360.86421524 Ry
     estimated scf accuracy    <       0.00422546 Ry

     total charge of GC-SCF    =       1.36547988 e
     the Fermi energy          =      -2.81712173 eV
                        (error :       1.58687827 eV)
     electrostatic embedding   =      -0.17945688 Ry
     cavitation energy         =       0.02597238 Ry
     electrolyte free energy   =      -0.00345922 Ry
     correction to one-el term =     -23.20038159 Ry

     iteration #  7     ecut=    80.00 Ry     beta= 0.20
     Davidson diagonalization with overlap

---- Real-time Memory Report at c_bands before calling an iterative solver
           439 MiB given to the printing process from OS
           166 MiB allocation reported by mallinfo(arena+hblkhd)
        171536 MiB available memory on the node where the printing process lives
------------------
     ethr =  3.66E-06,  avg # of iterations = 12.7

     negative rho (up, down):  3.356E-03 0.000E+00

     add environment contribution to local potential

     total cpu time spent up to now is      160.5 secs

     total energy              =    -360.99974607 Ry
     estimated scf accuracy    <       0.00181662 Ry

     total charge of GC-SCF    =       1.34348280 e
     the Fermi energy          =      -3.02918613 eV
                        (error :       1.37481387 eV)
     electrostatic embedding   =      -0.35396902 Ry
     cavitation energy         =       0.02597238 Ry
     electrolyte free energy   =      -0.00522269 Ry
     correction to one-el term =     -34.14652495 Ry

     iteration #  8     ecut=    80.00 Ry     beta= 0.20
     Davidson diagonalization with overlap

---- Real-time Memory Report at c_bands before calling an iterative solver
           439 MiB given to the printing process from OS
           166 MiB allocation reported by mallinfo(arena+hblkhd)
        171516 MiB available memory on the node where the printing process lives
------------------
     ethr =  2.57E-06,  avg # of iterations =  5.0

     negative rho (up, down):  5.770E-02 0.000E+00

     add environment contribution to local potential

     total cpu time spent up to now is      171.9 secs

     total energy              =    -360.90638673 Ry
     estimated scf accuracy    <       0.00217280 Ry

     total charge of GC-SCF    =       1.80530853 e
     the Fermi energy          =      -2.99866829 eV
                        (error :       1.40533171 eV)
     electrostatic embedding   =      -0.34448437 Ry
     cavitation energy         =       0.02597238 Ry
     electrolyte free energy   =      -0.00505899 Ry
     correction to one-el term =     -33.51617385 Ry

     iteration #  9     ecut=    80.00 Ry     beta= 0.20
     Davidson diagonalization with overlap

---- Real-time Memory Report at c_bands before calling an iterative solver
           439 MiB given to the printing process from OS
           166 MiB allocation reported by mallinfo(arena+hblkhd)
        171530 MiB available memory on the node where the printing process lives
------------------
     ethr =  2.57E-06,  avg # of iterations = 11.0

     negative rho (up, down):  5.642E-02 0.000E+00

     add environment contribution to local potential

     total cpu time spent up to now is      185.4 secs

     total energy              =    -361.00471713 Ry
     estimated scf accuracy    <       0.00323531 Ry

     total charge of GC-SCF    =       1.90449632 e
     the Fermi energy          =      -3.07221910 eV
                        (error :       1.33178090 eV)
     electrostatic embedding   =      -0.60364595 Ry
     cavitation energy         =       0.02597238 Ry
     electrolyte free energy   =      -0.00769407 Ry
     correction to one-el term =     -45.58408352 Ry

     iteration # 10     ecut=    80.00 Ry     beta= 0.20
     Davidson diagonalization with overlap

---- Real-time Memory Report at c_bands before calling an iterative solver
           439 MiB given to the printing process from OS
           166 MiB allocation reported by mallinfo(arena+hblkhd)
        171521 MiB available memory on the node where the printing process lives
------------------
     ethr =  2.57E-06,  avg # of iterations =  7.6

     negative rho (up, down):  5.167E-02 0.000E+00

     add environment contribution to local potential

     total cpu time spent up to now is      197.7 secs

     total energy              =    -361.04433134 Ry
     estimated scf accuracy    <       0.00484921 Ry

     total charge of GC-SCF    =       1.89514206 e
     the Fermi energy          =      -3.03937646 eV
                        (error :       1.36462354 eV)
     electrostatic embedding   =      -0.67404834 Ry
     cavitation energy         =       0.02597238 Ry
     electrolyte free energy   =      -0.00846385 Ry
     correction to one-el term =     -48.45959823 Ry

     iteration # 11     ecut=    80.00 Ry     beta= 0.20
     Davidson diagonalization with overlap

---- Real-time Memory Report at c_bands before calling an iterative solver
           439 MiB given to the printing process from OS
           166 MiB allocation reported by mallinfo(arena+hblkhd)
        171513 MiB available memory on the node where the printing process lives
------------------
     ethr =  2.57E-06,  avg # of iterations =  1.0

     negative rho (up, down):  6.116E-02 0.000E+00

     add environment contribution to local potential

     total cpu time spent up to now is      208.1 secs

     total energy              =    -361.02447424 Ry
     estimated scf accuracy    <       0.00509366 Ry

     total charge of GC-SCF    =       1.94278126 e
     the Fermi energy          =      -3.02749271 eV
                        (error :       1.37650729 eV)
     electrostatic embedding   =      -0.66808756 Ry
     cavitation energy         =       0.02597238 Ry
     electrolyte free energy   =      -0.00838750 Ry
     correction to one-el term =     -48.24047571 Ry

     iteration # 12     ecut=    80.00 Ry     beta= 0.20
     Davidson diagonalization with overlap

---- Real-time Memory Report at c_bands before calling an iterative solver
           439 MiB given to the printing process from OS
           166 MiB allocation reported by mallinfo(arena+hblkhd)
        171503 MiB available memory on the node where the printing process lives
------------------
     ethr =  2.57E-06,  avg # of iterations =  4.8

     negative rho (up, down):  4.706E-03 0.000E+00

     add environment contribution to local potential

     total cpu time spent up to now is      219.2 secs

     total energy              =    -360.97213775 Ry
     estimated scf accuracy    <       0.00441193 Ry

     total charge of GC-SCF    =       2.03818404 e
     the Fermi energy          =      -3.07593963 eV
                        (error :       1.32806037 eV)
     electrostatic embedding   =      -0.70138428 Ry
     cavitation energy         =       0.02597238 Ry
     electrolyte free energy   =      -0.00883606 Ry
     correction to one-el term =     -49.53676289 Ry

     iteration # 13     ecut=    80.00 Ry     beta= 0.20
     Davidson diagonalization with overlap

---- Real-time Memory Report at c_bands before calling an iterative solver
           439 MiB given to the printing process from OS
           166 MiB allocation reported by mallinfo(arena+hblkhd)
        171515 MiB available memory on the node where the printing process lives
------------------
     ethr =  2.57E-06,  avg # of iterations = 14.5

     negative rho (up, down):  6.755E-04 0.000E+00

     add environment contribution to local potential

     total cpu time spent up to now is      234.3 secs

     total energy              =    -361.04779133 Ry
     estimated scf accuracy    <       0.00148377 Ry

     total charge of GC-SCF    =       1.89783373 e
     the Fermi energy          =      -3.31799748 eV
                        (error :       1.08600252 eV)
     electrostatic embedding   =      -0.78262533 Ry
     cavitation energy         =       0.02597238 Ry
     electrolyte free energy   =      -0.01072085 Ry
     correction to one-el term =     -53.31867484 Ry

     iteration # 14     ecut=    80.00 Ry     beta= 0.20
     Davidson diagonalization with overlap

---- Real-time Memory Report at c_bands before calling an iterative solver
           439 MiB given to the printing process from OS
           166 MiB allocation reported by mallinfo(arena+hblkhd)
        171515 MiB available memory on the node where the printing process lives
------------------
     ethr =  2.12E-06,  avg # of iterations =  9.6

     negative rho (up, down):  5.578E-03 0.000E+00

     add environment contribution to local potential

     total cpu time spent up to now is      247.5 secs

     total energy              =    -360.98012663 Ry
     estimated scf accuracy    <       0.00084036 Ry

     total charge of GC-SCF    =       1.98748967 e
     the Fermi energy          =      -3.36395806 eV
                        (error :       1.04004194 eV)
     electrostatic embedding   =      -0.67517889 Ry
     cavitation energy         =       0.02597238 Ry
     electrolyte free energy   =      -0.00988690 Ry
     correction to one-el term =     -49.72905462 Ry

     iteration # 15     ecut=    80.00 Ry     beta= 0.20
     Davidson diagonalization with overlap

---- Real-time Memory Report at c_bands before calling an iterative solver
           439 MiB given to the printing process from OS
           166 MiB allocation reported by mallinfo(arena+hblkhd)
        171503 MiB available memory on the node where the printing process lives
------------------
     ethr =  1.20E-06,  avg # of iterations = 13.3

     negative rho (up, down):  1.022E-02 0.000E+00

     add environment contribution to local potential

     total cpu time spent up to now is      263.8 secs

     total energy              =    -360.94717685 Ry
     estimated scf accuracy    <       0.00053948 Ry

     total charge of GC-SCF    =       2.60035622 e
     the Fermi energy          =      -3.50083154 eV
                        (error :       0.90316846 eV)
     electrostatic embedding   =      -0.73777430 Ry
     cavitation energy         =       0.02597238 Ry
     electrolyte free energy   =      -0.01114831 Ry
     correction to one-el term =     -52.36519957 Ry

     iteration # 16     ecut=    80.00 Ry     beta= 0.20
     Davidson diagonalization with overlap

---- Real-time Memory Report at c_bands before calling an iterative solver
           439 MiB given to the printing process from OS
           166 MiB allocation reported by mallinfo(arena+hblkhd)
        171509 MiB available memory on the node where the printing process lives
------------------
     ethr =  7.77E-07,  avg # of iterations = 33.2

     negative rho (up, down):  2.481E-03 0.000E+00

     add environment contribution to local potential

     total cpu time spent up to now is      287.5 secs

     total energy              =    -361.07299982 Ry
     estimated scf accuracy    <       0.00033680 Ry

     total charge of GC-SCF    =       2.21064586 e
     the Fermi energy          =      -3.91115768 eV
                        (error :       0.49284232 eV)
     electrostatic embedding   =      -1.28777138 Ry
     cavitation energy         =       0.02597238 Ry
     electrolyte free energy   =      -0.01857257 Ry
     correction to one-el term =     -69.73390304 Ry

     iteration # 17     ecut=    80.00 Ry     beta= 0.20
     Davidson diagonalization with overlap

---- Real-time Memory Report at c_bands before calling an iterative solver
           439 MiB given to the printing process from OS
           166 MiB allocation reported by mallinfo(arena+hblkhd)
        171504 MiB available memory on the node where the printing process lives
------------------
     ethr =  4.83E-07,  avg # of iterations = 18.1

     negative rho (up, down):  5.298E-04 0.000E+00

     add environment contribution to local potential

     total cpu time spent up to now is      305.0 secs

     total energy              =    -360.99535230 Ry
     estimated scf accuracy    <       0.00048638 Ry

     total charge of GC-SCF    =       2.76557947 e
     the Fermi energy          =      -3.83999261 eV
                        (error :       0.56400739 eV)
     electrostatic embedding   =      -0.92908298 Ry
     cavitation energy         =       0.02597238 Ry
     electrolyte free energy   =      -0.01423805 Ry
     correction to one-el term =     -59.62617818 Ry

     iteration # 18     ecut=    80.00 Ry     beta= 0.20
     Davidson diagonalization with overlap

---- Real-time Memory Report at c_bands before calling an iterative solver
           439 MiB given to the printing process from OS
           166 MiB allocation reported by mallinfo(arena+hblkhd)
        171509 MiB available memory on the node where the printing process lives
------------------
     ethr =  4.83E-07,  avg # of iterations = 16.9

     negative rho (up, down):  4.686E-04 0.000E+00

     add environment contribution to local potential

     total cpu time spent up to now is      323.6 secs

     total energy              =    -361.00652968 Ry
     estimated scf accuracy    <       0.00004220 Ry

     total charge of GC-SCF    =       2.94609014 e
     the Fermi energy          =      -4.12498338 eV
                        (error :       0.27901662 eV)
     electrostatic embedding   =      -1.49275898 Ry
     cavitation energy         =       0.02597238 Ry
     electrolyte free energy   =      -0.02125169 Ry
     correction to one-el term =     -75.37486183 Ry

     iteration # 19     ecut=    80.00 Ry     beta= 0.20
     Davidson diagonalization with overlap

---- Real-time Memory Report at c_bands before calling an iterative solver
           439 MiB given to the printing process from OS
           166 MiB allocation reported by mallinfo(arena+hblkhd)
        171496 MiB available memory on the node where the printing process lives
------------------
     ethr =  6.11E-08,  avg # of iterations = 17.1

     negative rho (up, down):  4.046E-04 0.000E+00

     add environment contribution to local potential

     total cpu time spent up to now is      341.2 secs

     total energy              =    -361.00949856 Ry
     estimated scf accuracy    <       0.00003262 Ry

     total charge of GC-SCF    =       2.90574712 e
     the Fermi energy          =      -4.25393188 eV
                        (error :       0.15006812 eV)
     electrostatic embedding   =      -1.69303743 Ry
     cavitation energy         =       0.02597238 Ry
     electrolyte free energy   =      -0.02402307 Ry
     correction to one-el term =     -80.14993799 Ry

     iteration # 20     ecut=    80.00 Ry     beta= 0.20
     Davidson diagonalization with overlap

---- Real-time Memory Report at c_bands before calling an iterative solver
           439 MiB given to the printing process from OS
           166 MiB allocation reported by mallinfo(arena+hblkhd)
        171496 MiB available memory on the node where the printing process lives
------------------
     ethr =  4.72E-08,  avg # of iterations =  7.2

     negative rho (up, down):  4.720E-04 0.000E+00

     add environment contribution to local potential

     total cpu time spent up to now is      354.9 secs

     total energy              =    -361.00796592 Ry
     estimated scf accuracy    <       0.00002874 Ry

     total charge of GC-SCF    =       2.99999567 e
     the Fermi energy          =      -4.24034297 eV
                        (error :       0.16365703 eV)
     electrostatic embedding   =      -1.64552074 Ry
     cavitation energy         =       0.02597238 Ry
     electrolyte free energy   =      -0.02337720 Ry
     correction to one-el term =     -79.05298140 Ry

     iteration # 21     ecut=    80.00 Ry     beta= 0.20
     Davidson diagonalization with overlap

---- Real-time Memory Report at c_bands before calling an iterative solver
           439 MiB given to the printing process from OS
           166 MiB allocation reported by mallinfo(arena+hblkhd)
        171497 MiB available memory on the node where the printing process lives
------------------
     ethr =  4.17E-08,  avg # of iterations = 17.9

     negative rho (up, down):  7.999E-04 0.000E+00

     add environment contribution to local potential

     total cpu time spent up to now is      373.4 secs

     total energy              =    -361.00826675 Ry
     estimated scf accuracy    <       0.00002020 Ry

     total charge of GC-SCF    =       3.05517298 e
     the Fermi energy          =      -4.30244590 eV
                        (error :       0.10155410 eV)
     electrostatic embedding   =      -1.74712979 Ry
     cavitation energy         =       0.02597238 Ry
     electrolyte free energy   =      -0.02487165 Ry
     correction to one-el term =     -81.34997089 Ry

     iteration # 22     ecut=    80.00 Ry     beta= 0.20
     Davidson diagonalization with overlap

---- Real-time Memory Report at c_bands before calling an iterative solver
           439 MiB given to the printing process from OS
           166 MiB allocation reported by mallinfo(arena+hblkhd)
        171499 MiB available memory on the node where the printing process lives
------------------
     ethr =  2.93E-08,  avg # of iterations = 14.5

     negative rho (up, down):  5.173E-04 0.000E+00

     add environment contribution to local potential

     total cpu time spent up to now is      389.6 secs

     total energy              =    -361.00846621 Ry
     estimated scf accuracy    <       0.00001699 Ry

     total charge of GC-SCF    =       3.04239731 e
     the Fermi energy          =      -4.35570635 eV
                        (error :       0.04829365 eV)
     electrostatic embedding   =      -1.81339902 Ry
     cavitation energy         =       0.02597238 Ry
     electrolyte free energy   =      -0.02582090 Ry
     correction to one-el term =     -82.84439135 Ry

     iteration # 23     ecut=    80.00 Ry     beta= 0.20
     Davidson diagonalization with overlap

---- Real-time Memory Report at c_bands before calling an iterative solver
           439 MiB given to the printing process from OS
           166 MiB allocation reported by mallinfo(arena+hblkhd)
        171500 MiB available memory on the node where the printing process lives
------------------
     ethr =  2.46E-08,  avg # of iterations =  7.3

     negative rho (up, down):  4.419E-04 0.000E+00

     add environment contribution to local potential

     total cpu time spent up to now is      403.7 secs

     total energy              =    -361.00824118 Ry
     estimated scf accuracy    <       0.00001532 Ry

     total charge of GC-SCF    =       3.04239150 e
     the Fermi energy          =      -4.37501836 eV
                        (error :       0.02898164 eV)
     electrostatic embedding   =      -1.79929203 Ry
     cavitation energy         =       0.02597238 Ry
     electrolyte free energy   =      -0.02562113 Ry
     correction to one-el term =     -82.55279343 Ry

     iteration # 24     ecut=    80.00 Ry     beta= 0.20
     Davidson diagonalization with overlap

---- Real-time Memory Report at c_bands before calling an iterative solver
           439 MiB given to the printing process from OS
           166 MiB allocation reported by mallinfo(arena+hblkhd)
        171489 MiB available memory on the node where the printing process lives
------------------
     ethr =  2.22E-08,  avg # of iterations =  9.0

     negative rho (up, down):  4.249E-04 0.000E+00

     add environment contribution to local potential

     total cpu time spent up to now is      417.8 secs

     total energy              =    -361.00840177 Ry
     estimated scf accuracy    <       0.00000897 Ry

     total charge of GC-SCF    =       3.03704335 e
     the Fermi energy          =      -4.35876710 eV
                        (error :       0.04523290 eV)
     electrostatic embedding   =      -1.79779299 Ry
     cavitation energy         =       0.02597238 Ry
     electrolyte free energy   =      -0.02560021 Ry
     correction to one-el term =     -82.46928632 Ry

     iteration # 25     ecut=    80.00 Ry     beta= 0.20
     Davidson diagonalization with overlap

---- Real-time Memory Report at c_bands before calling an iterative solver
           439 MiB given to the printing process from OS
           166 MiB allocation reported by mallinfo(arena+hblkhd)
        171497 MiB available memory on the node where the printing process lives
------------------
     ethr =  1.30E-08,  avg # of iterations =  4.3

     negative rho (up, down):  3.866E-04 0.000E+00

     add environment contribution to local potential

     total cpu time spent up to now is      430.9 secs

     total energy              =    -361.00853335 Ry
     estimated scf accuracy    <       0.00000774 Ry

     total charge of GC-SCF    =       3.01827083 e
     the Fermi energy          =      -4.35606279 eV
                        (error :       0.04793721 eV)
     electrostatic embedding   =      -1.79107931 Ry
     cavitation energy         =       0.02597238 Ry
     electrolyte free energy   =      -0.02550698 Ry
     correction to one-el term =     -82.31668434 Ry

     iteration # 26     ecut=    80.00 Ry     beta= 0.20
     Davidson diagonalization with overlap

---- Real-time Memory Report at c_bands before calling an iterative solver
           439 MiB given to the printing process from OS
           166 MiB allocation reported by mallinfo(arena+hblkhd)
        171496 MiB available memory on the node where the printing process lives
------------------
     ethr =  1.12E-08,  avg # of iterations =  8.8

     negative rho (up, down):  8.607E-04 0.000E+00

     add environment contribution to local potential

     total cpu time spent up to now is      446.4 secs

     total energy              =    -361.00848255 Ry
     estimated scf accuracy    <       0.00000738 Ry

     total charge of GC-SCF    =       3.06905614 e
     the Fermi energy          =      -4.36082539 eV
                        (error :       0.04317461 eV)
     electrostatic embedding   =      -1.76850779 Ry
     cavitation energy         =       0.02597238 Ry
     electrolyte free energy   =      -0.02519569 Ry
     correction to one-el term =     -81.82830963 Ry

     iteration # 27     ecut=    80.00 Ry     beta= 0.20
     Davidson diagonalization with overlap

---- Real-time Memory Report at c_bands before calling an iterative solver
           439 MiB given to the printing process from OS
           166 MiB allocation reported by mallinfo(arena+hblkhd)
        171489 MiB available memory on the node where the printing process lives
------------------
     ethr =  1.07E-08,  avg # of iterations = 14.8

     negative rho (up, down):  4.227E-04 0.000E+00

     add environment contribution to local potential

     total cpu time spent up to now is      461.8 secs

     total energy              =    -361.00819227 Ry
     estimated scf accuracy    <       0.00000271 Ry

     total charge of GC-SCF    =       3.06451441 e
     the Fermi energy          =      -4.39800867 eV
                        (error :       0.00599133 eV)
     electrostatic embedding   =      -1.82964073 Ry
     cavitation energy         =       0.02597238 Ry
     electrolyte free energy   =      -0.02607097 Ry
     correction to one-el term =     -83.19711098 Ry

     iteration # 28     ecut=    80.00 Ry     beta= 0.20
     Davidson diagonalization with overlap

---- Real-time Memory Report at c_bands before calling an iterative solver
           439 MiB given to the printing process from OS
           166 MiB allocation reported by mallinfo(arena+hblkhd)
        171497 MiB available memory on the node where the printing process lives
------------------
     ethr =  3.93E-09,  avg # of iterations =  9.5

     negative rho (up, down):  5.523E-04 0.000E+00

     add environment contribution to local potential

     total cpu time spent up to now is      476.5 secs

     total energy              =    -361.00824456 Ry
     estimated scf accuracy    <       0.00000158 Ry

     total charge of GC-SCF    =       3.06791720 e
     the Fermi energy          =      -4.38450320 eV
                        (error :       0.01949680 eV)
     electrostatic embedding   =      -1.82501376 Ry
     cavitation energy         =       0.02597238 Ry
     electrolyte free energy   =      -0.02599067 Ry
     correction to one-el term =     -83.09009538 Ry

     iteration # 29     ecut=    80.00 Ry     beta= 0.20
     Davidson diagonalization with overlap

---- Real-time Memory Report at c_bands before calling an iterative solver
           439 MiB given to the printing process from OS
           166 MiB allocation reported by mallinfo(arena+hblkhd)
        171495 MiB available memory on the node where the printing process lives
------------------
     ethr =  2.29E-09,  avg # of iterations =  9.1

     negative rho (up, down):  7.765E-04 0.000E+00

     add environment contribution to local potential

     total cpu time spent up to now is      490.8 secs

     total energy              =    -361.00825308 Ry
     estimated scf accuracy    <       0.00000107 Ry

     total charge of GC-SCF    =       3.07113180 e
     the Fermi energy          =      -4.38284180 eV
                        (error :       0.02115820 eV)
     electrostatic embedding   =      -1.82841147 Ry
     cavitation energy         =       0.02597238 Ry
     electrolyte free energy   =      -0.02604333 Ry
     correction to one-el term =     -83.15550494 Ry

     iteration # 30     ecut=    80.00 Ry     beta= 0.20
     Davidson diagonalization with overlap

---- Real-time Memory Report at c_bands before calling an iterative solver
           439 MiB given to the printing process from OS
           166 MiB allocation reported by mallinfo(arena+hblkhd)
        171495 MiB available memory on the node where the printing process lives
------------------
     ethr =  1.55E-09,  avg # of iterations =  8.6

     negative rho (up, down):  6.914E-04 0.000E+00

     add environment contribution to local potential

     total cpu time spent up to now is      504.8 secs

     total energy              =    -361.00824630 Ry
     estimated scf accuracy    <       0.00000093 Ry

     total charge of GC-SCF    =       3.06891979 e
     the Fermi energy          =      -4.38650403 eV
                        (error :       0.01749597 eV)
     electrostatic embedding   =      -1.83185718 Ry
     cavitation energy         =       0.02597238 Ry
     electrolyte free energy   =      -0.02609805 Ry
     correction to one-el term =     -83.23131945 Ry

     iteration # 31     ecut=    80.00 Ry     beta= 0.20
     Davidson diagonalization with overlap

---- Real-time Memory Report at c_bands before calling an iterative solver
           439 MiB given to the printing process from OS
           166 MiB allocation reported by mallinfo(arena+hblkhd)
        171491 MiB available memory on the node where the printing process lives
------------------
     ethr =  1.35E-09,  avg # of iterations =  6.8

     negative rho (up, down):  3.862E-04 0.000E+00

     add environment contribution to local potential

     total cpu time spent up to now is      518.5 secs

     total energy              =    -361.00822762 Ry
     estimated scf accuracy    <       0.00000067 Ry

     total charge of GC-SCF    =       3.06833794 e
     the Fermi energy          =      -4.38615518 eV
                        (error :       0.01784482 eV)
     electrostatic embedding   =      -1.82924176 Ry
     cavitation energy         =       0.02597238 Ry
     electrolyte free energy   =      -0.02606118 Ry
     correction to one-el term =     -83.17644533 Ry

     iteration # 32     ecut=    80.00 Ry     beta= 0.20
     Davidson diagonalization with overlap

---- Real-time Memory Report at c_bands before calling an iterative solver
           439 MiB given to the printing process from OS
           166 MiB allocation reported by mallinfo(arena+hblkhd)
        171492 MiB available memory on the node where the printing process lives
------------------
     ethr =  9.69E-10,  avg # of iterations = 10.0

     negative rho (up, down):  3.391E-04 0.000E+00

     add environment contribution to local potential

     total cpu time spent up to now is      532.9 secs

     total energy              =    -361.00821524 Ry
     estimated scf accuracy    <       0.00000034 Ry

     total charge of GC-SCF    =       3.07419963 e
     the Fermi energy          =      -4.38635319 eV
                        (error :       0.01764681 eV)
     electrostatic embedding   =      -1.82968981 Ry
     cavitation energy         =       0.02597238 Ry
     electrolyte free energy   =      -0.02605748 Ry
     correction to one-el term =     -83.19044335 Ry

     iteration # 33     ecut=    80.00 Ry     beta= 0.20
     Davidson diagonalization with overlap

---- Real-time Memory Report at c_bands before calling an iterative solver
           439 MiB given to the printing process from OS
           166 MiB allocation reported by mallinfo(arena+hblkhd)
        171492 MiB available memory on the node where the printing process lives
------------------
     ethr =  4.94E-10,  avg # of iterations = 15.1

     negative rho (up, down):  3.396E-04 0.000E+00

     add environment contribution to local potential

     total cpu time spent up to now is      548.8 secs

     total energy              =    -361.00818022 Ry
     estimated scf accuracy    <       0.00000010 Ry

     total charge of GC-SCF    =       3.07589448 e
     the Fermi energy          =      -4.39412623 eV
                        (error :       0.00987377 eV)
     electrostatic embedding   =      -1.83828551 Ry
     cavitation energy         =       0.02597238 Ry
     electrolyte free energy   =      -0.02617003 Ry
     correction to one-el term =     -83.38868624 Ry

     iteration # 34     ecut=    80.00 Ry     beta= 0.20
     Davidson diagonalization with overlap

---- Real-time Memory Report at c_bands before calling an iterative solver
           439 MiB given to the printing process from OS
           166 MiB allocation reported by mallinfo(arena+hblkhd)
        171492 MiB available memory on the node where the printing process lives
------------------
     ethr =  1.43E-10,  avg # of iterations = 10.0

     negative rho (up, down):  3.537E-04 0.000E+00

     add environment contribution to local potential

     total cpu time spent up to now is      564.9 secs

     total energy              =    -361.00817158 Ry
     estimated scf accuracy    <       0.00000007 Ry

     total charge of GC-SCF    =       3.07767425 e
     the Fermi energy          =      -4.39557541 eV
                        (error :       0.00842459 eV)
     electrostatic embedding   =      -1.84027203 Ry
     cavitation energy         =       0.02597238 Ry
     electrolyte free energy   =      -0.02619970 Ry
     correction to one-el term =     -83.43349895 Ry

     iteration # 35     ecut=    80.00 Ry     beta= 0.20
     Davidson diagonalization with overlap

---- Real-time Memory Report at c_bands before calling an iterative solver
           439 MiB given to the printing process from OS
           166 MiB allocation reported by mallinfo(arena+hblkhd)
        171482 MiB available memory on the node where the printing process lives
------------------
     ethr =  1.06E-10,  avg # of iterations = 12.7

     negative rho (up, down):  3.931E-04 0.000E+00

     add environment contribution to local potential

     total cpu time spent up to now is      580.1 secs

     total energy              =    -361.00816764 Ry
     estimated scf accuracy    <       0.00000003 Ry

     total charge of GC-SCF    =       3.08061131 e
     the Fermi energy          =      -4.39656549 eV
                        (error :       0.00743451 eV)
     electrostatic embedding   =      -1.84185009 Ry
     cavitation energy         =       0.02597238 Ry
     electrolyte free energy   =      -0.02622799 Ry
     correction to one-el term =     -83.46705411 Ry

     iteration # 36     ecut=    80.00 Ry     beta= 0.20
     Davidson diagonalization with overlap

---- Real-time Memory Report at c_bands before calling an iterative solver
           439 MiB given to the printing process from OS
           166 MiB allocation reported by mallinfo(arena+hblkhd)
        171488 MiB available memory on the node where the printing process lives
------------------
     ethr =  4.90E-11,  avg # of iterations = 16.2

     negative rho (up, down):  4.162E-04 0.000E+00

     add environment contribution to local potential

     total cpu time spent up to now is      596.9 secs

     total energy              =    -361.00815704 Ry
     estimated scf accuracy    <       0.00000002 Ry

     total charge of GC-SCF    =       3.08394769 e
     the Fermi energy          =      -4.39895506 eV
                        (error :       0.00504494 eV)
     electrostatic embedding   =      -1.84496117 Ry
     cavitation energy         =       0.02597238 Ry
     electrolyte free energy   =      -0.02627745 Ry
     correction to one-el term =     -83.53432062 Ry

     iteration # 37     ecut=    80.00 Ry     beta= 0.20
     Davidson diagonalization with overlap

---- Real-time Memory Report at c_bands before calling an iterative solver
           439 MiB given to the printing process from OS
           166 MiB allocation reported by mallinfo(arena+hblkhd)
        171485 MiB available memory on the node where the printing process lives
------------------
     ethr =  3.36E-11,  avg # of iterations = 16.8

     negative rho (up, down):  3.973E-04 0.000E+00

     add environment contribution to local potential

     total cpu time spent up to now is      614.5 secs

     total energy              =    -361.00814211 Ry
     estimated scf accuracy    <       0.00000002 Ry

     total charge of GC-SCF    =       3.08639840 e
     the Fermi energy          =      -4.40178536 eV
                        (error :       0.00221464 eV)
     electrostatic embedding   =      -1.84891864 Ry
     cavitation energy         =       0.02597238 Ry
     electrolyte free energy   =      -0.02633569 Ry
     correction to one-el term =     -83.62058227 Ry

     iteration # 38     ecut=    80.00 Ry     beta= 0.20
     Davidson diagonalization with overlap

---- Real-time Memory Report at c_bands before calling an iterative solver
           439 MiB given to the printing process from OS
           166 MiB allocation reported by mallinfo(arena+hblkhd)
        171486 MiB available memory on the node where the printing process lives
------------------
     ethr =  2.29E-11,  avg # of iterations = 14.9

     negative rho (up, down):  3.943E-04 0.000E+00

     total cpu time spent up to now is      623.0 secs

     End of self-consistent calculation

          k = 0.0000 0.0000 0.0000 (221585 PWs)   bands (ev):

   -52.1377 -52.1377 -52.1375 -52.1370 -52.1301 -52.1301 -52.1298 -52.1294
   -51.2015 -51.2014 -51.2013 -51.2013 -51.1933 -51.1933 -51.1932 -51.1932
   -50.8454 -50.8420 -50.8418 -50.8381 -50.8371 -50.8339 -50.8337 -50.8304
    -7.6457  -6.7254  -6.4766  -6.4765  -5.5730  -5.5730  -5.3052  -4.6176
    -4.3868  -3.9451  -3.9451  -3.8797  -3.8786  -3.8785  -3.7563  -3.5066
    -3.4622  -3.4622  -3.2197  -2.5957  -2.5126  -2.3090  -2.3088  -2.0983
    -1.8817  -1.8814  -1.2810  -0.9713  -0.9711  -0.8272

     occupation numbers 
     1.0000   1.0000   1.0000   1.0000   1.0000   1.0000   1.0000   1.0000
     1.0000   1.0000   1.0000   1.0000   1.0000   1.0000   1.0000   1.0000
     1.0000   1.0000   1.0000   1.0000   1.0000   1.0000   1.0000   1.0000
     1.0000   1.0000   1.0000   1.0000   1.0000   1.0000   1.0000   1.0784
     0.3174   0.0000   0.0000   0.0000   0.0000   0.0000   0.0000   0.0000
     0.0000   0.0000   0.0000   0.0000   0.0000   0.0000   0.0000   0.0000
     0.0000   0.0000   0.0000   0.0000   0.0000   0.0000

          k = 0.0000 0.0875 0.0000 (221558 PWs)   bands (ev):

   -52.1377 -52.1377 -52.1375 -52.1370 -52.1301 -52.1301 -52.1298 -52.1294
   -51.2015 -51.2014 -51.2013 -51.2013 -51.1933 -51.1933 -51.1932 -51.1932
   -50.8454 -50.8427 -50.8411 -50.8382 -50.8370 -50.8345 -50.8330 -50.8305
    -7.6216  -6.7819  -6.7019  -6.1602  -5.8151  -5.2866  -5.2844  -4.5960
    -4.3674  -4.1781  -3.9882  -3.9274  -3.8744  -3.8608  -3.6528  -3.4999
    -3.4723  -3.4547  -3.1959  -2.8127  -2.5025  -2.4267  -2.0804  -2.0563
    -1.9967  -1.7095  -1.1943  -1.0235  -0.8797  -0.8147

     occupation numbers 
     1.0000   1.0000   1.0000   1.0000   1.0000   1.0000   1.0000   1.0000
     1.0000   1.0000   1.0000   1.0000   1.0000   1.0000   1.0000   1.0000
     1.0000   1.0000   1.0000   1.0000   1.0000   1.0000   1.0000   1.0000
     1.0000   1.0000   1.0000   1.0000   1.0000   1.0000   1.0000   1.0833
     0.2371   0.0019   0.0000   0.0000   0.0000   0.0000   0.0000   0.0000
     0.0000   0.0000   0.0000   0.0000   0.0000   0.0000   0.0000   0.0000
     0.0000   0.0000   0.0000   0.0000   0.0000   0.0000

          k = 0.0000 0.1750 0.0000 (221554 PWs)   bands (ev):

   -52.1377 -52.1377 -52.1375 -52.1370 -52.1301 -52.1301 -52.1298 -52.1294
   -51.2015 -51.2014 -51.2013 -51.2013 -51.1933 -51.1933 -51.1932 -51.1932
   -50.8451 -50.8435 -50.8403 -50.8385 -50.8368 -50.8352 -50.8323 -50.8307
    -7.5494  -7.0446  -6.6319  -6.1684  -5.6555  -5.2242  -5.0697  -4.5323
    -4.3169  -4.3104  -4.2558  -4.1408  -3.9723  -3.8056  -3.5109  -3.4826
    -3.4557  -3.3636  -3.2276  -3.1525  -2.4764  -2.4456  -2.1591  -1.8558
    -1.7701  -1.6151  -1.4175  -1.0109  -0.7817  -0.7669

     occupation numbers 
     1.0000   1.0000   1.0000   1.0000   1.0000   1.0000   1.0000   1.0000
     1.0000   1.0000   1.0000   1.0000   1.0000   1.0000   1.0000   1.0000
     1.0000   1.0000   1.0000   1.0000   1.0000   1.0000   1.0000   1.0000
     1.0000   1.0000   1.0000   1.0000   1.0000   1.0000   1.0000   1.0074
     0.0929   0.0810   0.0213   0.0005   0.0000   0.0000   0.0000   0.0000
     0.0000   0.0000   0.0000   0.0000   0.0000   0.0000   0.0000   0.0000
     0.0000   0.0000   0.0000   0.0000   0.0000   0.0000

          k = 0.0000 0.2624 0.0000 (221568 PWs)   bands (ev):

   -52.1377 -52.1377 -52.1375 -52.1370 -52.1301 -52.1301 -52.1298 -52.1294
   -51.2015 -51.2014 -51.2013 -51.2013 -51.1933 -51.1933 -51.1932 -51.1932
   -50.8447 -50.8441 -50.8396 -50.8389 -50.8364 -50.8359 -50.8317 -50.8311
    -7.4291  -7.2607  -6.5160  -6.3569  -5.2363  -5.1341  -5.0470  -4.7765
    -4.4298  -4.2953  -4.2191  -4.1009  -4.0556  -3.7190  -3.6702  -3.6126
    -3.4619  -3.4494  -3.1690  -3.1220  -2.4478  -2.4363  -2.0929  -1.8112
    -1.7314  -1.6358  -1.4081  -1.0292  -0.8890  -0.7296

     occupation numbers 
     1.0000   1.0000   1.0000   1.0000   1.0000   1.0000   1.0000   1.0000
     1.0000   1.0000   1.0000   1.0000   1.0000   1.0000   1.0000   1.0000
     1.0000   1.0000   1.0000   1.0000   1.0000   1.0000   1.0000   1.0000
     1.0000   1.0000   1.0000   1.0000   1.0000   1.0000   1.0000   1.0044
     0.5364   0.0576   0.0073   0.0001   0.0000   0.0000   0.0000   0.0000
     0.0000   0.0000   0.0000   0.0000   0.0000   0.0000   0.0000   0.0000
     0.0000   0.0000   0.0000   0.0000   0.0000   0.0000

          k = 0.0909 0.0000 0.0000 (221718 PWs)   bands (ev):

   -52.1376 -52.1375 -52.1373 -52.1368 -52.1302 -52.1302 -52.1300 -52.1295
   -51.2014 -51.2012 -51.2012 -51.2011 -51.1935 -51.1934 -51.1934 -51.1934
   -50.8453 -50.8418 -50.8416 -50.8379 -50.8373 -50.8341 -50.8338 -50.8306
    -7.6194  -6.6987  -6.4495  -6.4495  -5.5454  -5.5454  -5.2767  -5.0467
    -4.2191  -4.0703  -4.0702  -3.9139  -3.9139  -3.8985  -3.7219  -3.4830
    -3.4830  -3.2600  -3.1927  -2.5746  -2.5614  -2.2534  -2.2532  -2.0659
    -1.8598  -1.8595  -1.2566  -0.8790  -0.8788  -0.6782

     occupation numbers 
     1.0000   1.0000   1.0000   1.0000   1.0000   1.0000   1.0000   1.0000
     1.0000   1.0000   1.0000   1.0000   1.0000   1.0000   1.0000   1.0000
     1.0000   1.0000   1.0000   1.0000   1.0000   1.0000   1.0000   1.0000
     1.0000   1.0000   1.0000   1.0000   1.0000   1.0000   1.0000   1.0000
     0.0073   0.0000   0.0000   0.0000   0.0000   0.0000   0.0000   0.0000
     0.0000   0.0000   0.0000   0.0000   0.0000   0.0000   0.0000   0.0000
     0.0000   0.0000   0.0000   0.0000   0.0000   0.0000

          k = 0.0909 0.0875 0.0000 (221669 PWs)   bands (ev):

   -52.1376 -52.1375 -52.1373 -52.1368 -52.1302 -52.1302 -52.1300 -52.1295
   -51.2014 -51.2012 -51.2012 -51.2011 -51.1935 -51.1934 -51.1934 -51.1934
   -50.8452 -50.8425 -50.8409 -50.8380 -50.8372 -50.8347 -50.8332 -50.8307
    -7.5953  -6.7551  -6.6753  -6.1326  -5.7881  -5.2583  -5.2559  -5.0244
    -4.2989  -4.1986  -4.1482  -3.8945  -3.8816  -3.8607  -3.6201  -3.6016
    -3.4043  -3.2548  -3.1683  -2.7794  -2.5730  -2.4439  -2.0360  -1.9975
    -1.9653  -1.6857  -1.1653  -0.9959  -0.7382  -0.7276

     occupation numbers 
     1.0000   1.0000   1.0000   1.0000   1.0000   1.0000   1.0000   1.0000
     1.0000   1.0000   1.0000   1.0000   1.0000   1.0000   1.0000   1.0000
     1.0000   1.0000   1.0000   1.0000   1.0000   1.0000   1.0000   1.0000
     1.0000   1.0000   1.0000   1.0000   1.0000   1.0000   1.0000   1.0000
     0.0627   0.0038   0.0006   0.0000   0.0000   0.0000   0.0000   0.0000
     0.0000   0.0000   0.0000   0.0000   0.0000   0.0000   0.0000   0.0000
     0.0000   0.0000   0.0000   0.0000   0.0000   0.0000

          k = 0.0909 0.1750 0.0000 (221668 PWs)   bands (ev):

   -52.1376 -52.1375 -52.1373 -52.1368 -52.1302 -52.1302 -52.1300 -52.1295
   -51.2013 -51.2012 -51.2012 -51.2011 -51.1935 -51.1934 -51.1934 -51.1934
   -50.8449 -50.8433 -50.8401 -50.8383 -50.8370 -50.8354 -50.8325 -50.8309
    -7.5231  -7.0180  -6.6051  -6.1411  -5.6280  -5.1955  -5.0405  -4.9581
    -4.5135  -4.2861  -4.2270  -4.1381  -3.8335  -3.7897  -3.6848  -3.3483
    -3.3294  -3.2442  -3.1962  -3.1236  -2.5725  -2.5529  -2.1399  -1.8262
    -1.7121  -1.5893  -1.3885  -1.0457  -0.9596  -0.6309

     occupation numbers 
     1.0000   1.0000   1.0000   1.0000   1.0000   1.0000   1.0000   1.0000
     1.0000   1.0000   1.0000   1.0000   1.0000   1.0000   1.0000   1.0000
     1.0000   1.0000   1.0000   1.0000   1.0000   1.0000   1.0000   1.0000
     1.0000   1.0000   1.0000   1.0000   1.0000   1.0000   1.0000   1.0000
     0.9495   0.0463   0.0093   0.0004   0.0000   0.0000   0.0000   0.0000
     0.0000   0.0000   0.0000   0.0000   0.0000   0.0000   0.0000   0.0000
     0.0000   0.0000   0.0000   0.0000   0.0000   0.0000

          k = 0.0909 0.2624 0.0000 (221625 PWs)   bands (ev):

   -52.1375 -52.1375 -52.1373 -52.1368 -52.1302 -52.1302 -52.1300 -52.1295
   -51.2013 -51.2013 -51.2012 -51.2011 -51.1935 -51.1934 -51.1934 -51.1934
   -50.8445 -50.8440 -50.8394 -50.8388 -50.8366 -50.8360 -50.8318 -50.8313
    -7.4027  -7.2342  -6.4892  -6.3299  -5.2080  -5.1050  -5.0175  -4.8489
    -4.7473  -4.6993  -4.0414  -4.0268  -3.9162  -3.7643  -3.6991  -3.6404
    -3.2820  -3.2451  -3.1353  -3.0910  -2.5873  -2.5807  -2.0725  -1.7868
    -1.7030  -1.6085  -1.4522  -1.2205  -0.9561  -0.7546

     occupation numbers 
     1.0000   1.0000   1.0000   1.0000   1.0000   1.0000   1.0000   1.0000
     1.0000   1.0000   1.0000   1.0000   1.0000   1.0000   1.0000   1.0000
     1.0000   1.0000   1.0000   1.0000   1.0000   1.0000   1.0000   1.0000
     1.0000   1.0000   1.0000   1.0000   1.0000   1.0000   1.0000   1.0004
     1.0097   1.0277   0.0000   0.0000   0.0000   0.0000   0.0000   0.0000
     0.0000   0.0000   0.0000   0.0000   0.0000   0.0000   0.0000   0.0000
     0.0000   0.0000   0.0000   0.0000   0.0000   0.0000

          k = 0.1818 0.0000 0.0000 (221744 PWs)   bands (ev):

   -52.1371 -52.1371 -52.1369 -52.1364 -52.1307 -52.1307 -52.1305 -52.1300
   -51.2009 -51.2007 -51.2007 -51.2007 -51.1940 -51.1939 -51.1939 -51.1938
   -50.8448 -50.8414 -50.8411 -50.8378 -50.8375 -50.8345 -50.8343 -50.8310
    -7.5406  -6.6189  -6.3684  -6.3684  -5.5308  -5.4628  -5.4628  -5.1914
    -4.6468  -4.4348  -4.4347  -3.8207  -3.8206  -3.6688  -3.6687  -3.6187
    -3.4394  -3.1273  -3.1127  -2.4599  -2.4585  -2.1688  -2.1686  -1.9692
    -1.7948  -1.7946  -1.1866  -0.9957  -0.8346  -0.8346

     occupation numbers 
     1.0000   1.0000   1.0000   1.0000   1.0000   1.0000   1.0000   1.0000
     1.0000   1.0000   1.0000   1.0000   1.0000   1.0000   1.0000   1.0000
     1.0000   1.0000   1.0000   1.0000   1.0000   1.0000   1.0000   1.0000
     1.0000   1.0000   1.0000   1.0000   1.0000   1.0000   1.0000   1.0000
     1.0613   0.5642   0.5635   0.0000   0.0000   0.0000   0.0000   0.0000
     0.0000   0.0000   0.0000   0.0000   0.0000   0.0000   0.0000   0.0000
     0.0000   0.0000   0.0000   0.0000   0.0000   0.0000

          k = 0.1818 0.0875 0.0000 (221735 PWs)   bands (ev):

   -52.1371 -52.1371 -52.1369 -52.1364 -52.1307 -52.1307 -52.1305 -52.1300
   -51.2009 -51.2007 -51.2007 -51.2007 -51.1940 -51.1939 -51.1939 -51.1939
   -50.8447 -50.8421 -50.8404 -50.8377 -50.8376 -50.8352 -50.8337 -50.8311
    -7.5165  -6.6748  -6.5954  -6.0502  -5.7071  -5.5076  -5.1737  -5.1704
    -4.7149  -4.6250  -4.1393  -4.0590  -3.8799  -3.7960  -3.5223  -3.4434
    -3.4133  -3.1314  -3.0862  -2.6800  -2.5017  -2.4621  -1.9761  -1.8933
    -1.8717  -1.6149  -1.1393  -1.0803  -0.8381  -0.7936

     occupation numbers 
     1.0000   1.0000   1.0000   1.0000   1.0000   1.0000   1.0000   1.0000
     1.0000   1.0000   1.0000   1.0000   1.0000   1.0000   1.0000   1.0000
     1.0000   1.0000   1.0000   1.0000   1.0000   1.0000   1.0000   1.0000
     1.0000   1.0000   1.0000   1.0000   1.0000   1.0000   1.0000   1.0000
     1.0203   1.0748   0.0004   0.0000   0.0000   0.0000   0.0000   0.0000
     0.0000   0.0000   0.0000   0.0000   0.0000   0.0000   0.0000   0.0000
     0.0000   0.0000   0.0000   0.0000   0.0000   0.0000

          k = 0.1818 0.1750 0.0000 (221735 PWs)   bands (ev):

   -52.1371 -52.1371 -52.1369 -52.1364 -52.1307 -52.1307 -52.1305 -52.1300
   -51.2009 -51.2008 -51.2007 -51.2007 -51.1940 -51.1939 -51.1939 -51.1939
   -50.8444 -50.8428 -50.8396 -50.8379 -50.8375 -50.8359 -50.8330 -50.8314
    -7.4441  -6.9382  -6.5251  -6.0595  -5.5457  -5.4382  -5.1094  -4.9594
    -4.9531  -4.5601  -4.1941  -4.1411  -4.1357  -3.7665  -3.3379  -3.2422
    -3.2271  -3.1525  -3.1026  -3.0376  -2.7298  -2.6336  -2.0836  -1.7382
    -1.6846  -1.5125  -1.3277  -1.3022  -0.9081  -0.6443

     occupation numbers 
     1.0000   1.0000   1.0000   1.0000   1.0000   1.0000   1.0000   1.0000
     1.0000   1.0000   1.0000   1.0000   1.0000   1.0000   1.0000   1.0000
     1.0000   1.0000   1.0000   1.0000   1.0000   1.0000   1.0000   1.0000
     1.0000   1.0000   1.0000   1.0000   1.0000   1.0000   1.0000   1.0000
     1.0000   1.0617   0.0032   0.0005   0.0004   0.0000   0.0000   0.0000
     0.0000   0.0000   0.0000   0.0000   0.0000   0.0000   0.0000   0.0000
     0.0000   0.0000   0.0000   0.0000   0.0000   0.0000

          k = 0.1818 0.2624 0.0000 (221799 PWs)   bands (ev):

   -52.1371 -52.1371 -52.1369 -52.1364 -52.1307 -52.1307 -52.1305 -52.1300
   -51.2008 -51.2008 -51.2007 -51.2007 -51.1940 -51.1939 -51.1939 -51.1939
   -50.8440 -50.8435 -50.8389 -50.8383 -50.8371 -50.8365 -50.8323 -50.8318
    -7.3235  -7.1548  -6.4088  -6.2491  -5.3230  -5.1629  -5.1235  -5.0180
    -4.9295  -4.6598  -4.4536  -4.3087  -3.9410  -3.5515  -3.4696  -3.2786
    -3.1745  -3.1084  -3.0344  -2.9985  -2.9166  -2.8257  -2.0126  -1.7148
    -1.6184  -1.5437  -1.5275  -1.4458  -0.9408  -0.8305

     occupation numbers 
     1.0000   1.0000   1.0000   1.0000   1.0000   1.0000   1.0000   1.0000
     1.0000   1.0000   1.0000   1.0000   1.0000   1.0000   1.0000   1.0000
     1.0000   1.0000   1.0000   1.0000   1.0000   1.0000   1.0000   1.0000
     1.0000   1.0000   1.0000   1.0000   1.0000   1.0000   1.0000   1.0000
     1.0000   1.0524   0.6677   0.0779   0.0000   0.0000   0.0000   0.0000
     0.0000   0.0000   0.0000   0.0000   0.0000   0.0000   0.0000   0.0000
     0.0000   0.0000   0.0000   0.0000   0.0000   0.0000

          k = 0.2727 0.0000 0.0000 (221756 PWs)   bands (ev):

   -52.1364 -52.1364 -52.1362 -52.1357 -52.1314 -52.1314 -52.1312 -52.1307
   -51.2001 -51.2000 -51.1999 -51.1999 -51.1947 -51.1947 -51.1946 -51.1946
   -50.8440 -50.8406 -50.8404 -50.8386 -50.8368 -50.8353 -50.8351 -50.8317
    -7.4092  -6.4861  -6.2338  -6.2338  -5.9707  -5.3262  -5.3262  -5.0635
    -5.0502  -4.8225  -4.8224  -3.9716  -3.9716  -3.6667  -3.6666  -3.6381
    -3.4469  -2.9824  -2.6155  -2.2872  -2.2709  -2.2707  -2.2002  -1.8094
    -1.6893  -1.6890  -1.5685  -1.0815  -0.9260  -0.9259

     occupation numbers 
     1.0000   1.0000   1.0000   1.0000   1.0000   1.0000   1.0000   1.0000
     1.0000   1.0000   1.0000   1.0000   1.0000   1.0000   1.0000   1.0000
     1.0000   1.0000   1.0000   1.0000   1.0000   1.0000   1.0000   1.0000
     1.0000   1.0000   1.0000   1.0000   1.0000   1.0000   1.0000   1.0000
     1.0000   1.0011   1.0011   0.0000   0.0000   0.0000   0.0000   0.0000
     0.0000   0.0000   0.0000   0.0000   0.0000   0.0000   0.0000   0.0000
     0.0000   0.0000   0.0000   0.0000   0.0000   0.0000

          k = 0.2727 0.0875 0.0000 (221778 PWs)   bands (ev):

   -52.1364 -52.1364 -52.1362 -52.1357 -52.1314 -52.1314 -52.1312 -52.1307
   -51.2001 -51.2000 -51.1999 -51.1999 -51.1947 -51.1947 -51.1946 -51.1946
   -50.8439 -50.8413 -50.8397 -50.8385 -50.8369 -50.8359 -50.8344 -50.8318
    -7.3850  -6.5413  -6.4626  -5.9469  -5.9134  -5.5731  -5.1222  -5.0407
    -5.0339  -5.0288  -4.5022  -4.2171  -3.9116  -3.6841  -3.6329  -3.6127
    -3.3603  -2.9520  -2.6337  -2.5862  -2.5152  -2.3488  -1.9312  -1.8794
    -1.7182  -1.5861  -1.4994  -1.1162  -0.9470  -0.7593

     occupation numbers 
     1.0000   1.0000   1.0000   1.0000   1.0000   1.0000   1.0000   1.0000
     1.0000   1.0000   1.0000   1.0000   1.0000   1.0000   1.0000   1.0000
     1.0000   1.0000   1.0000   1.0000   1.0000   1.0000   1.0000   1.0000
     1.0000   1.0000   1.0000   1.0000   1.0000   1.0000   1.0000   1.0000
     1.0000   1.0000   0.9062   0.0068   0.0000   0.0000   0.0000   0.0000
     0.0000   0.0000   0.0000   0.0000   0.0000   0.0000   0.0000   0.0000
     0.0000   0.0000   0.0000   0.0000   0.0000   0.0000

          k = 0.2727 0.1750 0.0000 (221876 PWs)   bands (ev):

   -52.1364 -52.1364 -52.1362 -52.1357 -52.1314 -52.1314 -52.1312 -52.1307
   -51.2001 -51.2000 -51.1999 -51.1999 -51.1947 -51.1947 -51.1946 -51.1946
   -50.8437 -50.8420 -50.8389 -50.8382 -50.8372 -50.8367 -50.8337 -50.8321
    -7.3126  -6.8055  -6.3921  -5.9240  -5.8757  -5.4096  -5.3796  -4.9725
    -4.9670  -4.8087  -4.5165  -4.0560  -4.0421  -3.9999  -3.5389  -3.4121
    -3.0568  -2.9489  -2.8964  -2.8312  -2.7960  -2.5943  -1.9939  -1.6728
    -1.6088  -1.5954  -1.3870  -1.1616  -1.1611  -0.8996

     occupation numbers 
     1.0000   1.0000   1.0000   1.0000   1.0000   1.0000   1.0000   1.0000
     1.0000   1.0000   1.0000   1.0000   1.0000   1.0000   1.0000   1.0000
     1.0000   1.0000   1.0000   1.0000   1.0000   1.0000   1.0000   1.0000
     1.0000   1.0000   1.0000   1.0000   1.0000   1.0000   1.0000   1.0000
     1.0000   1.0017   0.9600   0.0000   0.0000   0.0000   0.0000   0.0000
     0.0000   0.0000   0.0000   0.0000   0.0000   0.0000   0.0000   0.0000
     0.0000   0.0000   0.0000   0.0000   0.0000   0.0000

          k = 0.2727 0.2624 0.0000 (221844 PWs)   bands (ev):

   -52.1364 -52.1364 -52.1362 -52.1357 -52.1314 -52.1314 -52.1312 -52.1307
   -51.2001 -51.2000 -51.1999 -51.1999 -51.1947 -51.1947 -51.1946 -51.1946
   -50.8433 -50.8427 -50.8382 -50.8378 -50.8376 -50.8373 -50.8330 -50.8325
    -7.1917  -7.0226  -6.2754  -6.1151  -5.7572  -5.5916  -4.9839  -4.8740
    -4.8598  -4.7838  -4.7047  -4.5153  -3.8004  -3.6533  -3.4332  -3.4058
    -3.3021  -3.1927  -2.8798  -2.8669  -2.8466  -2.7306  -1.9167  -1.6328
    -1.6317  -1.5981  -1.4807  -1.3954  -1.0088  -0.9872

     occupation numbers 
     1.0000   1.0000   1.0000   1.0000   1.0000   1.0000   1.0000   1.0000
     1.0000   1.0000   1.0000   1.0000   1.0000   1.0000   1.0000   1.0000
     1.0000   1.0000   1.0000   1.0000   1.0000   1.0000   1.0000   1.0000
     1.0000   1.0000   1.0000   1.0000   1.0000   1.0000   1.0000   1.0002
     1.0003   1.0036   1.0250   0.9557   0.0000   0.0000   0.0000   0.0000
     0.0000   0.0000   0.0000   0.0000   0.0000   0.0000   0.0000   0.0000
     0.0000   0.0000   0.0000   0.0000   0.0000   0.0000

          k = 0.3636 0.0000 0.0000 (221758 PWs)   bands (ev):

   -52.1355 -52.1355 -52.1353 -52.1348 -52.1323 -52.1323 -52.1321 -52.1316
   -51.1991 -51.1990 -51.1990 -51.1989 -51.1957 -51.1956 -51.1956 -51.1956
   -50.8430 -50.8396 -50.8396 -50.8394 -50.8363 -50.8360 -50.8358 -50.8327
    -7.2254  -6.3613  -6.3010  -6.0466  -6.0466  -5.4428  -5.1903  -5.1902
    -5.1375  -5.1375  -4.8546  -4.3022  -4.3022  -3.9815  -3.4543  -3.4542
    -3.2065  -2.8075  -2.5518  -2.5517  -2.2686  -2.0780  -2.0477  -1.8774
    -1.5906  -1.5480  -1.5478  -1.0373  -1.0371  -0.9700

     occupation numbers 
     1.0000   1.0000   1.0000   1.0000   1.0000   1.0000   1.0000   1.0000
     1.0000   1.0000   1.0000   1.0000   1.0000   1.0000   1.0000   1.0000
     1.0000   1.0000   1.0000   1.0000   1.0000   1.0000   1.0000   1.0000
     1.0000   1.0000   1.0000   1.0000   1.0000   1.0000   1.0000   1.0000
     1.0000   1.0000   1.0003   0.0676   0.0675   0.0000   0.0000   0.0000
     0.0000   0.0000   0.0000   0.0000   0.0000   0.0000   0.0000   0.0000
     0.0000   0.0000   0.0000   0.0000   0.0000   0.0000

          k = 0.3636 0.0875 0.0000 (221868 PWs)   bands (ev):

   -52.1355 -52.1355 -52.1353 -52.1348 -52.1323 -52.1323 -52.1321 -52.1316
   -51.1991 -51.1990 -51.1990 -51.1989 -51.1957 -51.1956 -51.1956 -51.1956
   -50.8429 -50.8403 -50.8395 -50.8387 -50.8369 -50.8359 -50.8354 -50.8327
    -7.2012  -6.3554  -6.3373  -6.2774  -5.7236  -5.4975  -5.4195  -5.3876
    -4.8630  -4.8410  -4.8328  -4.5574  -3.9990  -3.9577  -3.7089  -3.4070
    -3.1361  -2.8544  -2.7706  -2.4773  -2.2880  -2.2106  -2.1822  -1.7796
    -1.7514  -1.5120  -1.3441  -1.2955  -1.0709  -0.7906

     occupation numbers 
     1.0000   1.0000   1.0000   1.0000   1.0000   1.0000   1.0000   1.0000
     1.0000   1.0000   1.0000   1.0000   1.0000   1.0000   1.0000   1.0000
     1.0000   1.0000   1.0000   1.0000   1.0000   1.0000   1.0000   1.0000
     1.0000   1.0000   1.0000   1.0000   1.0000   1.0000   1.0000   1.0000
     1.0002   1.0006   1.0007   1.0580   0.0000   0.0000   0.0000   0.0000
     0.0000   0.0000   0.0000   0.0000   0.0000   0.0000   0.0000   0.0000
     0.0000   0.0000   0.0000   0.0000   0.0000   0.0000

          k = 0.3636 0.1750 0.0000 (221891 PWs)   bands (ev):

   -52.1355 -52.1355 -52.1353 -52.1348 -52.1323 -52.1323 -52.1321 -52.1316
   -51.1991 -51.1990 -51.1990 -51.1989 -51.1957 -51.1956 -51.1956 -51.1956
   -50.8427 -50.8411 -50.8392 -50.8379 -50.8376 -50.8362 -50.8346 -50.8330
    -7.1286  -6.6204  -6.2651  -6.2067  -5.7606  -5.7359  -5.3496  -5.2213
    -4.8805  -4.7696  -4.6092  -4.3858  -3.8882  -3.8330  -3.8066  -3.7340
    -3.0284  -2.9656  -2.8192  -2.7425  -2.7027  -2.2985  -1.8781  -1.8699
    -1.7673  -1.5286  -1.4073  -1.2178  -1.1003  -0.9709

     occupation numbers 
     1.0000   1.0000   1.0000   1.0000   1.0000   1.0000   1.0000   1.0000
     1.0000   1.0000   1.0000   1.0000   1.0000   1.0000   1.0000   1.0000
     1.0000   1.0000   1.0000   1.0000   1.0000   1.0000   1.0000   1.0000
     1.0000   1.0000   1.0000   1.0000   1.0000   1.0000   1.0000   1.0000
     1.0001   1.0054   1.0814   0.3131   0.0000   0.0000   0.0000   0.0000
[...]
     atom   12 type  1   force =    -0.00019562    0.00000086    0.04843010
     atom   13 type  1   force =     0.00011937    0.00000008   -0.00767711
     atom   14 type  1   force =    -0.00010696    0.00000458    0.00767831
     atom   15 type  1   force =     0.00019474   -0.00000002   -0.04843204
     atom   16 type  1   force =    -0.00006310   -0.00000284   -0.01711119
     atom   17 type  1   force =     0.00006133    0.00000001    0.01709754
     atom   18 type  1   force =    -0.00019897   -0.00000008    0.04842012
     atom   19 type  1   force =     0.00012291    0.00000007   -0.00767803
     atom   20 type  1   force =    -0.00010696   -0.00000441    0.00767832
     atom   21 type  1   force =     0.00020242   -0.00000002   -0.04844128
     atom   22 type  1   force =    -0.00006310    0.00000285   -0.01711118
     atom   23 type  1   force =     0.00006166    0.00000000    0.01709219
     atom   24 type  1   force =    -0.00019897    0.00000004    0.04842013
 

     Forces acting on atoms (cartesian axes, Ry/au):

     atom    1 type  1   force =     0.00018026    0.00000000   -0.00011786
     atom    2 type  1   force =    -0.00023677   -0.00000103    0.00011774
     atom    3 type  1   force =     0.00018864    0.00000000    0.00026884
     atom    4 type  1   force =     0.00014116    0.00000797    0.00006310
     atom    5 type  1   force =    -0.00016875    0.00000000   -0.00005628
     atom    6 type  1   force =    -0.00013141    0.00000527   -0.00026331
     atom    7 type  1   force =     0.00016118    0.00000000   -0.00011756
     atom    8 type  1   force =    -0.00023677    0.00000103    0.00011774
     atom    9 type  1   force =     0.00013355    0.00000000    0.00027519
     atom   10 type  1   force =     0.00014116   -0.00000797    0.00006310
     atom   11 type  1   force =    -0.00017814    0.00000000   -0.00009033
     atom   12 type  1   force =    -0.00013141   -0.00000527   -0.00026331
     atom   13 type  1   force =     0.00034909    0.00000000   -0.00011255
     atom   14 type  1   force =    -0.00029269    0.00000246    0.00011400
     atom   15 type  1   force =     0.00017694    0.00000000    0.00028012
     atom   16 type  1   force =     0.00012288   -0.00002000    0.00005377
     atom   17 type  1   force =    -0.00009309    0.00000000   -0.00004895
     atom   18 type  1   force =    -0.00023656    0.00000051   -0.00029911
     atom   19 type  1   force =     0.00036805    0.00000000   -0.00010271
     atom   20 type  1   force =    -0.00029269   -0.00000246    0.00011400
     atom   21 type  1   force =     0.00023422    0.00000000    0.00029141
     atom   22 type  1   force =     0.00012288    0.00002000    0.00005377
     atom   23 type  1   force =    -0.00008515    0.00000000   -0.00004167
     atom   24 type  1   force =    -0.00023656   -0.00000051   -0.00029911
     The non-local contrib.  to forces
     atom    1 type  1   force =     0.00007907    0.00000000    0.09992734
     atom    2 type  1   force =    -0.00010593   -0.00001189   -0.09993539
     atom    3 type  1   force =     0.00061646    0.00000000   -0.03928618
     atom    4 type  1   force =    -0.00011373    0.00001094    0.00445215
     atom    5 type  1   force =     0.00010616    0.00000000   -0.00442689
     atom    6 type  1   force =    -0.00056771    0.00000397    0.03930272
     atom    7 type  1   force =     0.00007763    0.00000000    0.09993212
     atom    8 type  1   force =    -0.00010593    0.00001189   -0.09993539
     atom    9 type  1   force =     0.00054846    0.00000000   -0.03929699
     atom   10 type  1   force =    -0.00011373   -0.00001094    0.00445215
     atom   11 type  1   force =     0.00009231    0.00000000   -0.00447974
     atom   12 type  1   force =    -0.00056771   -0.00000397    0.03930272
     atom   13 type  1   force =     0.00016960    0.00000000    0.09995069
     atom   14 type  1   force =    -0.00014320    0.00001187   -0.09994530
     atom   15 type  1   force =     0.00059166    0.00000000   -0.03925585
     atom   16 type  1   force =    -0.00013773   -0.00002492    0.00442040
     atom   17 type  1   force =     0.00014129    0.00000000   -0.00442210
     atom   18 type  1   force =    -0.00063615    0.00000279    0.03924616
     atom   19 type  1   force =     0.00017218    0.00000000    0.09996022
     atom   20 type  1   force =    -0.00014320   -0.00001187   -0.09994530
     atom   21 type  1   force =     0.00065600    0.00000000   -0.03926786
     atom   22 type  1   force =    -0.00013773    0.00002492    0.00442040
     atom   23 type  1   force =     0.00015737    0.00000000   -0.00441656
     atom   24 type  1   force =    -0.00063615   -0.00000279    0.03924616
     The ionic contribution  to forces
     atom    1 type  1   force =    -0.00086450   -0.00000002    8.55905503
     atom    2 type  1   force =     0.00005689   -0.00023672   -8.55887658
     atom    3 type  1   force =     0.00129079    0.00000001   -5.06705930
     atom    4 type  1   force =    -0.00311764    0.00003329   -2.15364704
     atom    5 type  1   force =     0.00302051   -0.00000002    2.15369196
     atom    6 type  1   force =    -0.00033757    0.00004692    5.06737021
     atom    7 type  1   force =    -0.00108603    0.00000003    8.55876377
     atom    8 type  1   force =     0.00005689    0.00023671   -8.55887652
     atom    9 type  1   force =     0.00014462    0.00000001   -5.06758389
     atom   10 type  1   force =    -0.00311763   -0.00003331   -2.15364696
     atom   11 type  1   force =     0.00279648    0.00000004    2.15376975
     atom   12 type  1   force =    -0.00033756   -0.00004694    5.06737040
     atom   13 type  1   force =     0.00153723   -0.00000002    8.55894895
     atom   14 type  1   force =    -0.00072909   -0.00001772   -8.55904374
     atom   15 type  1   force =     0.00091113    0.00000001   -5.06683119
     atom   16 type  1   force =    -0.00367833   -0.00060962   -2.15358659
     atom   17 type  1   force =     0.00379927   -0.00000002    2.15371829
     atom   18 type  1   force =    -0.00188977    0.00000077    5.06721266
     atom   19 type  1   force =     0.00175235    0.00000003    8.55906303
     atom   20 type  1   force =    -0.00072908    0.00001771   -8.55904368
     atom   21 type  1   force =     0.00208015    0.00000001   -5.06747263
     atom   22 type  1   force =    -0.00367832    0.00060960   -2.15358651
     atom   23 type  1   force =     0.00400899    0.00000004    2.15307775
     atom   24 type  1   force =    -0.00188977   -0.00000079    5.06721285
     The local contribution  to forces
     atom    1 type  1   force =     0.00088886   -0.00004252   -8.65140114
     atom    2 type  1   force =    -0.00010037    0.00020341    8.65125715
     atom    3 type  1   force =    -0.00191883   -0.00004369    5.15504731
     atom    4 type  1   force =     0.00343141   -0.00007934    2.16637164
     atom    5 type  1   force =    -0.00336113   -0.00004494   -2.16641975
     atom    6 type  1   force =     0.00096772   -0.00008829   -5.15536026
     atom    7 type  1   force =     0.00109597   -0.00004393   -8.65113815
     atom    8 type  1   force =    -0.00009805   -0.00029433    8.65125358
     atom    9 type  1   force =    -0.00075226   -0.00004450    5.15559710
     atom   10 type  1   force =     0.00344187   -0.00000937    2.16636922
     atom   11 type  1   force =    -0.00313239   -0.00004169   -2.16648241
     atom   12 type  1   force =     0.00097178    0.00000148   -5.15536512
     atom   13 type  1   force =    -0.00147304   -0.00004252   -8.65133544
     atom   14 type  1   force =     0.00068185   -0.00004155    8.65142716
     atom   15 type  1   force =    -0.00152092   -0.00004369    5.15479506
     atom   16 type  1   force =     0.00399671    0.00057287    2.16633130
     atom   17 type  1   force =    -0.00409501   -0.00004494   -2.16644189
     atom   18 type  1   force =     0.00248662   -0.00004649   -5.15517120
     atom   19 type  1   force =    -0.00167507   -0.00004393   -8.65144833
     atom   20 type  1   force =     0.00068475   -0.00004938    8.65142300
     atom   21 type  1   force =    -0.00270457   -0.00004450    5.15546901
     atom   22 type  1   force =     0.00400717   -0.00066159    2.16632887
     atom   23 type  1   force =    -0.00431314   -0.00004169   -2.16579429
     atom   24 type  1   force =     0.00249069   -0.00004032   -5.15517607
     The core correction contribution to forces
     atom    1 type  1   force =     0.00000000    0.00000000    0.00000000
     atom    2 type  1   force =     0.00000000    0.00000000    0.00000000
     atom    3 type  1   force =     0.00000000    0.00000000    0.00000000
     atom    4 type  1   force =     0.00000000    0.00000000    0.00000000
     atom    5 type  1   force =     0.00000000    0.00000000    0.00000000
     atom    6 type  1   force =     0.00000000    0.00000000    0.00000000
     atom    7 type  1   force =     0.00000000    0.00000000    0.00000000
     atom    8 type  1   force =     0.00000000    0.00000000    0.00000000
     atom    9 type  1   force =     0.00000000    0.00000000    0.00000000
     atom   10 type  1   force =     0.00000000    0.00000000    0.00000000
     atom   11 type  1   force =     0.00000000    0.00000000    0.00000000
     atom   12 type  1   force =     0.00000000    0.00000000    0.00000000
     atom   13 type  1   force =     0.00000000    0.00000000    0.00000000
     atom   14 type  1   force =     0.00000000    0.00000000    0.00000000
     atom   15 type  1   force =     0.00000000    0.00000000    0.00000000
     atom   16 type  1   force =     0.00000000    0.00000000    0.00000000
     atom   17 type  1   force =     0.00000000    0.00000000    0.00000000
     atom   18 type  1   force =     0.00000000    0.00000000    0.00000000
     atom   19 type  1   force =     0.00000000    0.00000000    0.00000000
     atom   20 type  1   force =     0.00000000    0.00000000    0.00000000
     atom   21 type  1   force =     0.00000000    0.00000000    0.00000000
     atom   22 type  1   force =     0.00000000    0.00000000    0.00000000
     atom   23 type  1   force =     0.00000000    0.00000000    0.00000000
     atom   24 type  1   force =     0.00000000    0.00000000    0.00000000
     The Hubbard contrib.    to forces
     atom    1 type  1   force =     0.00000000    0.00000000    0.00000000
     atom    2 type  1   force =     0.00000000    0.00000000    0.00000000
     atom    3 type  1   force =     0.00000000    0.00000000    0.00000000
     atom    4 type  1   force =     0.00000000    0.00000000    0.00000000
     atom    5 type  1   force =     0.00000000    0.00000000    0.00000000
     atom    6 type  1   force =     0.00000000    0.00000000    0.00000000
     atom    7 type  1   force =     0.00000000    0.00000000    0.00000000
     atom    8 type  1   force =     0.00000000    0.00000000    0.00000000
     atom    9 type  1   force =     0.00000000    0.00000000    0.00000000
     atom   10 type  1   force =     0.00000000    0.00000000    0.00000000
     atom   11 type  1   force =     0.00000000    0.00000000    0.00000000
     atom   12 type  1   force =     0.00000000    0.00000000    0.00000000
     atom   13 type  1   force =     0.00000000    0.00000000    0.00000000
     atom   14 type  1   force =     0.00000000    0.00000000    0.00000000
     atom   15 type  1   force =     0.00000000    0.00000000    0.00000000
     atom   16 type  1   force =     0.00000000    0.00000000    0.00000000
     atom   17 type  1   force =     0.00000000    0.00000000    0.00000000
     atom   18 type  1   force =     0.00000000    0.00000000    0.00000000
     atom   19 type  1   force =     0.00000000    0.00000000    0.00000000
     atom   20 type  1   force =     0.00000000    0.00000000    0.00000000
     atom   21 type  1   force =     0.00000000    0.00000000    0.00000000
     atom   22 type  1   force =     0.00000000    0.00000000    0.00000000
     atom   23 type  1   force =     0.00000000    0.00000000    0.00000000
     atom   24 type  1   force =     0.00000000    0.00000000    0.00000000
     The SCF correction term to forces
     atom    1 type  1   force =    -0.00000185    0.00000000    0.00000053
     atom    2 type  1   force =     0.00000268    0.00000000   -0.00000052
     atom    3 type  1   force =     0.00000027    0.00000000    0.00000381
     atom    4 type  1   force =     0.00000012   -0.00000008    0.00000105
     atom    5 type  1   force =    -0.00000028    0.00000000   -0.00000102
     atom    6 type  1   force =    -0.00000027    0.00000013   -0.00000378
     atom    7 type  1   force =    -0.00000165   -0.00000000    0.00000055
     atom    8 type  1   force =     0.00000268   -0.00000000   -0.00000052
     atom    9 type  1   force =     0.00000049   -0.00000000    0.00000382
     atom   10 type  1   force =     0.00000012    0.00000008    0.00000105
     atom   11 type  1   force =    -0.00000021   -0.00000000   -0.00000163
     atom   12 type  1   force =    -0.00000027   -0.00000013   -0.00000378
     atom   13 type  1   force =    -0.00000408    0.00000000    0.00000031
     atom   14 type  1   force =     0.00000325   -0.00000011   -0.00000042
     atom   15 type  1   force =     0.00000033    0.00000000    0.00000411
     atom   16 type  1   force =     0.00000010    0.00000014    0.00000099
     atom   17 type  1   force =     0.00000004    0.00000000   -0.00000084
     atom   18 type  1   force =    -0.00000033    0.00000009   -0.00000455
     atom   19 type  1   force =    -0.00000432   -0.00000000    0.00000036
     atom   20 type  1   force =     0.00000325    0.00000011   -0.00000042
     atom   21 type  1   force =     0.00000021    0.00000000    0.00000414
     atom   22 type  1   force =     0.00000010   -0.00000014    0.00000099
     atom   23 type  1   force =    -0.00000003   -0.00000000   -0.00000081
     atom   24 type  1   force =    -0.00000033   -0.00000009   -0.00000455

     Total force =     0.001340     Total SCF correction =     0.000015
     Energy error            =      8.5E-06 Ry
     Gradient error          =      3.7E-04 Ry/Bohr

     bfgs converged in  41 scf cycles and  32 bfgs steps
     (criteria: energy <  1.0E-05 Ry, force <  3.9E-04 Ry/Bohr)

     End of BFGS Geometry Optimization

     Final energy             =    -361.0094097436 Ry

     File ./Li/Lithium.bfgs deleted, as requested
Begin final coordinates

ATOMIC_POSITIONS (angstrom)
Li               3.1848292585        4.8580445300       27.2975870143
Li               0.7823860737        2.4292094240       19.7488136420
Li               1.9625005115        4.8580445600       21.5693172189
Li               3.2502187160        2.4289628816       22.6590649305
Li               0.7164579617        4.8580445800       24.3870792428
Li               2.0035593766        2.4290121911       25.4770049950
Li               3.1848775426        9.7160883600       27.2972762017
Li               0.7823860337        7.2868797360       19.7488137020
Li               1.9629928998        9.7160883800       21.5690670470
Li               3.2502185360        7.2871262584       22.6590649705
Li               0.7167043579        9.7160883300       24.3874182756
Li               2.0035593066        7.2870769189       25.4770050749
Li               6.1582219061        4.8580445300       27.2973437959
Li               3.7578474934        2.4292202912       19.7487629865
Li               4.9375418374        4.8580445600       21.5692383431
Li               6.2253327827        2.4291957172       22.6591911593
Li               3.6907205492        4.8580445800       24.3871059456
Li               4.9794393736        2.4290115132       25.4773048464
Li               6.1579279773        9.7160883600       27.2973122247
Li               3.7578474434        7.2868688688       19.7487630565
Li               4.9369766502        9.7160883800       21.5689017720
Li               6.2253326027        7.2868934228       22.6591911993
Li               3.6907933175        9.7160883300       24.3868853209
Li               4.9794393036        7.2870775968       25.4773049264
End final coordinates



     Writing all to output data dir ./Li/Lithium.save/ :
     XML data file
     init_run     :      7.59s CPU      9.18s WALL (       1 calls)
     electrons    :  10347.01s CPU  10413.64s WALL (      41 calls)
     update_pot   :      5.47s CPU      5.59s WALL (      40 calls)
     forces       :    658.68s CPU    660.89s WALL (      41 calls)

     Called by init_run:
     wfcinit      :      1.16s CPU      1.63s WALL (       1 calls)
     wfcinit:wfcr :      1.09s CPU      1.56s WALL (      12 calls)
     potinit      :      0.15s CPU      0.35s WALL (       1 calls)
     hinit0       :      2.51s CPU      3.24s WALL (       1 calls)

     Called by electrons:
     c_bands      :   4123.84s CPU   4155.40s WALL (     761 calls)
     sum_band     :    435.06s CPU    438.49s WALL (     761 calls)
     v_of_rho     :     68.20s CPU     68.84s WALL (     762 calls)
     v_h          :      6.10s CPU      6.13s WALL (     762 calls)
     v_xc         :     62.09s CPU     62.71s WALL (     762 calls)
     newd         :     19.45s CPU     19.77s WALL (     762 calls)
     PAW_pot      :     18.68s CPU     19.12s WALL (     802 calls)
     mix_rho      :    167.80s CPU    168.83s WALL (     761 calls)

     Called by c_bands:
     init_us_2    :     55.74s CPU     56.23s WALL (   19248 calls)
     cegterg      :   3902.77s CPU   3929.29s WALL (    9417 calls)

     Called by sum_band:
     sum_band:wei :      1.87s CPU      1.88s WALL (     761 calls)
     sum_band:loo :    392.17s CPU    395.04s WALL (     761 calls)
     sum_band:buf :      4.83s CPU      4.91s WALL (    9132 calls)
     sum_band:ini :     27.15s CPU     27.29s WALL (    9132 calls)
     sum_band:cal :     46.24s CPU     46.65s WALL (    9612 calls)
     sum_band:bec :      1.44s CPU      1.51s WALL (    9612 calls)
     addusdens    :     14.85s CPU     15.15s WALL (     761 calls)
                                        0.00s GPU  (     761 calls)
     addusd:skk   :      2.41s CPU      2.42s WALL (     761 calls)
                                        0.00s GPU  (     761 calls)

     Called by *egterg:
     cdiaghg      :    612.64s CPU    616.39s WALL (   95908 calls)
     cegterg:over :    329.78s CPU    331.99s WALL (   87540 calls)
     cegterg:upda :    162.35s CPU    163.32s WALL (   87540 calls)
     cegterg:last :     37.55s CPU     37.73s WALL (   11519 calls)
     h_psi        :   2510.34s CPU   2529.11s WALL (   96969 calls)
     s_psi        :    133.31s CPU    134.30s WALL (   96969 calls)
     g_psi        :      5.74s CPU      5.79s WALL (   87540 calls)

     Called by h_psi:
     h_psi:calbec :    221.43s CPU    223.63s WALL (   96969 calls)
     vloc_psi     :   2135.84s CPU   2151.63s WALL (   96969 calls)
                                        0.00s GPU  (   96969 calls)
     add_vuspsi   :    140.74s CPU    141.56s WALL (   96969 calls)

     General routines
     calbec       :    275.20s CPU    278.02s WALL (  108549 calls)
     fft          :     63.75s CPU     64.56s WALL (    9986 calls)
     ffts         :     86.73s CPU     87.34s WALL (   85163 calls)
     fftw         :   2312.97s CPU   2330.06s WALL ( 4133546 calls)
     interpolate  :      5.09s CPU      5.23s WALL (     762 calls)
 
     Parallel routines

     PAW routines
     PAW_pot      :     18.68s CPU     19.12s WALL (     802 calls)
     PAW_symme    :      0.36s CPU      0.36s WALL (    1563 calls)
 
     Environ routines
 
     PWSCF        :      3h10m CPU      3h12m WALL

 
   This run was terminated on:  21:57:12   6Jan2025            

=------------------------------------------------------------------------------=
   JOB DONE.
=------------------------------------------------------------------------------=
