
     Program PWSCF v.7.4 starts on 20Jan2025 at  4:24:32 

     This program is part of the open-source Quantum ESPRESSO suite
     for quantum simulation of materials; please cite
         "P. Giannozzi et al., J. Phys.:Condens. Matter 21 395502 (2009);
         "P. Giannozzi et al., J. Phys.:Condens. Matter 29 465901 (2017);
         "P. Giannozzi et al., J. Chem. Phys. 152 154105 (2020);
          URL http://www.quantum-espresso.org", 
     in publications or presentations arising from this work. More details at
     http://www.quantum-espresso.org/quote

     Parallel version (MPI & OpenMP), running on     512 processor cores
     Number of MPI processes:               512
     Threads/MPI process:                     1

     MPI processes distributed on     4 nodes
     233181 MiB available memory on the printing compute node when the environment starts

     Reading input from espresso.pwi
Warning: card &CELL ignored
Warning: card    PRESS_CONV_THR   = 0.1 ignored
Warning: card    CELL_DOFREE      = 'ALL' ignored
Warning: card / ignored
Warning: card &FCP ignored
Warning: card / ignored
Warning: card &RISM ignored
Warning: card / ignored

     Current dimensions of program PWSCF are:
     Max number of different atomic species (ntypx) = 10
     Max number of k-points (npk) =  40000
     Max angular momentum in pseudopotentials (lmaxx) =  4

     IMPORTANT: XC functional enforced from input :
     Exchange-correlation= PBE
                           (   1   4   3   4   0   0   0)
     Any further DFT definition will be discarded
     Please, verify this is what you really want


     Reading input from environ.in:
     * using ionic solvent mode
     * setting boundary derivatives method to SSCS default
     * setting electrolyte-boundary derivatives method to SSCS default

Environ Warning (1001): card EOF ignored

     

     K-points division:     npool     =       2
     R & G space division:  proc/nbgrp/npool/nimage =     256
     Subspace diagonalization in iterative solution of the eigenvalue problem:
     one sub-group per band group will be used
     ELPA distributed-memory algorithm (size of sub-group:  2*  2 procs)


     Parallelization info
     --------------------
     sticks:   dense  smooth     PW     G-vecs:    dense   smooth      PW
     Min          86      34      9                52542    13274    1767
     Max          87      35     10                52593    13321    1811
     Sum       22119    8865   2329             13455463  3404289  459339

     Using Slab Decomposition



     bravais-lattice index     =           12
     lattice parameter (alat)  =      18.3607  a.u.
     unit-cell volume          =   35212.2554 (a.u.)^3
     number of atoms/cell      =           68
     number of atomic types    =            1
     number of electrons       =       204.00
     number of Kohn-Sham states=          153
     kinetic-energy cutoff     =      80.0000  Ry
     charge density cutoff     =     800.0000  Ry
     scf convergence threshold =      1.0E-16
     mixing beta               =       0.2000
     number of iterations used =            8  local-TF  mixing
     Exchange-correlation= PBE
                           (   1   4   3   4   0   0   0)

     ================================================================================

                                  Environ Setup Summary

     ================================================================================

     Please cite

          O. Andreussi, I. Dabo and N. Marzari, J. Chem. Phys. 136, 064102 (2012)
          F. Nattino, M. Truscott, N. Marzari, and O. Andreussi, J. Chem. Phys. 150, 041722 (2019)

     in publications or presentations arising from this work.

     ================================================================================

     Parameters
     ==========

     compensation onset threshold      =               0.1000E+00
     static permittivity               =                    89.90
     surface tension in input (dyn/cm) =                    37.30
     surface tension in internal units =               0.4792E-04

     Solvent Boundary
     ================

     solvent mode                      =                    ionic
     derivatives method                =                   lowmem
     electrolyte derivatives method    =                   lowmem
     numerical core for derivatives    =                      fft
     switching function adopted        =                     SCCS
     density limit for vacuum region   =               0.5000E-02
     density limit for bulk solvent    =               0.1000E-03
     soft-sphere radius mode           =                    bondi
     soft-sphere softness              =                     0.50
     alpha                             =                     1.32

     Electrostatic Setup
     ===================

     electrostatic problem to solve    =                    modpb
     numerical solver adopted          =                   newton
     type of auxiliary density adopted =                     none
     numerical core for poisson        =                      fft
     adopting a nested solver scheme
     inner solver                      =                       cg
     inner core                        =                      fft
     type of pbc corrections           =                parabolic
     numerical core for corrections    =                      1da

     ================================================================================


     >>>>> Grand-Canonical SCF is activated <<<<<
     Initial Total Charge  =     0.000000 e
     Target Fermi Energy   =    -4.904000 eV
     Thr. of Fermi Energy  =     0.001000 eV
     Wave-shift of Kerker  =     0.400000 bohr^-1
     Wave-shift of Hartree =     1.500000 bohr^-1
     Mixing Rate of Fermi  =     0.050000

     celldm(1)=  18.360747  celldm(2)=   1.060660  celldm(3)=   5.518976
     celldm(4)=  -0.235702  celldm(5)=   0.000000  celldm(6)=   0.000000

     crystal axes: (cart. coord. in units of alat)
               a(1) = (   1.000000   0.000000   0.000000 )  
               a(2) = (  -0.250000   1.030776   0.000000 )  
               a(3) = (   0.000000   0.000000   5.518976 )  

     reciprocal axes: (cart. coord. in units 2 pi/alat)
               b(1) = (  1.000000  0.242536 -0.000000 )  
               b(2) = (  0.000000  0.970143  0.000000 )  
               b(3) = (  0.000000 -0.000000  0.181193 )  


     PseudoPot. # 1 for Li read from file:
     /work/e89/e89/ba3g18/Repos/Pseudopotentials/Pslibrary/Li.pbe-sl-kjpaw_psl.1.0.0.UPF
     MD5 check sum: 3f4d2cafebb47c6c3aa8ed472e6f074d
     Pseudo is Projector augmented-wave, Zval =  3.0
     Generated using 'atomic' code by A. Dal Corso  v.7.4
     Shape of augmentation charge: PSQ
     Using radial grid of 1017 points,  4 beta functions with: 
                l(1) =   0
                l(2) =   0
                l(3) =   1
                l(4) =   1
     Q(r) pseudized with 0 coefficients 


     atomic species   valence    mass     pseudopotential
     Li                3.00     6.94000     Li( 1.00)

     No symmetry found


                                    s                        frac. trans.

      isym =  1     identity                                     

 cryst.   s( 1) = (     1          0          0      )
                  (     0          1          0      )
                  (     0          0          1      )

 cart.    s( 1) = (  1.0000000  0.0000000  0.0000000 )
                  (  0.0000000  1.0000000  0.0000000 )
                  (  0.0000000  0.0000000  1.0000000 )


     point group C_1 (1)    
     there are  1 classes
     the character table:

       E    
A      1.00

     the symmetry operations in each class and the name of the first element:

     E        1
          identity                                               

   Cartesian axes

     site n.     atom                  positions (alat units)
         1        Li     tau(   1) = (  -0.0001126   0.0792040   1.9881847  )
         2        Li     tau(   2) = (   0.0001645   0.5960521   3.4890043  )
         3        Li     tau(   3) = (   0.2501438   0.8051725   3.2620419  )
         4        Li     tau(   4) = (   0.2502379   0.2003488   3.2952805  )
         5        Li     tau(   5) = (   0.0001954   0.3673348   3.1729652  )
         6        Li     tau(   6) = (   0.2500480   0.5569980   2.9909563  )
         7        Li     tau(   7) = (   0.2499864   0.9073143   2.6540767  )
         8        Li     tau(   8) = (   0.0001768   0.9695333   3.1077871  )
         9        Li     tau(   9) = (   0.0000455   0.1239448   2.9075167  )
        10        Li     tau(  10) = (   0.2499499   0.3076053   2.7162117  )
        11        Li     tau(  11) = (  -0.0000845   0.4788726   2.5590860  )
        12        Li     tau(  12) = (   0.2498561   0.6645527   2.3695853  )
        13        Li     tau(  13) = (   0.0000386   0.7254629   2.8345053  )
        14        Li     tau(  14) = (   0.2499128   0.0483687   2.5088487  )
        15        Li     tau(  15) = (  -0.0002394   0.2327346   2.3135337  )
        16        Li     tau(  16) = (   0.2497759   0.3844019   2.0826528  )
        17        Li     tau(  17) = (  -0.0002004   0.8342519   2.2363365  )
        18        Li     tau(  18) = (   0.0002178   0.0703856   3.2054044  )
        19        Li     tau(  19) = (   0.0001481   0.6693270   3.1493599  )
        20        Li     tau(  20) = (   0.2500810   0.8551177   2.9599069  )
        21        Li     tau(  21) = (   0.2500871   0.2548493   3.0101668  )
        22        Li     tau(  22) = (   0.0000053   0.4267367   2.8650073  )
        23        Li     tau(  23) = (   0.2499630   0.6086053   2.6845970  )
        24        Li     tau(  24) = (   0.2497970   0.9665631   2.3459840  )
        25        Li     tau(  25) = (   0.0000480   1.0264051   2.8028927  )
        26        Li     tau(  26) = (  -0.0000539   0.1792693   2.6115465  )
        27        Li     tau(  27) = (   0.2498232   0.3643401   2.4112155  )
        28        Li     tau(  28) = (  -0.0001473   0.5287476   2.2567999  )
        29        Li     tau(  29) = (   0.2498757   0.7378394   2.0299456  )
        30        Li     tau(  30) = (  -0.0000482   0.7770302   2.5280253  )
        31        Li     tau(  31) = (   0.2497603   0.1027625   2.2236749  )
        32        Li     tau(  32) = (   0.0002265   0.2239423   3.5307435  )
        33        Li     tau(  33) = (   0.2502037   0.4996510   3.2824943  )
        34        Li     tau(  34) = (   0.0002138   0.9494809   3.4363198  )
        35        Li     tau(  35) = (   0.4997142   0.0792001   1.9881805  )
        36        Li     tau(  36) = (   0.5002144   0.5960460   3.4890265  )
        37        Li     tau(  37) = (   0.7501562   0.8051753   3.2620389  )
        38        Li     tau(  38) = (   0.7502397   0.2003646   3.2953166  )
        39        Li     tau(  39) = (   0.5001845   0.3673364   3.1729584  )
        40        Li     tau(  40) = (   0.7500414   0.5569996   2.9909229  )
        41        Li     tau(  41) = (   0.7500057   0.9073131   2.6540799  )
        42        Li     tau(  42) = (   0.5001772   0.9695388   3.1077719  )
        43        Li     tau(  43) = (   0.5000561   0.1239467   2.9075142  )
        44        Li     tau(  44) = (   0.7499524   0.3076100   2.7162152  )
        45        Li     tau(  45) = (   0.4999159   0.4788750   2.5590799  )
        46        Li     tau(  46) = (   0.7498436   0.6645489   2.3695701  )
        47        Li     tau(  47) = (   0.5000442   0.7254622   2.8345483  )
        48        Li     tau(  48) = (   0.7499112   0.0483850   2.5087605  )
        49        Li     tau(  49) = (   0.4997969   0.2327268   2.3135337  )
        50        Li     tau(  50) = (   0.7497867   0.3844382   2.0826199  )
        51        Li     tau(  51) = (   0.4998019   0.8342140   2.2364568  )
        52        Li     tau(  52) = (   0.5002289   0.0703867   3.2054003  )
        53        Li     tau(  53) = (   0.5001512   0.6693344   3.1493863  )
        54        Li     tau(  54) = (   0.7500884   0.8551191   2.9599068  )
        55        Li     tau(  55) = (   0.7500877   0.2548503   3.0101889  )
        56        Li     tau(  56) = (   0.5000007   0.4267369   2.8650012  )
        57        Li     tau(  57) = (   0.7499543   0.6086049   2.6845757  )
        58        Li     tau(  58) = (   0.7498241   0.9665641   2.3459890  )
        59        Li     tau(  59) = (   0.5000468   1.0264065   2.8028448  )
        60        Li     tau(  60) = (   0.4999510   0.1792743   2.6115457  )
        61        Li     tau(  61) = (   0.7498248   0.3643392   2.4111970  )
        62        Li     tau(  62) = (   0.4998470   0.5287279   2.2567936  )
        63        Li     tau(  63) = (   0.7497431   0.7378560   2.0299412  )
        64        Li     tau(  64) = (   0.4999570   0.7770341   2.5281097  )
        65        Li     tau(  65) = (   0.7497651   0.1027121   2.2235521  )
        66        Li     tau(  66) = (   0.5001724   0.2239378   3.5307370  )
        67        Li     tau(  67) = (   0.7501950   0.4996632   3.2824493  )
        68        Li     tau(  68) = (   0.5002233   0.9494625   3.4363159  )

   Crystallographic axes

     site n.     atom                  positions (cryst. coord.)
         1        Li     tau(   1) = (  0.0190972  0.0768392  0.3602452  )
         2        Li     tau(   2) = (  0.1447285  0.5782557  0.6321833  )
         3        Li     tau(   3) = (  0.4454269  0.7811323  0.5910593  )
         4        Li     tau(   4) = (  0.2988297  0.1943669  0.5970819  )
         5        Li     tau(   5) = (  0.0892872  0.3563672  0.5749192  )
         6        Li     tau(   6) = (  0.3851399  0.5403677  0.5419404  )
         7        Li     tau(   7) = (  0.4700425  0.8802245  0.4809002  )
         8        Li     tau(   8) = (  0.2353233  0.9405859  0.5631094  )
         9        Li     tau(   9) = (  0.0301066  0.1202442  0.5268218  )
        10        Li     tau(  10) = (  0.3245552  0.2984211  0.4921586  )
        11        Li     tau(  11) = (  0.1160592  0.4645749  0.4636886  )
        12        Li     tau(  12) = (  0.4110338  0.6447111  0.4293524  )
        13        Li     tau(  13) = (  0.1759893  0.7038027  0.5135926  )
        14        Li     tau(  14) = (  0.2616439  0.0469246  0.4545859  )
        15        Li     tau(  15) = (  0.0562070  0.2257858  0.4191962  )
        16        Li     tau(  16) = (  0.3430071  0.3729248  0.3773622  )
        17        Li     tau(  17) = (  0.2021355  0.8093435  0.4052086  )
        18        Li     tau(  18) = (  0.0172888  0.0682841  0.5807969  )
        19        Li     tau(  19) = (  0.1624838  0.6493428  0.5706421  )
        20        Li     tau(  20) = (  0.4574776  0.8295864  0.5363145  )
        21        Li     tau(  21) = (  0.3118972  0.2472402  0.5454213  )
        22        Li     tau(  22) = (  0.1035041  0.4139956  0.5191194  )
        23        Li     tau(  23) = (  0.3975715  0.5904341  0.4864303  )
        24        Li     tau(  24) = (  0.4842231  0.9377043  0.4250760  )
        25        Li     tau(  25) = (  0.2489879  0.9957596  0.5078646  )
        26        Li     tau(  26) = (  0.0434253  0.1739168  0.4731940  )
        27        Li     tau(  27) = (  0.3381887  0.3534620  0.4368954  )
        28        Li     tau(  28) = (  0.1280928  0.5129607  0.4089164  )
        29        Li     tau(  29) = (  0.4288281  0.7158097  0.3678120  )
        30        Li     tau(  30) = (  0.1884094  0.7538303  0.4580606  )
        31        Li     tau(  31) = (  0.2746839  0.0996944  0.4029144  )
        32        Li     tau(  32) = (  0.0545405  0.2172560  0.6397461  )
        33        Li     tau(  33) = (  0.3713869  0.4847328  0.5947651  )
        34        Li     tau(  34) = (  0.2304969  0.9211322  0.6226372  )
        35        Li     tau(  35) = (  0.5189230  0.0768354  0.3602445  )
        36        Li     tau(  36) = (  0.6447768  0.5782498  0.6321873  )
        37        Li     tau(  37) = (  0.9454399  0.7811350  0.5910587  )
        38        Li     tau(  38) = (  0.7988352  0.1943823  0.5970884  )
        39        Li     tau(  39) = (  0.5892767  0.3563688  0.5749180  )
        40        Li     tau(  40) = (  0.8851337  0.5403692  0.5419344  )
        41        Li     tau(  41) = (  0.9700615  0.8802234  0.4809008  )
        42        Li     tau(  42) = (  0.7353250  0.9405912  0.5631066  )
        43        Li     tau(  43) = (  0.5301176  0.1202460  0.5268213  )
        44        Li     tau(  44) = (  0.8245588  0.2984256  0.4921593  )
        45        Li     tau(  45) = (  0.6160602  0.4645771  0.4636874  )
        46        Li     tau(  46) = (  0.9110205  0.6447074  0.4293496  )
        47        Li     tau(  47) = (  0.6759947  0.7038020  0.5136004  )
        48        Li     tau(  48) = (  0.7616463  0.0469403  0.4545699  )
        49        Li     tau(  49) = (  0.5562415  0.2257783  0.4191962  )
        50        Li     tau(  50) = (  0.8430267  0.3729600  0.3773562  )
        51        Li     tau(  51) = (  0.7021286  0.8093068  0.4052304  )
        52        Li     tau(  52) = (  0.5173002  0.0682852  0.5807962  )
        53        Li     tau(  53) = (  0.6624887  0.6493500  0.5706469  )
        54        Li     tau(  54) = (  0.9574854  0.8295877  0.5363145  )
        55        Li     tau(  55) = (  0.8118980  0.2472412  0.5454253  )
        56        Li     tau(  56) = (  0.6034996  0.4139958  0.5191183  )
        57        Li     tau(  57) = (  0.8975627  0.5904337  0.4864264  )
        58        Li     tau(  58) = (  0.9842504  0.9377053  0.4250769  )
        59        Li     tau(  59) = (  0.7489870  0.9957609  0.5078560  )
        60        Li     tau(  60) = (  0.5434314  0.1739217  0.4731939  )
        61        Li     tau(  61) = (  0.8381901  0.3534611  0.4368921  )
        62        Li     tau(  62) = (  0.6280824  0.5129416  0.4089153  )
        63        Li     tau(  63) = (  0.9286995  0.7158257  0.3678112  )
        64        Li     tau(  64) = (  0.6884155  0.7538341  0.4580759  )
        65        Li     tau(  65) = (  0.7746765  0.0996454  0.4028921  )
        66        Li     tau(  66) = (  0.5544853  0.2172517  0.6397450  )
        67        Li     tau(  67) = (  0.8713812  0.4847447  0.5947570  )
        68        Li     tau(  68) = (  0.7305019  0.9211142  0.6226365  )

     number of k points=    25  Marzari-Vanderbilt smearing, width (Ry)=  0.0100
                       cart. coord. in units 2pi/alat
        k(    1) = (   0.0000000   0.0000000   0.0000000), wk =   0.0408163
        k(    2) = (   0.0000000   0.1385918   0.0000000), wk =   0.0816327
        k(    3) = (   0.0000000   0.2771837   0.0000000), wk =   0.0816327
        k(    4) = (   0.0000000   0.4157755   0.0000000), wk =   0.0816327
        k(    5) = (   0.1428571   0.0346480   0.0000000), wk =   0.0816327
        k(    6) = (   0.1428571   0.1732398   0.0000000), wk =   0.0816327
        k(    7) = (   0.1428571   0.3118316   0.0000000), wk =   0.0816327
        k(    8) = (   0.1428571   0.4504235   0.0000000), wk =   0.0816327
        k(    9) = (   0.1428571  -0.3811276   0.0000000), wk =   0.0816327
        k(   10) = (   0.1428571  -0.2425357   0.0000000), wk =   0.0816327
        k(   11) = (   0.1428571  -0.1039439   0.0000000), wk =   0.0816327
        k(   12) = (   0.2857143   0.0692959   0.0000000), wk =   0.0816327
        k(   13) = (   0.2857143   0.2078878   0.0000000), wk =   0.0816327
        k(   14) = (   0.2857143   0.3464796   0.0000000), wk =   0.0816327
        k(   15) = (   0.2857143   0.4850714   0.0000000), wk =   0.0816327
        k(   16) = (   0.2857143  -0.3464796   0.0000000), wk =   0.0816327
        k(   17) = (   0.2857143  -0.2078878   0.0000000), wk =   0.0816327
        k(   18) = (   0.2857143  -0.0692959   0.0000000), wk =   0.0816327
        k(   19) = (   0.4285714   0.1039439   0.0000000), wk =   0.0816327
        k(   20) = (   0.4285714   0.2425357   0.0000000), wk =   0.0816327
        k(   21) = (   0.4285714   0.3811276   0.0000000), wk =   0.0816327
        k(   22) = (   0.4285714   0.5197194   0.0000000), wk =   0.0816327
        k(   23) = (   0.4285714  -0.3118316   0.0000000), wk =   0.0816327
        k(   24) = (   0.4285714  -0.1732398   0.0000000), wk =   0.0816327
        k(   25) = (   0.4285714  -0.0346480   0.0000000), wk =   0.0816327

                       cryst. coord.
        k(    1) = (   0.0000000   0.0000000   0.0000000), wk =   0.0408163
        k(    2) = (   0.0000000   0.1428571   0.0000000), wk =   0.0816327
        k(    3) = (   0.0000000   0.2857143   0.0000000), wk =   0.0816327
        k(    4) = (   0.0000000   0.4285714   0.0000000), wk =   0.0816327
        k(    5) = (   0.1428571   0.0000000   0.0000000), wk =   0.0816327
        k(    6) = (   0.1428571   0.1428571   0.0000000), wk =   0.0816327
        k(    7) = (   0.1428571   0.2857143   0.0000000), wk =   0.0816327
        k(    8) = (   0.1428571   0.4285714   0.0000000), wk =   0.0816327
        k(    9) = (   0.1428571  -0.4285714   0.0000000), wk =   0.0816327
        k(   10) = (   0.1428571  -0.2857143   0.0000000), wk =   0.0816327
        k(   11) = (   0.1428571  -0.1428571   0.0000000), wk =   0.0816327
        k(   12) = (   0.2857143   0.0000000   0.0000000), wk =   0.0816327
        k(   13) = (   0.2857143   0.1428571   0.0000000), wk =   0.0816327
        k(   14) = (   0.2857143   0.2857143   0.0000000), wk =   0.0816327
        k(   15) = (   0.2857143   0.4285714   0.0000000), wk =   0.0816327
        k(   16) = (   0.2857143  -0.4285714   0.0000000), wk =   0.0816327
        k(   17) = (   0.2857143  -0.2857143   0.0000000), wk =   0.0816327
        k(   18) = (   0.2857143  -0.1428571   0.0000000), wk =   0.0816327
        k(   19) = (   0.4285714   0.0000000   0.0000000), wk =   0.0816327
        k(   20) = (   0.4285714   0.1428571   0.0000000), wk =   0.0816327
        k(   21) = (   0.4285714   0.2857143   0.0000000), wk =   0.0816327
        k(   22) = (   0.4285714   0.4285714   0.0000000), wk =   0.0816327
        k(   23) = (   0.4285714  -0.4285714   0.0000000), wk =   0.0816327
        k(   24) = (   0.4285714  -0.2857143   0.0000000), wk =   0.0816327
        k(   25) = (   0.4285714  -0.1428571   0.0000000), wk =   0.0816327

     Dense  grid: 13455463 G-vectors     FFT dimensions: ( 180, 180, 960)

     Smooth grid:  3404289 G-vectors     FFT dimensions: ( 108, 120, 600)

     Dynamical RAM for                 wfc:       3.88 MB

     Dynamical RAM for     wfc (w. buffer):      54.32 MB

     Dynamical RAM for           str. fact:       0.80 MB

     Dynamical RAM for           local pot:       0.00 MB

     Dynamical RAM for          nlocal pot:      13.80 MB

     Dynamical RAM for                qrad:       0.65 MB

     Dynamical RAM for          rho,v,vnew:       5.37 MB

     Dynamical RAM for               rhoin:       1.79 MB

     Dynamical RAM for            rho*nmix:      12.84 MB

     Dynamical RAM for           G-vectors:       3.11 MB

     Dynamical RAM for          h,s,v(r/c):       4.29 MB

     Dynamical RAM for          <psi|beta>:       1.27 MB

     Dynamical RAM for                 psi:      15.52 MB

     Dynamical RAM for                hpsi:      15.52 MB

     Dynamical RAM for                spsi:      15.52 MB

     Dynamical RAM for      wfcinit/wfcrot:       8.30 MB

     Dynamical RAM for           addusdens:      44.93 MB

     Dynamical RAM for          addusforce:      98.75 MB

     Estimated static dynamical RAM per process >      86.39 MB

     Estimated max dynamical RAM per process >     205.31 MB

     Estimated total dynamical RAM >      95.78 GB

     Initial potential from superposition of free atoms

     starting charge     203.6866, renormalised to     204.0000

     negative rho (up, down):  5.540E-03 0.000E+00
     Starting wfcs are random
     Checking if some PAW data can be deallocated... 

     total cpu time spent up to now is       48.3 secs

     Self-consistent Calculation

     iteration #  1     ecut=    80.00 Ry     beta= 0.20
     Davidson diagonalization with overlap

---- Real-time Memory Report at c_bands before calling an iterative solver
          1218 MiB given to the printing process from OS
             0 MiB allocation reported by mallinfo(arena+hblkhd)
        211995 MiB available memory on the node where the printing process lives
------------------
     c_bands:  2 eigenvalues not converged
     c_bands:  1 eigenvalues not converged
     c_bands:  2 eigenvalues not converged
     ethr =  1.00E-12,  avg # of iterations =132.2

     negative rho (up, down):  4.094E-03 0.000E+00

     total cpu time spent up to now is      733.3 secs

     total energy              =   -1022.17175164 Ry
     estimated scf accuracy    <       0.21773181 Ry

     total charge of GC-SCF    =       0.22792472 e
     the Fermi energy          =      -4.28647646 eV
                        (error :       0.61752354 eV)
     electrostatic embedding   =       0.00000000 Ry
     cavitation energy         =       0.04795595 Ry
     electrolyte free energy   =       0.01515579 Ry
     correction to one-el term =      -0.00000000 Ry

     iteration #  2     ecut=    80.00 Ry     beta= 0.20
     Davidson diagonalization with overlap

---- Real-time Memory Report at c_bands before calling an iterative solver
          1218 MiB given to the printing process from OS
             0 MiB allocation reported by mallinfo(arena+hblkhd)
        205948 MiB available memory on the node where the printing process lives
------------------
     ethr =  1.00E-05,  avg # of iterations = 14.3

     negative rho (up, down):  3.173E-03 0.000E+00

     add environment contribution to local potential

     total cpu time spent up to now is      824.3 secs

     total energy              =   -1022.73785294 Ry
     estimated scf accuracy    <       0.09255179 Ry

     total charge of GC-SCF    =       0.35946052 e
     the Fermi energy          =      -3.57152028 eV
                        (error :       1.33247972 eV)
     electrostatic embedding   =       0.00207419 Ry
     cavitation energy         =       0.04795595 Ry
     electrolyte free energy   =       0.01515579 Ry
     correction to one-el term =      -0.00000000 Ry

     iteration #  3     ecut=    80.00 Ry     beta= 0.20
     Davidson diagonalization with overlap

---- Real-time Memory Report at c_bands before calling an iterative solver
          1218 MiB given to the printing process from OS
             0 MiB allocation reported by mallinfo(arena+hblkhd)
        205611 MiB available memory on the node where the printing process lives
------------------
     ethr =  1.00E-05,  avg # of iterations = 32.2

     negative rho (up, down):  2.478E-03 0.000E+00

     add environment contribution to local potential

     total cpu time spent up to now is      970.4 secs

     total energy              =   -1022.70076044 Ry
     estimated scf accuracy    <       0.04437126 Ry

     total charge of GC-SCF    =       0.67709495 e
     the Fermi energy          =      -3.10039610 eV
                        (error :       1.80360390 eV)
     electrostatic embedding   =      -0.04480787 Ry
     cavitation energy         =       0.04795595 Ry
     electrolyte free energy   =      -0.00875924 Ry
     correction to one-el term =     -10.36535540 Ry

     iteration #  4     ecut=    80.00 Ry     beta= 0.20
     Davidson diagonalization with overlap

---- Real-time Memory Report at c_bands before calling an iterative solver
          1218 MiB given to the printing process from OS
             0 MiB allocation reported by mallinfo(arena+hblkhd)
        205412 MiB available memory on the node where the printing process lives
------------------
     ethr =  1.00E-05,  avg # of iterations = 15.8

     negative rho (up, down):  1.953E-03 0.000E+00

     add environment contribution to local potential

     total cpu time spent up to now is     1072.6 secs

     total energy              =   -1022.62806576 Ry
     estimated scf accuracy    <       0.04381175 Ry

     total charge of GC-SCF    =       1.07553558 e
     the Fermi energy          =      -3.59900676 eV
                        (error :       1.30499324 eV)
     electrostatic embedding   =      -0.05246293 Ry
     cavitation energy         =       0.04795595 Ry
     electrolyte free energy   =      -0.01231319 Ry
     correction to one-el term =     -17.49708511 Ry

     iteration #  5     ecut=    80.00 Ry     beta= 0.20
     Davidson diagonalization with overlap

---- Real-time Memory Report at c_bands before calling an iterative solver
          1218 MiB given to the printing process from OS
             0 MiB allocation reported by mallinfo(arena+hblkhd)
        205536 MiB available memory on the node where the printing process lives
------------------
     ethr =  1.00E-05,  avg # of iterations = 20.4

     negative rho (up, down):  1.570E-03 0.000E+00

     add environment contribution to local potential

     total cpu time spent up to now is     1190.9 secs

     total energy              =   -1022.42296512 Ry
     estimated scf accuracy    <       0.01990055 Ry

     total charge of GC-SCF    =       2.42659198 e
     the Fermi energy          =      -3.31895259 eV
                        (error :       1.58504741 eV)
     electrostatic embedding   =      -0.09764068 Ry
     cavitation energy         =       0.04795595 Ry
     electrolyte free energy   =      -0.01064306 Ry
     correction to one-el term =     -28.91033459 Ry

     iteration #  6     ecut=    80.00 Ry     beta= 0.20
     Davidson diagonalization with overlap

---- Real-time Memory Report at c_bands before calling an iterative solver
          1218 MiB given to the printing process from OS
             0 MiB allocation reported by mallinfo(arena+hblkhd)
        205117 MiB available memory on the node where the printing process lives
------------------
     ethr =  9.87E-06,  avg # of iterations = 23.4

     negative rho (up, down):  1.076E-02 0.000E+00

     add environment contribution to local potential

     total cpu time spent up to now is     1327.4 secs

     total energy              =   -1022.92632312 Ry
     estimated scf accuracy    <       0.01414074 Ry

     total charge of GC-SCF    =       3.15618225 e
     the Fermi energy          =      -2.92703718 eV
                        (error :       1.97696282 eV)
     electrostatic embedding   =      -0.48602469 Ry
     cavitation energy         =       0.04795595 Ry
     electrolyte free energy   =      -0.01095757 Ry
     correction to one-el term =     -65.90556830 Ry

     iteration #  7     ecut=    80.00 Ry     beta= 0.20
     Davidson diagonalization with overlap

---- Real-time Memory Report at c_bands before calling an iterative solver
          1218 MiB given to the printing process from OS
             0 MiB allocation reported by mallinfo(arena+hblkhd)
        205022 MiB available memory on the node where the printing process lives
------------------
     ethr =  7.04E-06,  avg # of iterations = 18.0

     negative rho (up, down):  1.140E-02 0.000E+00

     add environment contribution to local potential

     total cpu time spent up to now is     1447.5 secs

     total energy              =   -1023.13934703 Ry
     estimated scf accuracy    <       0.00533721 Ry

     total charge of GC-SCF    =       3.31179004 e
     the Fermi energy          =      -3.31802416 eV
                        (error :       1.58597584 eV)
     electrostatic embedding   =      -0.79385572 Ry
     cavitation energy         =       0.04795595 Ry
     electrolyte free energy   =      -0.01839155 Ry
     correction to one-el term =     -86.58947881 Ry

     iteration #  8     ecut=    80.00 Ry     beta= 0.20
     Davidson diagonalization with overlap

---- Real-time Memory Report at c_bands before calling an iterative solver
          1218 MiB given to the printing process from OS
             0 MiB allocation reported by mallinfo(arena+hblkhd)
        205176 MiB available memory on the node where the printing process lives
------------------
     ethr =  2.66E-06,  avg # of iterations = 16.2

     negative rho (up, down):  1.122E-02 0.000E+00

     add environment contribution to local potential

     total cpu time spent up to now is     1540.0 secs

     total energy              =   -1023.06876790 Ry
     estimated scf accuracy    <       0.00631362 Ry

     total charge of GC-SCF    =       3.63633035 e
     the Fermi energy          =      -3.42790173 eV
                        (error :       1.47609827 eV)
     electrostatic embedding   =      -0.86743615 Ry
     cavitation energy         =       0.04795595 Ry
     electrolyte free energy   =      -0.02059698 Ry
     correction to one-el term =     -91.15923205 Ry

     iteration #  9     ecut=    80.00 Ry     beta= 0.20
     Davidson diagonalization with overlap

---- Real-time Memory Report at c_bands before calling an iterative solver
          1218 MiB given to the printing process from OS
             0 MiB allocation reported by mallinfo(arena+hblkhd)
        204876 MiB available memory on the node where the printing process lives
------------------
     ethr =  2.66E-06,  avg # of iterations = 17.5

     negative rho (up, down):  1.764E-01 0.000E+00

     add environment contribution to local potential

     total cpu time spent up to now is     1657.8 secs

     total energy              =   -1022.89570404 Ry
     estimated scf accuracy    <       0.00557586 Ry

     total charge of GC-SCF    =       5.14871473 e
     the Fermi energy          =      -3.33129881 eV
                        (error :       1.57270119 eV)
     electrostatic embedding   =      -1.06034313 Ry
     cavitation energy         =       0.04795595 Ry
     electrolyte free energy   =      -0.02315108 Ry
     correction to one-el term =    -101.76887691 Ry

     iteration # 10     ecut=    80.00 Ry     beta= 0.20
     Davidson diagonalization with overlap

---- Real-time Memory Report at c_bands before calling an iterative solver
          1218 MiB given to the printing process from OS
             0 MiB allocation reported by mallinfo(arena+hblkhd)
        205041 MiB available memory on the node where the printing process lives
------------------
     ethr =  2.66E-06,  avg # of iterations = 37.2

     negative rho (up, down):  7.749E-02 0.000E+00

     add environment contribution to local potential

     total cpu time spent up to now is     1818.5 secs

     total energy              =   -1023.23792082 Ry
     estimated scf accuracy    <       0.00997702 Ry

     total charge of GC-SCF    =       5.21155238 e
     the Fermi energy          =      -3.78066102 eV
                        (error :       1.12333898 eV)
     electrostatic embedding   =      -2.15125648 Ry
     cavitation energy         =       0.04795595 Ry
     electrolyte free energy   =      -0.04813799 Ry
     correction to one-el term =    -146.22639662 Ry

     iteration # 11     ecut=    80.00 Ry     beta= 0.20
     Davidson diagonalization with overlap

---- Real-time Memory Report at c_bands before calling an iterative solver
          1218 MiB given to the printing process from OS
             0 MiB allocation reported by mallinfo(arena+hblkhd)
        204708 MiB available memory on the node where the printing process lives
------------------
     ethr =  2.66E-06,  avg # of iterations = 20.8

     negative rho (up, down):  3.849E-02 0.000E+00

     add environment contribution to local potential

     total cpu time spent up to now is     1939.6 secs

     total energy              =   -1023.17271795 Ry
     estimated scf accuracy    <       0.00878176 Ry

     total charge of GC-SCF    =       5.44544546 e
     the Fermi energy          =      -3.86465503 eV
                        (error :       1.03934497 eV)
     electrostatic embedding   =      -2.21920151 Ry
     cavitation energy         =       0.04795595 Ry
     electrolyte free energy   =      -0.05040045 Ry
     correction to one-el term =    -149.98176128 Ry

     iteration # 12     ecut=    80.00 Ry     beta= 0.20
     Davidson diagonalization with overlap

---- Real-time Memory Report at c_bands before calling an iterative solver
          1218 MiB given to the printing process from OS
             0 MiB allocation reported by mallinfo(arena+hblkhd)
        204771 MiB available memory on the node where the printing process lives
------------------
     ethr =  2.66E-06,  avg # of iterations = 15.5

     negative rho (up, down):  1.124E-02 0.000E+00

     add environment contribution to local potential

     total cpu time spent up to now is     2047.3 secs

     total energy              =   -1023.05276490 Ry
     estimated scf accuracy    <       0.00364130 Ry

     total charge of GC-SCF    =       6.55520066 e
     the Fermi energy          =      -4.08819464 eV
                        (error :       0.81580536 eV)
     electrostatic embedding   =      -2.43828914 Ry
     cavitation energy         =       0.04795595 Ry
     electrolyte free energy   =      -0.05561770 Ry
     correction to one-el term =    -158.16450404 Ry

     iteration # 13     ecut=    80.00 Ry     beta= 0.20
     Davidson diagonalization with overlap

---- Real-time Memory Report at c_bands before calling an iterative solver
          1218 MiB given to the printing process from OS
             0 MiB allocation reported by mallinfo(arena+hblkhd)
        204799 MiB available memory on the node where the printing process lives
------------------
     ethr =  1.84E-06,  avg # of iterations = 28.0

     negative rho (up, down):  4.775E-03 0.000E+00

     add environment contribution to local potential

     total cpu time spent up to now is     2183.1 secs

     total energy              =   -1023.16537809 Ry
     estimated scf accuracy    <       0.00049705 Ry

     total charge of GC-SCF    =       6.42110144 e
     the Fermi energy          =      -4.85995997 eV
                        (error :       0.04404003 eV)
     electrostatic embedding   =      -3.64202868 Ry
     cavitation energy         =       0.04795595 Ry
     electrolyte free energy   =      -0.08185178 Ry
     correction to one-el term =    -195.91993402 Ry

     iteration # 14     ecut=    80.00 Ry     beta= 0.20
     Davidson diagonalization with overlap

---- Real-time Memory Report at c_bands before calling an iterative solver
          1218 MiB given to the printing process from OS
             0 MiB allocation reported by mallinfo(arena+hblkhd)
        204767 MiB available memory on the node where the printing process lives
------------------
     ethr =  2.52E-07,  avg # of iterations = 11.4

     negative rho (up, down):  7.816E-04 0.000E+00

     add environment contribution to local potential

     total cpu time spent up to now is     2274.5 secs

     total energy              =   -1023.16781578 Ry
     estimated scf accuracy    <       0.00042911 Ry

     total charge of GC-SCF    =       6.77121218 e
     the Fermi energy          =      -4.80598117 eV
                        (error :       0.09801883 eV)
     electrostatic embedding   =      -3.48721139 Ry
     cavitation energy         =       0.04795595 Ry
     electrolyte free energy   =      -0.07838713 Ry
     correction to one-el term =    -191.87863228 Ry

     iteration # 15     ecut=    80.00 Ry     beta= 0.20
     Davidson diagonalization with overlap

---- Real-time Memory Report at c_bands before calling an iterative solver
          1218 MiB given to the printing process from OS
             0 MiB allocation reported by mallinfo(arena+hblkhd)
        204697 MiB available memory on the node where the printing process lives
------------------
     c_bands:  1 eigenvalues not converged
     ethr =  2.18E-07,  avg # of iterations = 31.2

     negative rho (up, down):  5.395E-03 0.000E+00

     add environment contribution to local potential

     total cpu time spent up to now is     2431.5 secs

     total energy              =   -1023.15771639 Ry
     estimated scf accuracy    <       0.00020297 Ry

     total charge of GC-SCF    =       6.70998096 e
     the Fermi energy          =      -4.97330915 eV
                        (error :       0.06930915 eV)
     electrostatic embedding   =      -3.91541084 Ry
     cavitation energy         =       0.04795595 Ry
     electrolyte free energy   =      -0.08786229 Ry
     correction to one-el term =    -203.41168428 Ry

     iteration # 16     ecut=    80.00 Ry     beta= 0.20
     Davidson diagonalization with overlap

---- Real-time Memory Report at c_bands before calling an iterative solver
          1218 MiB given to the printing process from OS
             0 MiB allocation reported by mallinfo(arena+hblkhd)
        204594 MiB available memory on the node where the printing process lives
------------------
     ethr =  1.03E-07,  avg # of iterations = 14.8

     negative rho (up, down):  6.819E-03 0.000E+00

     add environment contribution to local potential

     total cpu time spent up to now is     2540.0 secs

     total energy              =   -1023.16089480 Ry
     estimated scf accuracy    <       0.00010573 Ry

     total charge of GC-SCF    =       6.68495682 e
     the Fermi energy          =      -4.92704046 eV
                        (error :       0.02304046 eV)
     electrostatic embedding   =      -3.82411744 Ry
     cavitation energy         =       0.04795595 Ry
     electrolyte free energy   =      -0.08603347 Ry
     correction to one-el term =    -200.59249670 Ry

     iteration # 17     ecut=    80.00 Ry     beta= 0.20
     Davidson diagonalization with overlap

---- Real-time Memory Report at c_bands before calling an iterative solver
          1218 MiB given to the printing process from OS
             0 MiB allocation reported by mallinfo(arena+hblkhd)
        204637 MiB available memory on the node where the printing process lives
------------------
     ethr =  5.36E-08,  avg # of iterations = 10.0

     negative rho (up, down):  3.973E-03 0.000E+00

     add environment contribution to local potential

     total cpu time spent up to now is     2621.1 secs

     total energy              =   -1023.16097049 Ry
     estimated scf accuracy    <       0.00007384 Ry

     total charge of GC-SCF    =       6.62238634 e
     the Fermi energy          =      -4.93310570 eV
                        (error :       0.02910570 eV)
     electrostatic embedding   =      -3.78547434 Ry
     cavitation energy         =       0.04795595 Ry
     electrolyte free energy   =      -0.08531841 Ry
     correction to one-el term =    -199.57319753 Ry

     iteration # 18     ecut=    80.00 Ry     beta= 0.20
     Davidson diagonalization with overlap

---- Real-time Memory Report at c_bands before calling an iterative solver
          1218 MiB given to the printing process from OS
             0 MiB allocation reported by mallinfo(arena+hblkhd)
        204604 MiB available memory on the node where the printing process lives
------------------
     ethr =  3.74E-08,  avg # of iterations = 12.3

     negative rho (up, down):  2.115E-03 0.000E+00

     add environment contribution to local potential

     total cpu time spent up to now is     2725.3 secs

     total energy              =   -1023.16178847 Ry
     estimated scf accuracy    <       0.00004283 Ry

     total charge of GC-SCF    =       6.63542803 e
     the Fermi energy          =      -4.90771424 eV
                        (error :       0.00371424 eV)
     electrostatic embedding   =      -3.71121699 Ry
     cavitation energy         =       0.04795595 Ry
     electrolyte free energy   =      -0.08362030 Ry
     correction to one-el term =    -197.67801927 Ry

     iteration # 19     ecut=    80.00 Ry     beta= 0.20
     Davidson diagonalization with overlap

---- Real-time Memory Report at c_bands before calling an iterative solver
          1218 MiB given to the printing process from OS
             0 MiB allocation reported by mallinfo(arena+hblkhd)
        204782 MiB available memory on the node where the printing process lives
------------------
     ethr =  2.17E-08,  avg # of iterations = 13.4

     negative rho (up, down):  3.467E-03 0.000E+00

     add environment contribution to local potential

     total cpu time spent up to now is     2814.4 secs

     total energy              =   -1023.16173289 Ry
     estimated scf accuracy    <       0.00003287 Ry

     total charge of GC-SCF    =       6.65009444 e
     the Fermi energy          =      -4.91351045 eV
                        (error :       0.00951045 eV)
     electrostatic embedding   =      -3.72614606 Ry
     cavitation energy         =       0.04795595 Ry
     electrolyte free energy   =      -0.08396698 Ry
     correction to one-el term =    -198.03901739 Ry

     iteration # 20     ecut=    80.00 Ry     beta= 0.20
     Davidson diagonalization with overlap

---- Real-time Memory Report at c_bands before calling an iterative solver
          1218 MiB given to the printing process from OS
             0 MiB allocation reported by mallinfo(arena+hblkhd)
        204599 MiB available memory on the node where the printing process lives
------------------
     ethr =  1.67E-08,  avg # of iterations = 13.6

     negative rho (up, down):  2.639E-03 0.000E+00

     add environment contribution to local potential

     total cpu time spent up to now is     2913.0 secs

     total energy              =   -1023.16159262 Ry
     estimated scf accuracy    <       0.00001454 Ry

     total charge of GC-SCF    =       6.62305469 e
     the Fermi energy          =      -4.91576175 eV
                        (error :       0.01176175 eV)
     electrostatic embedding   =      -3.74183016 Ry
     cavitation energy         =       0.04795595 Ry
     electrolyte free energy   =      -0.08434901 Ry
     correction to one-el term =    -198.39266636 Ry

     iteration # 21     ecut=    80.00 Ry     beta= 0.20
     Davidson diagonalization with overlap

---- Real-time Memory Report at c_bands before calling an iterative solver
          1218 MiB given to the printing process from OS
             0 MiB allocation reported by mallinfo(arena+hblkhd)
        204719 MiB available memory on the node where the printing process lives
------------------
     ethr =  7.37E-09,  avg # of iterations = 18.6

     negative rho (up, down):  2.132E-03 0.000E+00

     add environment contribution to local potential

     total cpu time spent up to now is     3038.6 secs

     total energy              =   -1023.16188860 Ry
     estimated scf accuracy    <       0.00000667 Ry

     total charge of GC-SCF    =       6.59002625 e
     the Fermi energy          =      -4.90611433 eV
                        (error :       0.00211433 eV)
     electrostatic embedding   =      -3.71392516 Ry
     cavitation energy         =       0.04795595 Ry
     electrolyte free energy   =      -0.08364135 Ry
     correction to one-el term =    -197.74342893 Ry

     iteration # 22     ecut=    80.00 Ry     beta= 0.20
     Davidson diagonalization with overlap

---- Real-time Memory Report at c_bands before calling an iterative solver
          1218 MiB given to the printing process from OS
             0 MiB allocation reported by mallinfo(arena+hblkhd)
        204818 MiB available memory on the node where the printing process lives
------------------
     c_bands:  1 eigenvalues not converged
     ethr =  3.38E-09,  avg # of iterations = 21.8

     negative rho (up, down):  9.706E-04 0.000E+00

     add environment contribution to local potential

     total cpu time spent up to now is     3171.8 secs

     total energy              =   -1023.16215815 Ry
     estimated scf accuracy    <       0.00000467 Ry

     total charge of GC-SCF    =       6.58762424 e
     the Fermi energy          =      -4.89351622 eV
                        (error :       0.01048378 eV)
     electrostatic embedding   =      -3.67564955 Ry
     cavitation energy         =       0.04795595 Ry
     electrolyte free energy   =      -0.08275963 Ry
     correction to one-el term =    -196.75642885 Ry

     iteration # 23     ecut=    80.00 Ry     beta= 0.20
     Davidson diagonalization with overlap

---- Real-time Memory Report at c_bands before calling an iterative solver
          1218 MiB given to the printing process from OS
             0 MiB allocation reported by mallinfo(arena+hblkhd)
        204611 MiB available memory on the node where the printing process lives
------------------
     ethr =  2.36E-09,  avg # of iterations = 15.0

     negative rho (up, down):  8.346E-04 0.000E+00

     add environment contribution to local potential

     total cpu time spent up to now is     3279.5 secs

     total energy              =   -1023.16216520 Ry
     estimated scf accuracy    <       0.00000298 Ry

     total charge of GC-SCF    =       6.60866848 e
     the Fermi energy          =      -4.89257447 eV
                        (error :       0.01142553 eV)
     electrostatic embedding   =      -3.67212148 Ry
     cavitation energy         =       0.04795595 Ry
     electrolyte free energy   =      -0.08268997 Ry
     correction to one-el term =    -196.63266008 Ry

     iteration # 24     ecut=    80.00 Ry     beta= 0.20
     Davidson diagonalization with overlap

---- Real-time Memory Report at c_bands before calling an iterative solver
          1218 MiB given to the printing process from OS
             0 MiB allocation reported by mallinfo(arena+hblkhd)
        204602 MiB available memory on the node where the printing process lives
------------------
     ethr =  1.51E-09,  avg # of iterations = 19.9

     negative rho (up, down):  7.099E-04 0.000E+00

     add environment contribution to local potential

     total cpu time spent up to now is     3391.3 secs

     total energy              =   -1023.16200915 Ry
     estimated scf accuracy    <       0.00000154 Ry

     total charge of GC-SCF    =       6.61486695 e
     the Fermi energy          =      -4.90078937 eV
                        (error :       0.00321063 eV)
     electrostatic embedding   =      -3.69611604 Ry
     cavitation energy         =       0.04795595 Ry
     electrolyte free energy   =      -0.08324716 Ry
     correction to one-el term =    -197.23087741 Ry

     iteration # 25     ecut=    80.00 Ry     beta= 0.20
     Davidson diagonalization with overlap

---- Real-time Memory Report at c_bands before calling an iterative solver
          1218 MiB given to the printing process from OS
             0 MiB allocation reported by mallinfo(arena+hblkhd)
        204716 MiB available memory on the node where the printing process lives
------------------
     ethr =  7.82E-10,  avg # of iterations = 15.3

     negative rho (up, down):  6.919E-04 0.000E+00

     add environment contribution to local potential

     total cpu time spent up to now is     3500.8 secs

     total energy              =   -1023.16199072 Ry
     estimated scf accuracy    <       0.00000082 Ry

     total charge of GC-SCF    =       6.61355871 e
     the Fermi energy          =      -4.90136547 eV
                        (error :       0.00263453 eV)
     electrostatic embedding   =      -3.70333432 Ry
     cavitation energy         =       0.04795595 Ry
     electrolyte free energy   =      -0.08341103 Ry
     correction to one-el term =    -197.40448343 Ry

     iteration # 26     ecut=    80.00 Ry     beta= 0.20
     Davidson diagonalization with overlap

---- Real-time Memory Report at c_bands before calling an iterative solver
          1218 MiB given to the printing process from OS
             0 MiB allocation reported by mallinfo(arena+hblkhd)
        204723 MiB available memory on the node where the printing process lives
------------------
     ethr =  4.14E-10,  avg # of iterations = 11.4

     negative rho (up, down):  7.051E-04 0.000E+00

     add environment contribution to local potential

     total cpu time spent up to now is     3582.5 secs

     total energy              =   -1023.16202413 Ry
     estimated scf accuracy    <       0.00000060 Ry

     total charge of GC-SCF    =       6.60726685 e
     the Fermi energy          =      -4.90033465 eV
                        (error :       0.00366535 eV)
     electrostatic embedding   =      -3.70200878 Ry
     cavitation energy         =       0.04795595 Ry
     electrolyte free energy   =      -0.08337664 Ry
     correction to one-el term =    -197.36995712 Ry

     iteration # 27     ecut=    80.00 Ry     beta= 0.20
     Davidson diagonalization with overlap

---- Real-time Memory Report at c_bands before calling an iterative solver
          1218 MiB given to the printing process from OS
             0 MiB allocation reported by mallinfo(arena+hblkhd)
        204520 MiB available memory on the node where the printing process lives
------------------
     ethr =  3.06E-10,  avg # of iterations = 13.4

     negative rho (up, down):  7.806E-04 0.000E+00

     add environment contribution to local potential

     total cpu time spent up to now is     3686.9 secs

     total energy              =   -1023.16203105 Ry
     estimated scf accuracy    <       0.00000058 Ry

     total charge of GC-SCF    =       6.61137167 e
     the Fermi energy          =      -4.90011951 eV
                        (error :       0.00388049 eV)
     electrostatic embedding   =      -3.69453781 Ry
     cavitation energy         =       0.04795595 Ry
     electrolyte free energy   =      -0.08321056 Ry
     correction to one-el term =    -197.18935164 Ry

     iteration # 28     ecut=    80.00 Ry     beta= 0.20
     Davidson diagonalization with overlap

---- Real-time Memory Report at c_bands before calling an iterative solver
          1218 MiB given to the printing process from OS
             0 MiB allocation reported by mallinfo(arena+hblkhd)
        204582 MiB available memory on the node where the printing process lives
------------------
     ethr =  2.96E-10,  avg # of iterations = 13.6

     negative rho (up, down):  7.609E-04 0.000E+00

     add environment contribution to local potential

     total cpu time spent up to now is     3785.7 secs

     total energy              =   -1023.16200754 Ry
     estimated scf accuracy    <       0.00000021 Ry

     total charge of GC-SCF    =       6.61104051 e
     the Fermi energy          =      -4.90059292 eV
                        (error :       0.00340708 eV)
     electrostatic embedding   =      -3.69912394 Ry
     cavitation energy         =       0.04795595 Ry
     electrolyte free energy   =      -0.08331892 Ry
     correction to one-el term =    -197.30475182 Ry

     iteration # 29     ecut=    80.00 Ry     beta= 0.20
     Davidson diagonalization with overlap

---- Real-time Memory Report at c_bands before calling an iterative solver
          1218 MiB given to the printing process from OS
             0 MiB allocation reported by mallinfo(arena+hblkhd)
        204609 MiB available memory on the node where the printing process lives
------------------
     ethr =  1.06E-10,  avg # of iterations = 16.3

     negative rho (up, down):  7.608E-04 0.000E+00

     add environment contribution to local potential

     total cpu time spent up to now is     3892.2 secs

     total energy              =   -1023.16199172 Ry
     estimated scf accuracy    <       0.00000014 Ry

     total charge of GC-SCF    =       6.61454786 e
     the Fermi energy          =      -4.90107031 eV
                        (error :       0.00292969 eV)
     electrostatic embedding   =      -3.69895788 Ry
     cavitation energy         =       0.04795595 Ry
     electrolyte free energy   =      -0.08331215 Ry
     correction to one-el term =    -197.30941538 Ry

     iteration # 30     ecut=    80.00 Ry     beta= 0.20
     Davidson diagonalization with overlap

---- Real-time Memory Report at c_bands before calling an iterative solver
          1218 MiB given to the printing process from OS
             0 MiB allocation reported by mallinfo(arena+hblkhd)
        204642 MiB available memory on the node where the printing process lives
------------------
     c_bands:  1 eigenvalues not converged
     ethr =  6.93E-11,  avg # of iterations = 20.4

     negative rho (up, down):  7.780E-04 0.000E+00

     add environment contribution to local potential

     total cpu time spent up to now is     4021.2 secs

     total energy              =   -1023.16194730 Ry
     estimated scf accuracy    <       0.00000006 Ry

     total charge of GC-SCF    =       6.61848653 e
     the Fermi energy          =      -4.90287360 eV
                        (error :       0.00112640 eV)
     electrostatic embedding   =      -3.70337158 Ry
     cavitation energy         =       0.04795595 Ry
     electrolyte free energy   =      -0.08340829 Ry
     correction to one-el term =    -197.43248055 Ry

     iteration # 31     ecut=    80.00 Ry     beta= 0.20
     Davidson diagonalization with overlap

---- Real-time Memory Report at c_bands before calling an iterative solver
          1218 MiB given to the printing process from OS
             0 MiB allocation reported by mallinfo(arena+hblkhd)
        204743 MiB available memory on the node where the printing process lives
------------------
     c_bands:  1 eigenvalues not converged
     ethr =  3.11E-11,  avg # of iterations = 30.0

     negative rho (up, down):  7.793E-04 0.000E+00

     add environment contribution to local potential

     total cpu time spent up to now is     4170.4 secs

     total energy              =   -1023.16190678 Ry
     estimated scf accuracy    <       0.00000004 Ry

     total charge of GC-SCF    =       6.61972807 e
     the Fermi energy          =      -4.90452124 eV
                        (error :       0.00052124 eV)
     electrostatic embedding   =      -3.70792230 Ry
     cavitation energy         =       0.04795595 Ry
     electrolyte free energy   =      -0.08351372 Ry
     correction to one-el term =    -197.55005806 Ry

     iteration # 32     ecut=    80.00 Ry     beta= 0.20
     Davidson diagonalization with overlap

---- Real-time Memory Report at c_bands before calling an iterative solver
          1218 MiB given to the printing process from OS
             0 MiB allocation reported by mallinfo(arena+hblkhd)
        204636 MiB available memory on the node where the printing process lives
------------------
     ethr =  2.03E-11,  avg # of iterations = 15.4

     negative rho (up, down):  7.724E-04 0.000E+00

     add environment contribution to local potential

     total cpu time spent up to now is     4278.5 secs

     total energy              =   -1023.16189428 Ry
     estimated scf accuracy    <       0.00000002 Ry

     total charge of GC-SCF    =       6.61820395 e
     the Fermi energy          =      -4.90507123 eV
                        (error :       0.00107123 eV)
     electrostatic embedding   =      -3.70926872 Ry
     cavitation energy         =       0.04795595 Ry
     electrolyte free energy   =      -0.08354650 Ry
     correction to one-el term =    -197.58285632 Ry

     iteration # 33     ecut=    80.00 Ry     beta= 0.20
     Davidson diagonalization with overlap

---- Real-time Memory Report at c_bands before calling an iterative solver
          1218 MiB given to the printing process from OS
             0 MiB allocation reported by mallinfo(arena+hblkhd)
        204684 MiB available memory on the node where the printing process lives
------------------
     ethr =  1.25E-11,  avg # of iterations = 10.7

     negative rho (up, down):  7.778E-04 0.000E+00

     add environment contribution to local potential

     total cpu time spent up to now is     4370.0 secs

     total energy              =   -1023.16190851 Ry
     estimated scf accuracy    <       0.00000001 Ry

     total charge of GC-SCF    =       6.61682033 e
     the Fermi energy          =      -4.90461478 eV
                        (error :       0.00061478 eV)
     electrostatic embedding   =      -3.70742903 Ry
     cavitation energy         =       0.04795595 Ry
     electrolyte free energy   =      -0.08350538 Ry
     correction to one-el term =    -197.53448519 Ry

     iteration # 34     ecut=    80.00 Ry     beta= 0.20
     Davidson diagonalization with overlap

---- Real-time Memory Report at c_bands before calling an iterative solver
          1218 MiB given to the printing process from OS
             0 MiB allocation reported by mallinfo(arena+hblkhd)
        204551 MiB available memory on the node where the printing process lives
------------------
     ethr =  6.28E-12,  avg # of iterations = 20.0

     negative rho (up, down):  7.873E-04 0.000E+00

     add environment contribution to local potential

     total cpu time spent up to now is     4491.6 secs

     total energy              =   -1023.16192348 Ry
     estimated scf accuracy    <          8.7E-09 Ry

     total charge of GC-SCF    =       6.61641556 e
     the Fermi energy          =      -4.90400298 eV
                        (error :       0.00000298 eV)
     electrostatic embedding   =      -3.70578766 Ry
     cavitation energy         =       0.04795595 Ry
     electrolyte free energy   =      -0.08346806 Ry
     correction to one-el term =    -197.49148834 Ry

     iteration # 35     ecut=    80.00 Ry     beta= 0.20
     Davidson diagonalization with overlap

---- Real-time Memory Report at c_bands before calling an iterative solver
          1218 MiB given to the printing process from OS
             0 MiB allocation reported by mallinfo(arena+hblkhd)
        204585 MiB available memory on the node where the printing process lives
------------------
     ethr =  4.43E-12,  avg # of iterations = 12.8

     negative rho (up, down):  7.881E-04 0.000E+00

     add environment contribution to local potential

     total cpu time spent up to now is     4587.1 secs

     total energy              =   -1023.16193049 Ry
     estimated scf accuracy    <          5.1E-09 Ry

     total charge of GC-SCF    =       6.61714817 e
     the Fermi energy          =      -4.90370411 eV
                        (error :       0.00029589 eV)
     electrostatic embedding   =      -3.70527745 Ry
     cavitation energy         =       0.04795595 Ry
     electrolyte free energy   =      -0.08345680 Ry
     correction to one-el term =    -197.47708459 Ry

     iteration # 36     ecut=    80.00 Ry     beta= 0.20
     Davidson diagonalization with overlap

---- Real-time Memory Report at c_bands before calling an iterative solver
          1218 MiB given to the printing process from OS
             0 MiB allocation reported by mallinfo(arena+hblkhd)
        204568 MiB available memory on the node where the printing process lives
------------------
     ethr =  2.60E-12,  avg # of iterations = 15.1

     negative rho (up, down):  7.778E-04 0.000E+00

     add environment contribution to local potential

     total cpu time spent up to now is     4691.3 secs

     total energy              =   -1023.16192528 Ry
     estimated scf accuracy    <          2.7E-09 Ry

     total charge of GC-SCF    =       6.61730828 e
     the Fermi energy          =      -4.90390576 eV
                        (error :       0.00009424 eV)
     electrostatic embedding   =      -3.70610900 Ry
     cavitation energy         =       0.04795595 Ry
     electrolyte free energy   =      -0.08347619 Ry
     correction to one-el term =    -197.49772082 Ry

     iteration # 37     ecut=    80.00 Ry     beta= 0.20
     Davidson diagonalization with overlap

---- Real-time Memory Report at c_bands before calling an iterative solver
          1218 MiB given to the printing process from OS
             0 MiB allocation reported by mallinfo(arena+hblkhd)
        204628 MiB available memory on the node where the printing process lives
------------------
     c_bands:  1 eigenvalues not converged
     ethr =  1.35E-12,  avg # of iterations = 22.7

     negative rho (up, down):  7.720E-04 0.000E+00

     add environment contribution to local potential

     total cpu time spent up to now is     4826.3 secs

     total energy              =   -1023.16192452 Ry
     estimated scf accuracy    <          1.4E-09 Ry

     total charge of GC-SCF    =       6.61741344 e
     the Fermi energy          =      -4.90396324 eV
                        (error :       0.00003676 eV)
     electrostatic embedding   =      -3.70628268 Ry
     cavitation energy         =       0.04795595 Ry
     electrolyte free energy   =      -0.08348036 Ry
     correction to one-el term =    -197.50131523 Ry

     iteration # 38     ecut=    80.00 Ry     beta= 0.20
     Davidson diagonalization with overlap

---- Real-time Memory Report at c_bands before calling an iterative solver
          1218 MiB given to the printing process from OS
             0 MiB allocation reported by mallinfo(arena+hblkhd)
        204776 MiB available memory on the node where the printing process lives
------------------
     c_bands:  1 eigenvalues not converged
     ethr =  7.01E-13,  avg # of iterations = 21.5

     negative rho (up, down):  7.711E-04 0.000E+00

     add environment contribution to local potential

     total cpu time spent up to now is     4958.7 secs

     total energy              =   -1023.16192382 Ry
     estimated scf accuracy    <          9.0E-10 Ry

     total charge of GC-SCF    =       6.61754454 e
     the Fermi energy          =      -4.90400163 eV
                        (error :       0.00000163 eV)
     electrostatic embedding   =      -3.70640828 Ry
     cavitation energy         =       0.04795595 Ry
     electrolyte free energy   =      -0.08348317 Ry
     correction to one-el term =    -197.50421239 Ry

     iteration # 39     ecut=    80.00 Ry     beta= 0.20
     Davidson diagonalization with overlap

---- Real-time Memory Report at c_bands before calling an iterative solver
          1218 MiB given to the printing process from OS
             0 MiB allocation reported by mallinfo(arena+hblkhd)
        204859 MiB available memory on the node where the printing process lives
------------------
     c_bands:  1 eigenvalues not converged
     ethr =  4.56E-13,  avg # of iterations = 39.2

     negative rho (up, down):  7.701E-04 0.000E+00

     add environment contribution to local potential

     total cpu time spent up to now is     5134.3 secs

     total energy              =   -1023.16192015 Ry
     estimated scf accuracy    <          4.1E-10 Ry

     total charge of GC-SCF    =       6.61749861 e
     the Fermi energy          =      -4.90415148 eV
                        (error :       0.00015148 eV)
     electrostatic embedding   =      -3.70661162 Ry
     cavitation energy         =       0.04795595 Ry
     electrolyte free energy   =      -0.08348707 Ry
     correction to one-el term =    -197.51079667 Ry

     iteration # 40     ecut=    80.00 Ry     beta= 0.20
     Davidson diagonalization with overlap

---- Real-time Memory Report at c_bands before calling an iterative solver
          1218 MiB given to the printing process from OS
             0 MiB allocation reported by mallinfo(arena+hblkhd)
        204541 MiB available memory on the node where the printing process lives
------------------
     ethr =  2.08E-13,  avg # of iterations = 15.8

     negative rho (up, down):  7.701E-04 0.000E+00

     add environment contribution to local potential

     total cpu time spent up to now is     5233.1 secs

     total energy              =   -1023.16192028 Ry
     estimated scf accuracy    <          2.9E-10 Ry

     total charge of GC-SCF    =       6.61732943 e
     the Fermi energy          =      -4.90414312 eV
                        (error :       0.00014312 eV)
     electrostatic embedding   =      -3.70656391 Ry
     cavitation energy         =       0.04795595 Ry
     electrolyte free energy   =      -0.08348588 Ry
     correction to one-el term =    -197.50973704 Ry

     iteration # 41     ecut=    80.00 Ry     beta= 0.20
     Davidson diagonalization with overlap

---- Real-time Memory Report at c_bands before calling an iterative solver
          1218 MiB given to the printing process from OS
             0 MiB allocation reported by mallinfo(arena+hblkhd)
        204557 MiB available memory on the node where the printing process lives
------------------
     ethr =  1.49E-13,  avg # of iterations = 13.7

     negative rho (up, down):  7.703E-04 0.000E+00

     add environment contribution to local potential

     total cpu time spent up to now is     5338.9 secs

     total energy              =   -1023.16192254 Ry
     estimated scf accuracy    <          1.3E-10 Ry

     total charge of GC-SCF    =       6.61736122 e
     the Fermi energy          =      -4.90405115 eV
                        (error :       0.00005115 eV)
     electrostatic embedding   =      -3.70634826 Ry
     cavitation energy         =       0.04795595 Ry
     electrolyte free energy   =      -0.08348122 Ry
     correction to one-el term =    -197.50377760 Ry

     iteration # 42     ecut=    80.00 Ry     beta= 0.20
     Davidson diagonalization with overlap

---- Real-time Memory Report at c_bands before calling an iterative solver
          1218 MiB given to the printing process from OS
             0 MiB allocation reported by mallinfo(arena+hblkhd)
        204596 MiB available memory on the node where the printing process lives
------------------
     ethr =  1.00E-13,  avg # of iterations = 15.0

     negative rho (up, down):  7.707E-04 0.000E+00

     add environment contribution to local potential

     total cpu time spent up to now is     5436.0 secs

     total energy              =   -1023.16192232 Ry
     estimated scf accuracy    <          7.7E-11 Ry

     total charge of GC-SCF    =       6.61736461 e
     the Fermi energy          =      -4.90406330 eV
                        (error :       0.00006330 eV)
     electrostatic embedding   =      -3.70638057 Ry
     cavitation energy         =       0.04795595 Ry
     electrolyte free energy   =      -0.08348205 Ry
     correction to one-el term =    -197.50454230 Ry

     iteration # 43     ecut=    80.00 Ry     beta= 0.20
     Davidson diagonalization with overlap

---- Real-time Memory Report at c_bands before calling an iterative solver
          1218 MiB given to the printing process from OS
             0 MiB allocation reported by mallinfo(arena+hblkhd)
        204483 MiB available memory on the node where the printing process lives
------------------
     ethr =  1.00E-13,  avg # of iterations = 11.5

     negative rho (up, down):  7.706E-04 0.000E+00

     add environment contribution to local potential

     total cpu time spent up to now is     5514.2 secs

     total energy              =   -1023.16192226 Ry
     estimated scf accuracy    <          5.0E-11 Ry

     total charge of GC-SCF    =       6.61737823 e
     the Fermi energy          =      -4.90406675 eV
                        (error :       0.00006675 eV)
     electrostatic embedding   =      -3.70638186 Ry
     cavitation energy         =       0.04795595 Ry
     electrolyte free energy   =      -0.08348213 Ry
     correction to one-el term =    -197.50458084 Ry

     iteration # 44     ecut=    80.00 Ry     beta= 0.20
     Davidson diagonalization with overlap

---- Real-time Memory Report at c_bands before calling an iterative solver
          1218 MiB given to the printing process from OS
             0 MiB allocation reported by mallinfo(arena+hblkhd)
        204440 MiB available memory on the node where the printing process lives
------------------
     ethr =  1.00E-13,  avg # of iterations =  8.2

     negative rho (up, down):  7.728E-04 0.000E+00

     add environment contribution to local potential

     total cpu time spent up to now is     5579.0 secs

     total energy              =   -1023.16192205 Ry
     estimated scf accuracy    <          3.3E-11 Ry

     total charge of GC-SCF    =       6.61724867 e
     the Fermi energy          =      -4.90407552 eV
                        (error :       0.00007552 eV)
     electrostatic embedding   =      -3.70639805 Ry
     cavitation energy         =       0.04795595 Ry
     electrolyte free energy   =      -0.08348251 Ry
     correction to one-el term =    -197.50505448 Ry

     iteration # 45     ecut=    80.00 Ry     beta= 0.20
     Davidson diagonalization with overlap

---- Real-time Memory Report at c_bands before calling an iterative solver
          1218 MiB given to the printing process from OS
             0 MiB allocation reported by mallinfo(arena+hblkhd)
        204410 MiB available memory on the node where the printing process lives
------------------
     ethr =  1.00E-13,  avg # of iterations = 21.7

     negative rho (up, down):  7.728E-04 0.000E+00

     add environment contribution to local potential

     total cpu time spent up to now is     5705.0 secs

     total energy              =   -1023.16192333 Ry
     estimated scf accuracy    <          9.1E-12 Ry

     total charge of GC-SCF    =       6.61721599 e
     the Fermi energy          =      -4.90402129 eV
                        (error :       0.00002129 eV)
     electrostatic embedding   =      -3.70624612 Ry
     cavitation energy         =       0.04795595 Ry
     electrolyte free energy   =      -0.08347903 Ry
     correction to one-el term =    -197.50119593 Ry

     iteration # 46     ecut=    80.00 Ry     beta= 0.20
     Davidson diagonalization with overlap

---- Real-time Memory Report at c_bands before calling an iterative solver
          1218 MiB given to the printing process from OS
             0 MiB allocation reported by mallinfo(arena+hblkhd)
        204496 MiB available memory on the node where the printing process lives
------------------
     c_bands:  1 eigenvalues not converged
     ethr =  1.00E-13,  avg # of iterations = 19.7

     negative rho (up, down):  7.715E-04 0.000E+00

     add environment contribution to local potential

     total cpu time spent up to now is     5813.3 secs

     total energy              =   -1023.16192366 Ry
     estimated scf accuracy    <          6.4E-12 Ry

     total charge of GC-SCF    =       6.61721207 e
     the Fermi energy          =      -4.90400723 eV
                        (error :       0.00000723 eV)
     electrostatic embedding   =      -3.70620848 Ry
     cavitation energy         =       0.04795595 Ry
     electrolyte free energy   =      -0.08347815 Ry
     correction to one-el term =    -197.50022811 Ry

     iteration # 47     ecut=    80.00 Ry     beta= 0.20
     Davidson diagonalization with overlap

---- Real-time Memory Report at c_bands before calling an iterative solver
          1218 MiB given to the printing process from OS
             0 MiB allocation reported by mallinfo(arena+hblkhd)
        204438 MiB available memory on the node where the printing process lives
------------------
     ethr =  1.00E-13,  avg # of iterations =  8.3

     negative rho (up, down):  7.712E-04 0.000E+00

     add environment contribution to local potential

     total cpu time spent up to now is     5883.3 secs

     total energy              =   -1023.16192376 Ry
     estimated scf accuracy    <          3.1E-12 Ry

     total charge of GC-SCF    =       6.61721065 e
     the Fermi energy          =      -4.90400292 eV
                        (error :       0.00000292 eV)
     electrostatic embedding   =      -3.70620632 Ry
     cavitation energy         =       0.04795595 Ry
     electrolyte free energy   =      -0.08347806 Ry
     correction to one-el term =    -197.50015953 Ry

     iteration # 48     ecut=    80.00 Ry     beta= 0.20
     Davidson diagonalization with overlap

---- Real-time Memory Report at c_bands before calling an iterative solver
          1218 MiB given to the printing process from OS
             0 MiB allocation reported by mallinfo(arena+hblkhd)
        204440 MiB available memory on the node where the printing process lives
------------------
     ethr =  1.00E-13,  avg # of iterations =  6.8

     negative rho (up, down):  7.713E-04 0.000E+00

     add environment contribution to local potential

     total cpu time spent up to now is     5947.0 secs

     total energy              =   -1023.16192381 Ry
     estimated scf accuracy    <          1.4E-12 Ry

     total charge of GC-SCF    =       6.61721259 e
     the Fermi energy          =      -4.90400056 eV
                        (error :       0.00000056 eV)
     electrostatic embedding   =      -3.70620561 Ry
     cavitation energy         =       0.04795595 Ry
     electrolyte free energy   =      -0.08347802 Ry
     correction to one-el term =    -197.50014055 Ry

     iteration # 49     ecut=    80.00 Ry     beta= 0.20
     Davidson diagonalization with overlap

---- Real-time Memory Report at c_bands before calling an iterative solver
          1218 MiB given to the printing process from OS
             0 MiB allocation reported by mallinfo(arena+hblkhd)
        204396 MiB available memory on the node where the printing process lives
------------------
     ethr =  1.00E-13,  avg # of iterations = 10.6

     negative rho (up, down):  7.714E-04 0.000E+00

     add environment contribution to local potential

     total cpu time spent up to now is     6022.2 secs

     total energy              =   -1023.16192376 Ry
     estimated scf accuracy    <          8.3E-13 Ry

     total charge of GC-SCF    =       6.61721135 e
     the Fermi energy          =      -4.90400232 eV
                        (error :       0.00000232 eV)
     electrostatic embedding   =      -3.70620837 Ry
     cavitation energy         =       0.04795595 Ry
     electrolyte free energy   =      -0.08347808 Ry
     correction to one-el term =    -197.50023628 Ry

     iteration # 50     ecut=    80.00 Ry     beta= 0.20
     Davidson diagonalization with overlap

---- Real-time Memory Report at c_bands before calling an iterative solver
          1218 MiB given to the printing process from OS
             0 MiB allocation reported by mallinfo(arena+hblkhd)
        204371 MiB available memory on the node where the printing process lives
------------------
     ethr =  1.00E-13,  avg # of iterations =  3.6

     negative rho (up, down):  7.715E-04 0.000E+00

     add environment contribution to local potential

     total cpu time spent up to now is     6079.4 secs

     total energy              =   -1023.16192377 Ry
     estimated scf accuracy    <          5.1E-13 Ry

     total charge of GC-SCF    =       6.61720861 e
     the Fermi energy          =      -4.90400192 eV
                        (error :       0.00000192 eV)
     electrostatic embedding   =      -3.70620679 Ry
     cavitation energy         =       0.04795595 Ry
     electrolyte free energy   =      -0.08347804 Ry
     correction to one-el term =    -197.50019638 Ry

     iteration # 51     ecut=    80.00 Ry     beta= 0.20
     Davidson diagonalization with overlap

---- Real-time Memory Report at c_bands before calling an iterative solver
          1218 MiB given to the printing process from OS
             0 MiB allocation reported by mallinfo(arena+hblkhd)
        204390 MiB available memory on the node where the printing process lives
------------------
     ethr =  1.00E-13,  avg # of iterations =  4.8

     negative rho (up, down):  7.715E-04 0.000E+00

     add environment contribution to local potential

     total cpu time spent up to now is     6138.7 secs

     total energy              =   -1023.16192381 Ry
     estimated scf accuracy    <          1.7E-13 Ry

     total charge of GC-SCF    =       6.61720859 e
     the Fermi energy          =      -4.90400064 eV
[...]
     atom   63 type  1   force =    -0.00005818    0.10959727   14.19630570
     atom   64 type  1   force =     0.00031053    0.06623467    5.14558934
     atom   65 type  1   force =    -0.00008765    0.08779827   11.92571791
     atom   66 type  1   force =    -0.00021928   -0.00559709  -14.37967843
     atom   67 type  1   force =    -0.00006132   -0.11435712  -11.74108836
     atom   68 type  1   force =     0.00022649    0.20121024  -13.94200094
     The core correction contribution to forces
     atom    1 type  1   force =     0.00000000    0.00000000    0.00000000
     atom    2 type  1   force =     0.00000000    0.00000000    0.00000000
     atom    3 type  1   force =     0.00000000    0.00000000    0.00000000
     atom    4 type  1   force =     0.00000000    0.00000000    0.00000000
     atom    5 type  1   force =     0.00000000    0.00000000    0.00000000
     atom    6 type  1   force =     0.00000000    0.00000000    0.00000000
     atom    7 type  1   force =     0.00000000    0.00000000    0.00000000
     atom    8 type  1   force =     0.00000000    0.00000000    0.00000000
     atom    9 type  1   force =     0.00000000    0.00000000    0.00000000
     atom   10 type  1   force =     0.00000000    0.00000000    0.00000000
     atom   11 type  1   force =     0.00000000    0.00000000    0.00000000
     atom   12 type  1   force =     0.00000000    0.00000000    0.00000000
     atom   13 type  1   force =     0.00000000    0.00000000    0.00000000
     atom   14 type  1   force =     0.00000000    0.00000000    0.00000000
     atom   15 type  1   force =     0.00000000    0.00000000    0.00000000
     atom   16 type  1   force =     0.00000000    0.00000000    0.00000000
     atom   17 type  1   force =     0.00000000    0.00000000    0.00000000
     atom   18 type  1   force =     0.00000000    0.00000000    0.00000000
     atom   19 type  1   force =     0.00000000    0.00000000    0.00000000
     atom   20 type  1   force =     0.00000000    0.00000000    0.00000000
     atom   21 type  1   force =     0.00000000    0.00000000    0.00000000
     atom   22 type  1   force =     0.00000000    0.00000000    0.00000000
     atom   23 type  1   force =     0.00000000    0.00000000    0.00000000
     atom   24 type  1   force =     0.00000000    0.00000000    0.00000000
     atom   25 type  1   force =     0.00000000    0.00000000    0.00000000
     atom   26 type  1   force =     0.00000000    0.00000000    0.00000000
     atom   27 type  1   force =     0.00000000    0.00000000    0.00000000
     atom   28 type  1   force =     0.00000000    0.00000000    0.00000000
     atom   29 type  1   force =     0.00000000    0.00000000    0.00000000
     atom   30 type  1   force =     0.00000000    0.00000000    0.00000000
     atom   31 type  1   force =     0.00000000    0.00000000    0.00000000
     atom   32 type  1   force =     0.00000000    0.00000000    0.00000000
     atom   33 type  1   force =     0.00000000    0.00000000    0.00000000
     atom   34 type  1   force =     0.00000000    0.00000000    0.00000000
     atom   35 type  1   force =     0.00000000    0.00000000    0.00000000
     atom   36 type  1   force =     0.00000000    0.00000000    0.00000000
     atom   37 type  1   force =     0.00000000    0.00000000    0.00000000
     atom   38 type  1   force =     0.00000000    0.00000000    0.00000000
     atom   39 type  1   force =     0.00000000    0.00000000    0.00000000
     atom   40 type  1   force =     0.00000000    0.00000000    0.00000000
     atom   41 type  1   force =     0.00000000    0.00000000    0.00000000
     atom   42 type  1   force =     0.00000000    0.00000000    0.00000000
     atom   43 type  1   force =     0.00000000    0.00000000    0.00000000
     atom   44 type  1   force =     0.00000000    0.00000000    0.00000000
     atom   45 type  1   force =     0.00000000    0.00000000    0.00000000
     atom   46 type  1   force =     0.00000000    0.00000000    0.00000000
     atom   47 type  1   force =     0.00000000    0.00000000    0.00000000
     atom   48 type  1   force =     0.00000000    0.00000000    0.00000000
     atom   49 type  1   force =     0.00000000    0.00000000    0.00000000
     atom   50 type  1   force =     0.00000000    0.00000000    0.00000000
     atom   51 type  1   force =     0.00000000    0.00000000    0.00000000
     atom   52 type  1   force =     0.00000000    0.00000000    0.00000000
     atom   53 type  1   force =     0.00000000    0.00000000    0.00000000
     atom   54 type  1   force =     0.00000000    0.00000000    0.00000000
     atom   55 type  1   force =     0.00000000    0.00000000    0.00000000
     atom   56 type  1   force =     0.00000000    0.00000000    0.00000000
     atom   57 type  1   force =     0.00000000    0.00000000    0.00000000
     atom   58 type  1   force =     0.00000000    0.00000000    0.00000000
     atom   59 type  1   force =     0.00000000    0.00000000    0.00000000
     atom   60 type  1   force =     0.00000000    0.00000000    0.00000000
     atom   61 type  1   force =     0.00000000    0.00000000    0.00000000
     atom   62 type  1   force =     0.00000000    0.00000000    0.00000000
     atom   63 type  1   force =     0.00000000    0.00000000    0.00000000
     atom   64 type  1   force =     0.00000000    0.00000000    0.00000000
     atom   65 type  1   force =     0.00000000    0.00000000    0.00000000
     atom   66 type  1   force =     0.00000000    0.00000000    0.00000000
     atom   67 type  1   force =     0.00000000    0.00000000    0.00000000
     atom   68 type  1   force =     0.00000000    0.00000000    0.00000000
     The Hubbard contrib.    to forces
     atom    1 type  1   force =     0.00000000    0.00000000    0.00000000
     atom    2 type  1   force =     0.00000000    0.00000000    0.00000000
     atom    3 type  1   force =     0.00000000    0.00000000    0.00000000
     atom    4 type  1   force =     0.00000000    0.00000000    0.00000000
     atom    5 type  1   force =     0.00000000    0.00000000    0.00000000
     atom    6 type  1   force =     0.00000000    0.00000000    0.00000000
     atom    7 type  1   force =     0.00000000    0.00000000    0.00000000
     atom    8 type  1   force =     0.00000000    0.00000000    0.00000000
     atom    9 type  1   force =     0.00000000    0.00000000    0.00000000
     atom   10 type  1   force =     0.00000000    0.00000000    0.00000000
     atom   11 type  1   force =     0.00000000    0.00000000    0.00000000
     atom   12 type  1   force =     0.00000000    0.00000000    0.00000000
     atom   13 type  1   force =     0.00000000    0.00000000    0.00000000
     atom   14 type  1   force =     0.00000000    0.00000000    0.00000000
     atom   15 type  1   force =     0.00000000    0.00000000    0.00000000
     atom   16 type  1   force =     0.00000000    0.00000000    0.00000000
     atom   17 type  1   force =     0.00000000    0.00000000    0.00000000
     atom   18 type  1   force =     0.00000000    0.00000000    0.00000000
     atom   19 type  1   force =     0.00000000    0.00000000    0.00000000
     atom   20 type  1   force =     0.00000000    0.00000000    0.00000000
     atom   21 type  1   force =     0.00000000    0.00000000    0.00000000
     atom   22 type  1   force =     0.00000000    0.00000000    0.00000000
     atom   23 type  1   force =     0.00000000    0.00000000    0.00000000
     atom   24 type  1   force =     0.00000000    0.00000000    0.00000000
     atom   25 type  1   force =     0.00000000    0.00000000    0.00000000
     atom   26 type  1   force =     0.00000000    0.00000000    0.00000000
     atom   27 type  1   force =     0.00000000    0.00000000    0.00000000
     atom   28 type  1   force =     0.00000000    0.00000000    0.00000000
     atom   29 type  1   force =     0.00000000    0.00000000    0.00000000
     atom   30 type  1   force =     0.00000000    0.00000000    0.00000000
     atom   31 type  1   force =     0.00000000    0.00000000    0.00000000
     atom   32 type  1   force =     0.00000000    0.00000000    0.00000000
     atom   33 type  1   force =     0.00000000    0.00000000    0.00000000
     atom   34 type  1   force =     0.00000000    0.00000000    0.00000000
     atom   35 type  1   force =     0.00000000    0.00000000    0.00000000
     atom   36 type  1   force =     0.00000000    0.00000000    0.00000000
     atom   37 type  1   force =     0.00000000    0.00000000    0.00000000
     atom   38 type  1   force =     0.00000000    0.00000000    0.00000000
     atom   39 type  1   force =     0.00000000    0.00000000    0.00000000
     atom   40 type  1   force =     0.00000000    0.00000000    0.00000000
     atom   41 type  1   force =     0.00000000    0.00000000    0.00000000
     atom   42 type  1   force =     0.00000000    0.00000000    0.00000000
     atom   43 type  1   force =     0.00000000    0.00000000    0.00000000
     atom   44 type  1   force =     0.00000000    0.00000000    0.00000000
     atom   45 type  1   force =     0.00000000    0.00000000    0.00000000
     atom   46 type  1   force =     0.00000000    0.00000000    0.00000000
     atom   47 type  1   force =     0.00000000    0.00000000    0.00000000
     atom   48 type  1   force =     0.00000000    0.00000000    0.00000000
     atom   49 type  1   force =     0.00000000    0.00000000    0.00000000
     atom   50 type  1   force =     0.00000000    0.00000000    0.00000000
     atom   51 type  1   force =     0.00000000    0.00000000    0.00000000
     atom   52 type  1   force =     0.00000000    0.00000000    0.00000000
     atom   53 type  1   force =     0.00000000    0.00000000    0.00000000
     atom   54 type  1   force =     0.00000000    0.00000000    0.00000000
     atom   55 type  1   force =     0.00000000    0.00000000    0.00000000
     atom   56 type  1   force =     0.00000000    0.00000000    0.00000000
     atom   57 type  1   force =     0.00000000    0.00000000    0.00000000
     atom   58 type  1   force =     0.00000000    0.00000000    0.00000000
     atom   59 type  1   force =     0.00000000    0.00000000    0.00000000
     atom   60 type  1   force =     0.00000000    0.00000000    0.00000000
     atom   61 type  1   force =     0.00000000    0.00000000    0.00000000
     atom   62 type  1   force =     0.00000000    0.00000000    0.00000000
     atom   63 type  1   force =     0.00000000    0.00000000    0.00000000
     atom   64 type  1   force =     0.00000000    0.00000000    0.00000000
     atom   65 type  1   force =     0.00000000    0.00000000    0.00000000
     atom   66 type  1   force =     0.00000000    0.00000000    0.00000000
     atom   67 type  1   force =     0.00000000    0.00000000    0.00000000
     atom   68 type  1   force =     0.00000000    0.00000000    0.00000000
     The SCF correction term to forces
     atom    1 type  1   force =     0.00000000    0.00000000   -0.00000001
     atom    2 type  1   force =    -0.00000000    0.00000000    0.00000000
     atom    3 type  1   force =    -0.00000000   -0.00000000   -0.00000000
     atom    4 type  1   force =     0.00000000    0.00000000   -0.00000000
     atom    5 type  1   force =    -0.00000000    0.00000000   -0.00000000
     atom    6 type  1   force =     0.00000000    0.00000000   -0.00000000
     atom    7 type  1   force =     0.00000000    0.00000000   -0.00000000
     atom    8 type  1   force =     0.00000000   -0.00000000   -0.00000000
     atom    9 type  1   force =     0.00000000   -0.00000000   -0.00000000
     atom   10 type  1   force =     0.00000000   -0.00000000   -0.00000000
     atom   11 type  1   force =     0.00000000   -0.00000000    0.00000000
     atom   12 type  1   force =     0.00000000   -0.00000000    0.00000000
     atom   13 type  1   force =     0.00000000   -0.00000000   -0.00000000
     atom   14 type  1   force =     0.00000000   -0.00000000    0.00000000
     atom   15 type  1   force =     0.00000000    0.00000000    0.00000000
     atom   16 type  1   force =    -0.00000000    0.00000000   -0.00000000
     atom   17 type  1   force =     0.00000000    0.00000000    0.00000000
     atom   18 type  1   force =     0.00000000   -0.00000000   -0.00000000
     atom   19 type  1   force =     0.00000000   -0.00000000   -0.00000000
     atom   20 type  1   force =    -0.00000000    0.00000000   -0.00000000
     atom   21 type  1   force =    -0.00000000    0.00000000   -0.00000000
     atom   22 type  1   force =     0.00000000   -0.00000000   -0.00000000
     atom   23 type  1   force =    -0.00000000    0.00000000   -0.00000000
     atom   24 type  1   force =    -0.00000000   -0.00000000    0.00000000
     atom   25 type  1   force =    -0.00000000    0.00000000   -0.00000000
     atom   26 type  1   force =     0.00000000   -0.00000000   -0.00000000
     atom   27 type  1   force =    -0.00000000   -0.00000000    0.00000000
     atom   28 type  1   force =     0.00000000    0.00000000   -0.00000000
     atom   29 type  1   force =    -0.00000000   -0.00000000   -0.00000000
     atom   30 type  1   force =     0.00000000    0.00000000    0.00000000
     atom   31 type  1   force =     0.00000000   -0.00000000    0.00000000
     atom   32 type  1   force =    -0.00000000    0.00000000    0.00000001
     atom   33 type  1   force =     0.00000000    0.00000000   -0.00000000
     atom   34 type  1   force =    -0.00000000   -0.00000000    0.00000000
     atom   35 type  1   force =    -0.00000000   -0.00000000   -0.00000001
     atom   36 type  1   force =    -0.00000000    0.00000000    0.00000000
     atom   37 type  1   force =     0.00000000   -0.00000000    0.00000000
     atom   38 type  1   force =     0.00000000    0.00000000    0.00000000
     atom   39 type  1   force =     0.00000000    0.00000000   -0.00000000
     atom   40 type  1   force =     0.00000000   -0.00000000   -0.00000000
     atom   41 type  1   force =     0.00000000    0.00000000   -0.00000000
     atom   42 type  1   force =    -0.00000000   -0.00000000   -0.00000000
     atom   43 type  1   force =    -0.00000000   -0.00000000   -0.00000000
     atom   44 type  1   force =     0.00000000   -0.00000000   -0.00000000
     atom   45 type  1   force =    -0.00000000   -0.00000000    0.00000000
     atom   46 type  1   force =    -0.00000000   -0.00000000    0.00000000
     atom   47 type  1   force =    -0.00000000   -0.00000000   -0.00000000
     atom   48 type  1   force =    -0.00000000   -0.00000000    0.00000000
     atom   49 type  1   force =    -0.00000000    0.00000000    0.00000000
     atom   50 type  1   force =     0.00000000    0.00000000   -0.00000000
     atom   51 type  1   force =    -0.00000000    0.00000000    0.00000000
     atom   52 type  1   force =     0.00000000   -0.00000000   -0.00000000
     atom   53 type  1   force =     0.00000000   -0.00000000   -0.00000000
     atom   54 type  1   force =     0.00000000    0.00000000   -0.00000000
     atom   55 type  1   force =    -0.00000000    0.00000000   -0.00000000
     atom   56 type  1   force =     0.00000000   -0.00000000   -0.00000000
     atom   57 type  1   force =     0.00000000    0.00000000   -0.00000000
     atom   58 type  1   force =     0.00000000   -0.00000000    0.00000000
     atom   59 type  1   force =    -0.00000000    0.00000000   -0.00000000
     atom   60 type  1   force =    -0.00000000   -0.00000000   -0.00000000
     atom   61 type  1   force =    -0.00000000    0.00000000    0.00000000
     atom   62 type  1   force =     0.00000000    0.00000000   -0.00000000
     atom   63 type  1   force =     0.00000000   -0.00000000   -0.00000000
     atom   64 type  1   force =     0.00000000    0.00000000    0.00000000
     atom   65 type  1   force =    -0.00000000   -0.00000000    0.00000000
     atom   66 type  1   force =     0.00000000    0.00000000    0.00000001
     atom   67 type  1   force =     0.00000000    0.00000000   -0.00000000
     atom   68 type  1   force =     0.00000000   -0.00000000    0.00000000

     Total force =     0.005860     Total SCF correction =     0.000000

     Writing all to output data dir ./Li/Lithium.save/ :
     XML data file
     init_run     :     36.96s CPU     48.13s WALL (       1 calls)
     electrons    :   5269.53s CPU   6763.37s WALL (       1 calls)
     forces       :    108.96s CPU    115.18s WALL (       1 calls)

     Called by init_run:
     wfcinit      :      7.83s CPU     10.76s WALL (       1 calls)
     wfcinit:wfcr :      7.22s CPU     10.14s WALL (      13 calls)
     potinit      :      1.19s CPU      1.27s WALL (       1 calls)
     hinit0       :     12.66s CPU     20.42s WALL (       1 calls)

     Called by electrons:
     c_bands      :   3919.71s CPU   5128.97s WALL (      65 calls)
     sum_band     :    235.11s CPU    329.74s WALL (      65 calls)
     v_of_rho     :      9.23s CPU     10.62s WALL (      66 calls)
     v_h          :      0.74s CPU      0.89s WALL (      66 calls)
     v_xc         :      8.49s CPU      9.72s WALL (      66 calls)
     newd         :      7.84s CPU     12.86s WALL (      66 calls)
     PAW_pot      :      0.68s CPU      0.92s WALL (      66 calls)
     mix_rho      :     28.82s CPU     33.73s WALL (      65 calls)

     Called by c_bands:
     init_us_2    :     43.57s CPU     43.78s WALL (    1716 calls)
     cegterg      :   3763.59s CPU   4778.23s WALL (    1164 calls)

     Called by sum_band:
     sum_band:wei :      0.18s CPU      0.19s WALL (      65 calls)
     sum_band:loo :    227.82s CPU    321.80s WALL (      65 calls)
     sum_band:buf :      4.82s CPU      4.94s WALL (     845 calls)
     sum_band:ini :     21.54s CPU     21.58s WALL (     845 calls)
     sum_band:cal :     43.11s CPU     45.91s WALL (     845 calls)
     sum_band:bec :      0.34s CPU      0.40s WALL (     845 calls)
     addusdens    :      5.63s CPU      5.67s WALL (      65 calls)
                                        0.00s GPU  (      65 calls)
     addusd:skk   :      1.54s CPU      1.54s WALL (      65 calls)
                                        0.00s GPU  (      65 calls)

     Called by *egterg:
     cdiaghg      :    956.39s CPU   1093.04s WALL (   15017 calls)
     cegterg:over :    287.69s CPU    309.20s WALL (   13928 calls)
     cegterg:upda :    242.96s CPU    252.07s WALL (   13928 calls)
     cegterg:last :     99.69s CPU    107.33s WALL (    1478 calls)
     cdiaghg:chol :     46.29s CPU     87.23s WALL (   15017 calls)
     cdiaghg:inve :     21.26s CPU     23.48s WALL (   15017 calls)
     cdiaghg:para :    264.52s CPU    309.88s WALL (   30034 calls)
     h_psi        :   1891.59s CPU   2728.14s WALL (   15105 calls)
     s_psi        :    231.47s CPU    232.34s WALL (   15105 calls)
     g_psi        :      4.07s CPU      4.37s WALL (   13928 calls)

     Called by h_psi:
     h_psi:calbec :    270.48s CPU    294.57s WALL (   15105 calls)
     vloc_psi     :   1366.19s CPU   2176.74s WALL (   15105 calls)
                                        0.00s GPU  (   15105 calls)
     add_vuspsi   :    239.98s CPU    241.32s WALL (   15105 calls)

     General routines
     calbec       :    315.84s CPU    342.90s WALL (   16002 calls)
     fft          :     11.35s CPU     20.15s WALL (     858 calls)
     ffts         :     14.75s CPU     17.86s WALL (    8003 calls)
     fftw         :   1467.91s CPU   2340.96s WALL ( 1281749 calls)
     interpolate  :      1.66s CPU      1.82s WALL (      66 calls)

     Parallel routines

     PAW routines
     PAW_pot      :      0.68s CPU      0.92s WALL (      66 calls)

     Environ routines

     PWSCF        :      1h30m CPU      1h55m WALL


   This run was terminated on:   6:20: 0  20Jan2025            

=------------------------------------------------------------------------------=
   JOB DONE.
=------------------------------------------------------------------------------=
