
     Program PWSCF v.7.4 starts on 24Jan2025 at  1:57:35 

     This program is part of the open-source Quantum ESPRESSO suite
     for quantum simulation of materials; please cite
         "P. Giannozzi et al., J. Phys.:Condens. Matter 21 395502 (2009);
         "P. Giannozzi et al., J. Phys.:Condens. Matter 29 465901 (2017);
         "P. Giannozzi et al., J. Chem. Phys. 152 154105 (2020);
          URL http://www.quantum-espresso.org", 
     in publications or presentations arising from this work. More details at
     http://www.quantum-espresso.org/quote

     Parallel version (MPI & OpenMP), running on     512 processor cores
     Number of MPI processes:               512
     Threads/MPI process:                     1

     MPI processes distributed on     4 nodes
     233258 MiB available memory on the printing compute node when the environment starts

     Reading input from espresso.pwi
Warning: card &CELL ignored
Warning: card    PRESS_CONV_THR   = 0.1 ignored
Warning: card    CELL_DOFREE      = 'ALL' ignored
Warning: card / ignored
Warning: card &FCP ignored
Warning: card / ignored
Warning: card &RISM ignored
Warning: card / ignored

     Current dimensions of program PWSCF are:
     Max number of different atomic species (ntypx) = 10
     Max number of k-points (npk) =  40000
     Max angular momentum in pseudopotentials (lmaxx) =  4

     IMPORTANT: XC functional enforced from input :
     Exchange-correlation= PBE
                           (   1   4   3   4   0   0   0)
     Any further DFT definition will be discarded
     Please, verify this is what you really want


     Reading input from environ.in:
     * using ionic solvent mode
     * setting boundary derivatives method to SSCS default
     * setting electrolyte-boundary derivatives method to SSCS default

Environ Warning (1001): card EOF ignored

     
     Found identity + (  0.5000  0.0000  0.0000) symmetry
     This is a supercell, fractional translations are disabled

     K-points division:     npool     =       2
     R & G space division:  proc/nbgrp/npool/nimage =     256
     Subspace diagonalization in iterative solution of the eigenvalue problem:
     a serial algorithm will be used


     Parallelization info
     --------------------
     sticks:   dense  smooth     PW     G-vecs:    dense   smooth      PW
     Min          75      30      8                44583    11270    1514
     Max          76      31      9                44636    11296    1560
     Sum       19367    7745   2063             11420683  2888861  395615

     Using Slab Decomposition



     bravais-lattice index     =            8
     lattice parameter (alat)  =      12.9830  a.u.
     unit-cell volume          =   29886.2289 (a.u.)^3
     number of atoms/cell      =           52
     number of atomic types    =            1
     number of electrons       =       156.00
     number of Kohn-Sham states=          117
     kinetic-energy cutoff     =      80.0000  Ry
     charge density cutoff     =     800.0000  Ry
     scf convergence threshold =      1.0E-14
     mixing beta               =       0.2000
     number of iterations used =            8  local-TF  mixing
     Exchange-correlation= PBE
                           (   1   4   3   4   0   0   0)

     ================================================================================

                                  Environ Setup Summary

     ================================================================================

     Please cite

          O. Andreussi, I. Dabo and N. Marzari, J. Chem. Phys. 136, 064102 (2012)
          F. Nattino, M. Truscott, N. Marzari, and O. Andreussi, J. Chem. Phys. 150, 041722 (2019)

     in publications or presentations arising from this work.

     ================================================================================

     Parameters
     ==========

     compensation onset threshold      =               0.1000E+00
     static permittivity               =                    89.90
     surface tension in input (dyn/cm) =                    37.30
     surface tension in internal units =               0.4792E-04

     Solvent Boundary
     ================

     solvent mode                      =                    ionic
     derivatives method                =                   lowmem
     electrolyte derivatives method    =                   lowmem
     numerical core for derivatives    =                      fft
     switching function adopted        =                     SCCS
     density limit for vacuum region   =               0.5000E-02
     density limit for bulk solvent    =               0.1000E-03
     soft-sphere radius mode           =                    bondi
     soft-sphere softness              =                     0.50
     alpha                             =                     1.32

     Electrostatic Setup
     ===================

     electrostatic problem to solve    =                    modpb
     numerical solver adopted          =                   newton
     type of auxiliary density adopted =                     none
     numerical core for poisson        =                      fft
     adopting a nested solver scheme
     inner solver                      =                       cg
     inner core                        =                      fft
     type of pbc corrections           =                parabolic
     numerical core for corrections    =                      1da

     ================================================================================


     >>>>> Grand-Canonical SCF is activated <<<<<
     Initial Total Charge  =     0.000000 e
     Target Fermi Energy   =    -1.654000 eV
     Thr. of Fermi Energy  =     0.001000 eV
     Wave-shift of Kerker  =     0.400000 bohr^-1
     Wave-shift of Hartree =     1.500000 bohr^-1
     Mixing Rate of Fermi  =     0.050000

     celldm(1)=  12.983009  celldm(2)=   1.802776  celldm(3)=   7.575360
     celldm(4)=   0.000000  celldm(5)=   0.000000  celldm(6)=   0.000000

     crystal axes: (cart. coord. in units of alat)
               a(1) = (   1.000000   0.000000   0.000000 )  
               a(2) = (   0.000000   1.802776   0.000000 )  
               a(3) = (   0.000000   0.000000   7.575360 )  

     reciprocal axes: (cart. coord. in units 2 pi/alat)
               b(1) = (  1.000000  0.000000  0.000000 )  
               b(2) = (  0.000000  0.554700  0.000000 )  
               b(3) = (  0.000000  0.000000  0.132007 )  


     PseudoPot. # 1 for Li read from file:
     /work/e89/e89/ba3g18/Repos/Pseudopotentials/Pslibrary/Li.pbe-sl-kjpaw_psl.1.0.0.UPF
     MD5 check sum: 3f4d2cafebb47c6c3aa8ed472e6f074d
     Pseudo is Projector augmented-wave, Zval =  3.0
     Generated using 'atomic' code by A. Dal Corso  v.7.4
     Shape of augmentation charge: PSQ
     Using radial grid of 1017 points,  4 beta functions with: 
                l(1) =   0
                l(2) =   0
                l(3) =   1
                l(4) =   1
     Q(r) pseudized with 0 coefficients 


     atomic species   valence    mass     pseudopotential
     Li                3.00     6.94000     Li( 1.00)

      2 Sym. Ops. (no inversion) found


                                    s                        frac. trans.

      isym =  1     identity                                     

 cryst.   s( 1) = (     1          0          0      )
                  (     0          1          0      )
                  (     0          0          1      )

 cart.    s( 1) = (  1.0000000  0.0000000  0.0000000 )
                  (  0.0000000  1.0000000  0.0000000 )
                  (  0.0000000  0.0000000  1.0000000 )


      isym =  2     inv. 180 deg rotation - cart. axis [1,0,0]   

 cryst.   s( 2) = (    -1          0          0      )
                  (     0          1          0      )
                  (     0          0          1      )

 cart.    s( 2) = ( -1.0000000  0.0000000  0.0000000 )
                  (  0.0000000  1.0000000  0.0000000 )
                  (  0.0000000  0.0000000  1.0000000 )


     point group C_s (m)    
     there are  2 classes
     the character table:

       E     s    
A'     1.00  1.00
A''    1.00 -1.00

     the symmetry operations in each class and the name of the first element:

     E        1
          identity                                               
     s        2
          inv. 180 deg rotation - cart. axis [1,0,0]             

   Cartesian axes

     site n.     atom                  positions (alat units)
         1        Li     tau(   1) = (   0.0000000   1.1547216   4.5337777  )
         2        Li     tau(   2) = (   0.0000000   1.5332822   4.2488073  )
         3        Li     tau(   3) = (   0.0000000   0.4332157   4.3938700  )
         4        Li     tau(   4) = (   0.0000000   0.8361327   4.1073953  )
         5        Li     tau(   5) = (   0.0000000   1.2458989   3.8240131  )
         6        Li     tau(   6) = (   0.0000000   1.6589584   3.5362682  )
         7        Li     tau(   7) = (   0.0000000   0.1402455   3.9585329  )
         8        Li     tau(   8) = (   0.0000000   0.5532744   3.6834058  )
         9        Li     tau(   9) = (   0.0000000   0.9639457   3.3955199  )
        10        Li     tau(  10) = (   0.0000000   1.3571205   3.1111664  )
        11        Li     tau(  11) = (   0.0000000   0.2691780   3.2771673  )
        12        Li     tau(  12) = (   0.0000000   0.6356505   2.9682975  )
        13        Li     tau(  13) = (   0.0000000   0.0736616   4.6533119  )
        14        Li     tau(  14) = (   0.2500005   1.1847245   4.1790069  )
        15        Li     tau(  15) = (   0.2500004   1.5934869   3.8915316  )
        16        Li     tau(  16) = (   0.2499994   0.4882192   4.0384579  )
        17        Li     tau(  17) = (   0.2499995   0.9008800   3.7503750  )
        18        Li     tau(  18) = (   0.2499997   1.3117344   3.4673274  )
        19        Li     tau(  19) = (   0.2499992   1.7177686   3.1812873  )
        20        Li     tau(  20) = (   0.2500004   0.2035485   3.6175452  )
        21        Li     tau(  21) = (   0.2500005   0.6163041   3.3264939  )
        22        Li     tau(  22) = (   0.2500005   0.9975221   3.0410551  )
        23        Li     tau(  23) = (   0.2499997   1.5166239   4.6075914  )
        24        Li     tau(  24) = (   0.2499995   0.2760229   2.9239828  )
        25        Li     tau(  25) = (   0.2499999   0.7944358   4.4638888  )
        26        Li     tau(  26) = (   0.2499994   0.0781369   4.2996263  )
        27        Li     tau(  27) = (   0.5000000   1.1547225   4.5337788  )
        28        Li     tau(  28) = (   0.5000000   1.5332827   4.2488085  )
        29        Li     tau(  29) = (   0.5000000   0.4332151   4.3938693  )
        30        Li     tau(  30) = (   0.5000000   0.8361319   4.1073940  )
        31        Li     tau(  31) = (   0.5000000   1.2458980   3.8240124  )
        32        Li     tau(  32) = (   0.5000000   1.6589577   3.5362680  )
        33        Li     tau(  33) = (   0.5000000   0.1402462   3.9585337  )
        34        Li     tau(  34) = (   0.5000000   0.5532753   3.6834062  )
        35        Li     tau(  35) = (   0.5000000   0.9639466   3.3955203  )
        36        Li     tau(  36) = (   0.5000000   1.3571211   3.1111668  )
        37        Li     tau(  37) = (   0.5000000   0.2691778   3.2771668  )
        38        Li     tau(  38) = (   0.5000000   0.6356503   2.9682963  )
        39        Li     tau(  39) = (   0.5000000   0.0736612   4.6533115  )
        40        Li     tau(  40) = (   0.7499995   1.1847245   4.1790069  )
        41        Li     tau(  41) = (   0.7499996   1.5934869   3.8915316  )
        42        Li     tau(  42) = (   0.7500006   0.4882192   4.0384579  )
        43        Li     tau(  43) = (   0.7500005   0.9008800   3.7503750  )
        44        Li     tau(  44) = (   0.7500003   1.3117344   3.4673274  )
        45        Li     tau(  45) = (   0.7500008   1.7177686   3.1812873  )
        46        Li     tau(  46) = (   0.7499996   0.2035485   3.6175452  )
        47        Li     tau(  47) = (   0.7499995   0.6163041   3.3264939  )
        48        Li     tau(  48) = (   0.7499995   0.9975221   3.0410551  )
        49        Li     tau(  49) = (   0.7500003   1.5166239   4.6075914  )
        50        Li     tau(  50) = (   0.7500005   0.2760229   2.9239828  )
        51        Li     tau(  51) = (   0.7500001   0.7944358   4.4638888  )
        52        Li     tau(  52) = (   0.7500006   0.0781369   4.2996263  )

   Crystallographic axes

     site n.     atom                  positions (cryst. coord.)
         1        Li     tau(   1) = (  0.0000000  0.6405242  0.5984901  )
         2        Li     tau(   2) = (  0.0000000  0.8505118  0.5608720  )
         3        Li     tau(   3) = (  0.0000000  0.2403048  0.5800213  )
         4        Li     tau(   4) = (  0.0000000  0.4638029  0.5422046  )
         5        Li     tau(   5) = (  0.0000000  0.6911002  0.5047962  )
         6        Li     tau(   6) = (  0.0000000  0.9202244  0.4668119  )
         7        Li     tau(   7) = (  0.0000000  0.0777942  0.5225538  )
         8        Li     tau(   8) = (  0.0000000  0.3069014  0.4862351  )
         9        Li     tau(   9) = (  0.0000000  0.5347008  0.4482322  )
        10        Li     tau(  10) = (  0.0000000  0.7527948  0.4106955  )
        11        Li     tau(  11) = (  0.0000000  0.1493131  0.4326088  )
        12        Li     tau(  12) = (  0.0000000  0.3525954  0.3918358  )
        13        Li     tau(  13) = (  0.0000000  0.0408601  0.6142694  )
        14        Li     tau(  14) = (  0.2500005  0.6571668  0.5516579  )
        15        Li     tau(  15) = (  0.2500004  0.8839073  0.5137091  )
        16        Li     tau(  16) = (  0.2499994  0.2708152  0.5331044  )
        17        Li     tau(  17) = (  0.2499995  0.4997182  0.4950755  )
        18        Li     tau(  18) = (  0.2499997  0.7276192  0.4577112  )
        19        Li     tau(  19) = (  0.2499992  0.9528464  0.4199520  )
        20        Li     tau(  20) = (  0.2500004  0.1129084  0.4775410  )
        21        Li     tau(  21) = (  0.2500005  0.3418639  0.4391202  )
        22        Li     tau(  22) = (  0.2500005  0.5533256  0.4014403  )
        23        Li     tau(  23) = (  0.2499997  0.8412714  0.6082340  )
        24        Li     tau(  24) = (  0.2499995  0.1531099  0.3859860  )
        25        Li     tau(  25) = (  0.2499999  0.4406736  0.5892642  )
        26        Li     tau(  26) = (  0.2499994  0.0433425  0.5675805  )
        27        Li     tau(  27) = (  0.5000000  0.6405247  0.5984902  )
        28        Li     tau(  28) = (  0.5000000  0.8505121  0.5608722  )
        29        Li     tau(  29) = (  0.5000000  0.2403044  0.5800212  )
        30        Li     tau(  30) = (  0.5000000  0.4638024  0.5422045  )
        31        Li     tau(  31) = (  0.5000000  0.6910997  0.5047961  )
        32        Li     tau(  32) = (  0.5000000  0.9202240  0.4668119  )
        33        Li     tau(  33) = (  0.5000000  0.0777946  0.5225539  )
        34        Li     tau(  34) = (  0.5000000  0.3069018  0.4862351  )
        35        Li     tau(  35) = (  0.5000000  0.5347013  0.4482322  )
        36        Li     tau(  36) = (  0.5000000  0.7527952  0.4106956  )
        37        Li     tau(  37) = (  0.5000000  0.1493129  0.4326087  )
        38        Li     tau(  38) = (  0.5000000  0.3525953  0.3918357  )
        39        Li     tau(  39) = (  0.5000000  0.0408599  0.6142694  )
        40        Li     tau(  40) = (  0.7499995  0.6571668  0.5516579  )
        41        Li     tau(  41) = (  0.7499996  0.8839073  0.5137091  )
        42        Li     tau(  42) = (  0.7500006  0.2708152  0.5331044  )
        43        Li     tau(  43) = (  0.7500005  0.4997182  0.4950755  )
        44        Li     tau(  44) = (  0.7500003  0.7276192  0.4577112  )
        45        Li     tau(  45) = (  0.7500008  0.9528464  0.4199520  )
        46        Li     tau(  46) = (  0.7499996  0.1129084  0.4775410  )
        47        Li     tau(  47) = (  0.7499995  0.3418639  0.4391202  )
        48        Li     tau(  48) = (  0.7499995  0.5533256  0.4014403  )
        49        Li     tau(  49) = (  0.7500003  0.8412714  0.6082340  )
        50        Li     tau(  50) = (  0.7500005  0.1531099  0.3859860  )
        51        Li     tau(  51) = (  0.7500001  0.4406736  0.5892642  )
        52        Li     tau(  52) = (  0.7500006  0.0433425  0.5675805  )

     number of k points=    24  Marzari-Vanderbilt smearing, width (Ry)=  0.0100
                       cart. coord. in units 2pi/alat
        k(    1) = (   0.0000000   0.0000000   0.0000000), wk =   0.0333333
        k(    2) = (   0.0000000   0.0924500   0.0000000), wk =   0.0666667
        k(    3) = (   0.0000000   0.1849000   0.0000000), wk =   0.0666667
        k(    4) = (   0.0000000  -0.2773500   0.0000000), wk =   0.0333333
        k(    5) = (   0.1000000   0.0000000   0.0000000), wk =   0.0666667
        k(    6) = (   0.1000000   0.0924500   0.0000000), wk =   0.1333333
        k(    7) = (   0.1000000   0.1849000   0.0000000), wk =   0.1333333
        k(    8) = (   0.1000000  -0.2773500   0.0000000), wk =   0.0666667
        k(    9) = (   0.2000000   0.0000000   0.0000000), wk =   0.0666667
        k(   10) = (   0.2000000   0.0924500   0.0000000), wk =   0.1333333
        k(   11) = (   0.2000000   0.1849000   0.0000000), wk =   0.1333333
        k(   12) = (   0.2000000  -0.2773500   0.0000000), wk =   0.0666667
        k(   13) = (   0.3000000   0.0000000   0.0000000), wk =   0.0666667
        k(   14) = (   0.3000000   0.0924500   0.0000000), wk =   0.1333333
        k(   15) = (   0.3000000   0.1849000   0.0000000), wk =   0.1333333
        k(   16) = (   0.3000000  -0.2773500   0.0000000), wk =   0.0666667
        k(   17) = (   0.4000000   0.0000000   0.0000000), wk =   0.0666667
        k(   18) = (   0.4000000   0.0924500   0.0000000), wk =   0.1333333
        k(   19) = (   0.4000000   0.1849000   0.0000000), wk =   0.1333333
        k(   20) = (   0.4000000  -0.2773500   0.0000000), wk =   0.0666667
        k(   21) = (  -0.5000000   0.0000000   0.0000000), wk =   0.0333333
        k(   22) = (  -0.5000000   0.0924500   0.0000000), wk =   0.0666667
        k(   23) = (  -0.5000000   0.1849000   0.0000000), wk =   0.0666667
        k(   24) = (  -0.5000000  -0.2773500   0.0000000), wk =   0.0333333

                       cryst. coord.
        k(    1) = (   0.0000000   0.0000000   0.0000000), wk =   0.0333333
        k(    2) = (   0.0000000   0.1666667   0.0000000), wk =   0.0666667
        k(    3) = (   0.0000000   0.3333333   0.0000000), wk =   0.0666667
        k(    4) = (   0.0000000  -0.5000000   0.0000000), wk =   0.0333333
        k(    5) = (   0.1000000   0.0000000   0.0000000), wk =   0.0666667
        k(    6) = (   0.1000000   0.1666667   0.0000000), wk =   0.1333333
        k(    7) = (   0.1000000   0.3333333   0.0000000), wk =   0.1333333
        k(    8) = (   0.1000000  -0.5000000   0.0000000), wk =   0.0666667
        k(    9) = (   0.2000000   0.0000000   0.0000000), wk =   0.0666667
        k(   10) = (   0.2000000   0.1666667   0.0000000), wk =   0.1333333
        k(   11) = (   0.2000000   0.3333333   0.0000000), wk =   0.1333333
        k(   12) = (   0.2000000  -0.5000000   0.0000000), wk =   0.0666667
        k(   13) = (   0.3000000   0.0000000   0.0000000), wk =   0.0666667
        k(   14) = (   0.3000000   0.1666667   0.0000000), wk =   0.1333333
        k(   15) = (   0.3000000   0.3333333   0.0000000), wk =   0.1333333
        k(   16) = (   0.3000000  -0.5000000   0.0000000), wk =   0.0666667
        k(   17) = (   0.4000000   0.0000000   0.0000000), wk =   0.0666667
        k(   18) = (   0.4000000   0.1666667   0.0000000), wk =   0.1333333
        k(   19) = (   0.4000000   0.3333333   0.0000000), wk =   0.1333333
        k(   20) = (   0.4000000  -0.5000000   0.0000000), wk =   0.0666667
        k(   21) = (  -0.5000000   0.0000000   0.0000000), wk =   0.0333333
        k(   22) = (  -0.5000000   0.1666667   0.0000000), wk =   0.0666667
        k(   23) = (  -0.5000000   0.3333333   0.0000000), wk =   0.0666667
        k(   24) = (  -0.5000000  -0.5000000   0.0000000), wk =   0.0333333

     Dense  grid: 11420683 G-vectors     FFT dimensions: ( 120, 216, 900)

     Smooth grid:  2888861 G-vectors     FFT dimensions: (  75, 135, 576)

     Dynamical RAM for                 wfc:       2.52 MB

     Dynamical RAM for     wfc (w. buffer):      32.72 MB

     Dynamical RAM for           str. fact:       0.68 MB

     Dynamical RAM for           local pot:       0.00 MB

     Dynamical RAM for          nlocal pot:       8.95 MB

     Dynamical RAM for                qrad:       0.65 MB

     Dynamical RAM for          rho,v,vnew:       4.42 MB

     Dynamical RAM for               rhoin:       1.47 MB

     Dynamical RAM for            rho*nmix:      10.90 MB

     Dynamical RAM for           G-vectors:       2.64 MB

     Dynamical RAM for          h,s,v(r/c):      10.03 MB

     Dynamical RAM for          <psi|beta>:       0.74 MB

     Dynamical RAM for                 psi:      10.07 MB

     Dynamical RAM for                hpsi:      10.07 MB

     Dynamical RAM for                spsi:      10.07 MB

     Dynamical RAM for      wfcinit/wfcrot:       5.35 MB

     Dynamical RAM for           addusdens:      32.69 MB

     Dynamical RAM for          addusforce:      67.46 MB

     Estimated static dynamical RAM per process >      56.85 MB

     Estimated max dynamical RAM per process >     174.27 MB

     Estimated total dynamical RAM >      64.88 GB

     Initial potential from superposition of free atoms

     starting charge     155.7603, renormalised to     156.0000

     negative rho (up, down):  5.142E-03 0.000E+00
     Starting wfcs are random
     Checking if some PAW data can be deallocated... 

     total cpu time spent up to now is       36.9 secs

     Self-consistent Calculation

     iteration #  1     ecut=    80.00 Ry     beta= 0.20
     Davidson diagonalization with overlap

---- Real-time Memory Report at c_bands before calling an iterative solver
           819 MiB given to the printing process from OS
             0 MiB allocation reported by mallinfo(arena+hblkhd)
        217009 MiB available memory on the node where the printing process lives
------------------
     c_bands:  1 eigenvalues not converged
     c_bands:  1 eigenvalues not converged
     ethr =  1.00E-12,  avg # of iterations =127.2

     negative rho (up, down):  3.773E-03 0.000E+00

     total cpu time spent up to now is      431.8 secs

     total energy              =    -781.92744681 Ry
     estimated scf accuracy    <       0.19529417 Ry

     total charge of GC-SCF    =      -0.02074482 e
     the Fermi energy          =      -4.34807279 eV
                        (error :       2.69407279 eV)
     electrostatic embedding   =       0.00000000 Ry
     cavitation energy         =       0.03399560 Ry
     electrolyte free energy   =       0.01286340 Ry
     correction to one-el term =      -0.00000000 Ry

     iteration #  2     ecut=    80.00 Ry     beta= 0.20
     Davidson diagonalization with overlap

---- Real-time Memory Report at c_bands before calling an iterative solver
           819 MiB given to the printing process from OS
             0 MiB allocation reported by mallinfo(arena+hblkhd)
        212314 MiB available memory on the node where the printing process lives
------------------
     ethr =  1.00E-05,  avg # of iterations = 12.6

     negative rho (up, down):  2.922E-03 0.000E+00

     add environment contribution to local potential

     total cpu time spent up to now is      485.5 secs

     total energy              =    -782.06986833 Ry
     estimated scf accuracy    <       0.07100888 Ry

     total charge of GC-SCF    =      -0.05039931 e
     the Fermi energy          =      -3.06072802 eV
                        (error :       1.40672802 eV)
     electrostatic embedding   =      -0.00017009 Ry
     cavitation energy         =       0.03399560 Ry
     electrolyte free energy   =       0.01286340 Ry
     correction to one-el term =      -0.00000000 Ry

     iteration #  3     ecut=    80.00 Ry     beta= 0.20
     Davidson diagonalization with overlap

---- Real-time Memory Report at c_bands before calling an iterative solver
           819 MiB given to the printing process from OS
             0 MiB allocation reported by mallinfo(arena+hblkhd)
        212058 MiB available memory on the node where the printing process lives
------------------
     ethr =  1.00E-05,  avg # of iterations = 30.2

     negative rho (up, down):  2.433E-03 0.000E+00

     add environment contribution to local potential

     total cpu time spent up to now is      571.2 secs

     total energy              =    -781.90952537 Ry
     estimated scf accuracy    <       0.05702675 Ry

     total charge of GC-SCF    =      -0.22009053 e
     the Fermi energy          =      -2.87362469 eV
                        (error :       1.21962469 eV)
     electrostatic embedding   =      -0.04122554 Ry
     cavitation energy         =       0.03399560 Ry
     electrolyte free energy   =      -0.00423017 Ry
     correction to one-el term =       1.90371548 Ry

     iteration #  4     ecut=    80.00 Ry     beta= 0.20
     Davidson diagonalization with overlap

---- Real-time Memory Report at c_bands before calling an iterative solver
           819 MiB given to the printing process from OS
             0 MiB allocation reported by mallinfo(arena+hblkhd)
        211866 MiB available memory on the node where the printing process lives
------------------
     ethr =  1.00E-05,  avg # of iterations = 13.1

     negative rho (up, down):  2.002E-03 0.000E+00

     add environment contribution to local potential

     total cpu time spent up to now is      628.6 secs

     total energy              =    -782.01126491 Ry
     estimated scf accuracy    <       0.02443389 Ry

     total charge of GC-SCF    =      -0.36322235 e
     the Fermi energy          =      -3.18262592 eV
                        (error :       1.52862592 eV)
     electrostatic embedding   =      -0.05381283 Ry
     cavitation energy         =       0.03399560 Ry
     electrolyte free energy   =      -0.00612665 Ry
     correction to one-el term =       9.24139451 Ry

     iteration #  5     ecut=    80.00 Ry     beta= 0.20
     Davidson diagonalization with overlap

---- Real-time Memory Report at c_bands before calling an iterative solver
           819 MiB given to the printing process from OS
             0 MiB allocation reported by mallinfo(arena+hblkhd)
        211782 MiB available memory on the node where the printing process lives
------------------
     ethr =  1.00E-05,  avg # of iterations = 22.8

     negative rho (up, down):  1.713E-03 0.000E+00

     add environment contribution to local potential

     total cpu time spent up to now is      703.8 secs

     total energy              =    -781.86823880 Ry
     estimated scf accuracy    <       0.00857178 Ry

     total charge of GC-SCF    =      -0.70031405 e
     the Fermi energy          =      -2.81515882 eV
                        (error :       1.16115882 eV)
     electrostatic embedding   =      -0.06593897 Ry
     cavitation energy         =       0.03399560 Ry
     electrolyte free energy   =      -0.00315963 Ry
     correction to one-el term =      14.51372850 Ry

     iteration #  6     ecut=    80.00 Ry     beta= 0.20
     Davidson diagonalization with overlap

---- Real-time Memory Report at c_bands before calling an iterative solver
           819 MiB given to the printing process from OS
             0 MiB allocation reported by mallinfo(arena+hblkhd)
        211781 MiB available memory on the node where the printing process lives
------------------
     ethr =  5.47E-06,  avg # of iterations = 23.1

     negative rho (up, down):  1.516E-03 0.000E+00

     add environment contribution to local potential

     total cpu time spent up to now is      785.9 secs

     total energy              =    -781.91741548 Ry
     estimated scf accuracy    <       0.00448333 Ry

     total charge of GC-SCF    =      -1.11151160 e
     the Fermi energy          =      -2.47072349 eV
                        (error :       0.81672349 eV)
     electrostatic embedding   =      -0.12182559 Ry
     cavitation energy         =       0.03399560 Ry
     electrolyte free energy   =      -0.00071470 Ry
     correction to one-el term =      29.10560235 Ry

     iteration #  7     ecut=    80.00 Ry     beta= 0.20
     Davidson diagonalization with overlap

---- Real-time Memory Report at c_bands before calling an iterative solver
           819 MiB given to the printing process from OS
             0 MiB allocation reported by mallinfo(arena+hblkhd)
        211678 MiB available memory on the node where the printing process lives
------------------
     ethr =  2.85E-06,  avg # of iterations = 18.5

     negative rho (up, down):  1.369E-03 0.000E+00

     add environment contribution to local potential

     total cpu time spent up to now is      854.1 secs

     total energy              =    -781.95722773 Ry
     estimated scf accuracy    <       0.00826085 Ry

     total charge of GC-SCF    =      -1.78304885 e
     the Fermi energy          =      -2.22617154 eV
                        (error :       0.57217154 eV)
     electrostatic embedding   =      -0.23387368 Ry
     cavitation energy         =       0.03399560 Ry
     electrolyte free energy   =      -0.00155386 Ry
     correction to one-el term =      46.36210499 Ry

     iteration #  8     ecut=    80.00 Ry     beta= 0.20
     Davidson diagonalization with overlap

---- Real-time Memory Report at c_bands before calling an iterative solver
           819 MiB given to the printing process from OS
             0 MiB allocation reported by mallinfo(arena+hblkhd)
        211657 MiB available memory on the node where the printing process lives
------------------
     ethr =  2.85E-06,  avg # of iterations = 13.2

     negative rho (up, down):  1.220E-03 0.000E+00

     add environment contribution to local potential

     total cpu time spent up to now is      913.5 secs

     total energy              =    -782.09922186 Ry
     estimated scf accuracy    <       0.02017855 Ry

     total charge of GC-SCF    =      -1.74573330 e
     the Fermi energy          =      -2.01239975 eV
                        (error :       0.35839975 eV)
     electrostatic embedding   =      -0.50388905 Ry
     cavitation energy         =       0.03399560 Ry
     electrolyte free energy   =      -0.00452145 Ry
     correction to one-el term =      70.17451349 Ry

     iteration #  9     ecut=    80.00 Ry     beta= 0.20
     Davidson diagonalization with overlap

---- Real-time Memory Report at c_bands before calling an iterative solver
           819 MiB given to the printing process from OS
             0 MiB allocation reported by mallinfo(arena+hblkhd)
        211631 MiB available memory on the node where the printing process lives
------------------
     ethr =  2.85E-06,  avg # of iterations =  1.0

     negative rho (up, down):  1.055E-03 0.000E+00

     add environment contribution to local potential

     total cpu time spent up to now is      938.9 secs

     total energy              =    -781.98474311 Ry
     estimated scf accuracy    <       0.02244086 Ry

     total charge of GC-SCF    =      -2.40283958 e
     the Fermi energy          =      -1.99493259 eV
                        (error :       0.34093259 eV)
     electrostatic embedding   =      -0.48606610 Ry
     cavitation energy         =       0.03399560 Ry
     electrolyte free energy   =      -0.00455547 Ry
     correction to one-el term =      68.96332868 Ry

     iteration # 10     ecut=    80.00 Ry     beta= 0.20
     Davidson diagonalization with overlap

---- Real-time Memory Report at c_bands before calling an iterative solver
           819 MiB given to the printing process from OS
             0 MiB allocation reported by mallinfo(arena+hblkhd)
        211626 MiB available memory on the node where the printing process lives
------------------
     ethr =  2.85E-06,  avg # of iterations = 11.5

     negative rho (up, down):  8.879E-04 0.000E+00

     add environment contribution to local potential

     total cpu time spent up to now is      987.5 secs

     total energy              =    -781.99743937 Ry
     estimated scf accuracy    <       0.01214075 Ry

     total charge of GC-SCF    =      -3.06513440 e
     the Fermi energy          =      -2.05653585 eV
                        (error :       0.40253585 eV)
     electrostatic embedding   =      -0.84336692 Ry
     cavitation energy         =       0.03399560 Ry
     electrolyte free energy   =      -0.00655680 Ry
     correction to one-el term =      90.60857883 Ry

     iteration # 11     ecut=    80.00 Ry     beta= 0.20
     Davidson diagonalization with overlap

---- Real-time Memory Report at c_bands before calling an iterative solver
           819 MiB given to the printing process from OS
             0 MiB allocation reported by mallinfo(arena+hblkhd)
        211618 MiB available memory on the node where the printing process lives
------------------
     ethr =  2.85E-06,  avg # of iterations = 12.8

     negative rho (up, down):  7.833E-04 0.000E+00

     add environment contribution to local potential

     total cpu time spent up to now is     1041.3 secs

     total energy              =    -782.05228514 Ry
     estimated scf accuracy    <       0.00325011 Ry

     total charge of GC-SCF    =      -4.23626429 e
     the Fermi energy          =      -2.18267503 eV
                        (error :       0.52867503 eV)
     electrostatic embedding   =      -1.29480880 Ry
     cavitation energy         =       0.03399560 Ry
     electrolyte free energy   =      -0.00952800 Ry
     correction to one-el term =     111.02066484 Ry

     iteration # 12     ecut=    80.00 Ry     beta= 0.20
     Davidson diagonalization with overlap

---- Real-time Memory Report at c_bands before calling an iterative solver
           819 MiB given to the printing process from OS
             0 MiB allocation reported by mallinfo(arena+hblkhd)
        211567 MiB available memory on the node where the printing process lives
------------------
     ethr =  2.03E-06,  avg # of iterations = 11.7

     negative rho (up, down):  7.199E-04 0.000E+00

     add environment contribution to local potential

     total cpu time spent up to now is     1098.1 secs

     total energy              =    -782.12617421 Ry
     estimated scf accuracy    <       0.00102354 Ry

     total charge of GC-SCF    =      -4.80388974 e
     the Fermi energy          =      -2.12686151 eV
                        (error :       0.47286151 eV)
     electrostatic embedding   =      -2.33453298 Ry
     cavitation energy         =       0.03399560 Ry
     electrolyte free energy   =      -0.02234139 Ry
     correction to one-el term =     149.21442385 Ry

     iteration # 13     ecut=    80.00 Ry     beta= 0.20
     Davidson diagonalization with overlap

---- Real-time Memory Report at c_bands before calling an iterative solver
           819 MiB given to the printing process from OS
             0 MiB allocation reported by mallinfo(arena+hblkhd)
        211536 MiB available memory on the node where the printing process lives
------------------
     ethr =  6.37E-07,  avg # of iterations = 12.5

     negative rho (up, down):  6.689E-04 0.000E+00

     add environment contribution to local potential

     total cpu time spent up to now is     1158.2 secs

     total energy              =    -782.15788873 Ry
     estimated scf accuracy    <       0.00098033 Ry

     total charge of GC-SCF    =      -5.29724482 e
     the Fermi energy          =      -2.04650523 eV
                        (error :       0.39250523 eV)
     electrostatic embedding   =      -2.92724653 Ry
     cavitation energy         =       0.03399560 Ry
     electrolyte free energy   =      -0.03207607 Ry
     correction to one-el term =     166.98868910 Ry

     iteration # 14     ecut=    80.00 Ry     beta= 0.20
     Davidson diagonalization with overlap

---- Real-time Memory Report at c_bands before calling an iterative solver
           819 MiB given to the printing process from OS
             0 MiB allocation reported by mallinfo(arena+hblkhd)
        211509 MiB available memory on the node where the printing process lives
------------------
     ethr =  6.08E-07,  avg # of iterations = 11.2

     negative rho (up, down):  6.318E-04 0.000E+00

     add environment contribution to local potential

     total cpu time spent up to now is     1210.2 secs

     total energy              =    -782.18772735 Ry
     estimated scf accuracy    <       0.00070160 Ry

     total charge of GC-SCF    =      -5.62093879 e
     the Fermi energy          =      -2.00244567 eV
                        (error :       0.34844567 eV)
     electrostatic embedding   =      -3.49548114 Ry
     cavitation energy         =       0.03399560 Ry
     electrolyte free energy   =      -0.04246157 Ry
     correction to one-el term =     182.13612120 Ry

     iteration # 15     ecut=    80.00 Ry     beta= 0.20
     Davidson diagonalization with overlap

---- Real-time Memory Report at c_bands before calling an iterative solver
           819 MiB given to the printing process from OS
             0 MiB allocation reported by mallinfo(arena+hblkhd)
        211527 MiB available memory on the node where the printing process lives
------------------
     ethr =  4.34E-07,  avg # of iterations = 13.9

     negative rho (up, down):  5.951E-04 0.000E+00

     add environment contribution to local potential

     total cpu time spent up to now is     1276.1 secs

     total energy              =    -782.19069943 Ry
     estimated scf accuracy    <       0.00193257 Ry

     total charge of GC-SCF    =      -5.93541236 e
     the Fermi energy          =      -1.91482467 eV
                        (error :       0.26082467 eV)
     electrostatic embedding   =      -3.85546753 Ry
     cavitation energy         =       0.03399560 Ry
     electrolyte free energy   =      -0.05070547 Ry
     correction to one-el term =     190.60607837 Ry

     iteration # 16     ecut=    80.00 Ry     beta= 0.20
     Davidson diagonalization with overlap

---- Real-time Memory Report at c_bands before calling an iterative solver
           819 MiB given to the printing process from OS
             0 MiB allocation reported by mallinfo(arena+hblkhd)
        211506 MiB available memory on the node where the printing process lives
------------------
     ethr =  4.34E-07,  avg # of iterations = 12.7

     negative rho (up, down):  5.620E-04 0.000E+00

     add environment contribution to local potential

     total cpu time spent up to now is     1334.0 secs

     total energy              =    -782.21488470 Ry
     estimated scf accuracy    <       0.00025667 Ry

     total charge of GC-SCF    =      -6.71865015 e
     the Fermi energy          =      -1.96189540 eV
                        (error :       0.30789540 eV)
     electrostatic embedding   =      -4.25589737 Ry
     cavitation energy         =       0.03399560 Ry
     electrolyte free energy   =      -0.05871445 Ry
     correction to one-el term =     199.41620592 Ry

     iteration # 17     ecut=    80.00 Ry     beta= 0.20
     Davidson diagonalization with overlap

---- Real-time Memory Report at c_bands before calling an iterative solver
           819 MiB given to the printing process from OS
             0 MiB allocation reported by mallinfo(arena+hblkhd)
        211430 MiB available memory on the node where the printing process lives
------------------
     ethr =  1.58E-07,  avg # of iterations = 28.1

     negative rho (up, down):  5.322E-04 0.000E+00

     add environment contribution to local potential

     total cpu time spent up to now is     1428.2 secs

     total energy              =    -782.23788639 Ry
     estimated scf accuracy    <       0.00027187 Ry

     total charge of GC-SCF    =      -6.75851297 e
     the Fermi energy          =      -1.82705953 eV
                        (error :       0.17305953 eV)
     electrostatic embedding   =      -5.31282055 Ry
     cavitation energy         =       0.03399560 Ry
     electrolyte free energy   =      -0.08526613 Ry
     correction to one-el term =     222.09283493 Ry

     iteration # 18     ecut=    80.00 Ry     beta= 0.20
     Davidson diagonalization with overlap

---- Real-time Memory Report at c_bands before calling an iterative solver
           819 MiB given to the printing process from OS
             0 MiB allocation reported by mallinfo(arena+hblkhd)
        211392 MiB available memory on the node where the printing process lives
------------------
     ethr =  1.58E-07,  avg # of iterations = 13.0

     negative rho (up, down):  4.994E-04 0.000E+00

     add environment contribution to local potential

     total cpu time spent up to now is     1487.7 secs

     total energy              =    -782.25676456 Ry
     estimated scf accuracy    <       0.00010929 Ry

     total charge of GC-SCF    =      -7.56407532 e
     the Fermi energy          =      -1.85458258 eV
                        (error :       0.20058258 eV)
     electrostatic embedding   =      -5.32861990 Ry
     cavitation energy         =       0.03399560 Ry
     electrolyte free energy   =      -0.08626506 Ry
     correction to one-el term =     221.39837590 Ry

     iteration # 19     ecut=    80.00 Ry     beta= 0.20
     Davidson diagonalization with overlap

---- Real-time Memory Report at c_bands before calling an iterative solver
           819 MiB given to the printing process from OS
             0 MiB allocation reported by mallinfo(arena+hblkhd)
        211409 MiB available memory on the node where the printing process lives
------------------
     ethr =  6.68E-08,  avg # of iterations = 24.4

     negative rho (up, down):  4.788E-04 0.000E+00

     add environment contribution to local potential

     total cpu time spent up to now is     1571.6 secs

     total energy              =    -782.24662022 Ry
     estimated scf accuracy    <       0.00008440 Ry

     total charge of GC-SCF    =      -7.67233833 e
     the Fermi energy          =      -1.71412288 eV
                        (error :       0.06012288 eV)
     electrostatic embedding   =      -6.51826252 Ry
     cavitation energy         =       0.03399560 Ry
     electrolyte free energy   =      -0.12151182 Ry
     correction to one-el term =     243.91362813 Ry

     iteration # 20     ecut=    80.00 Ry     beta= 0.20
     Davidson diagonalization with overlap

---- Real-time Memory Report at c_bands before calling an iterative solver
           819 MiB given to the printing process from OS
             0 MiB allocation reported by mallinfo(arena+hblkhd)
        211293 MiB available memory on the node where the printing process lives
------------------
     ethr =  5.16E-08,  avg # of iterations = 11.5

     negative rho (up, down):  4.627E-04 0.000E+00

     add environment contribution to local potential

     total cpu time spent up to now is     1624.8 secs

     total energy              =    -782.25132175 Ry
     estimated scf accuracy    <       0.00004897 Ry

     total charge of GC-SCF    =      -7.56500689 e
     the Fermi energy          =      -1.70317667 eV
                        (error :       0.04917667 eV)
     electrostatic embedding   =      -6.67418547 Ry
     cavitation energy         =       0.03399560 Ry
     electrolyte free energy   =      -0.12679214 Ry
     correction to one-el term =     246.45408966 Ry

     iteration # 21     ecut=    80.00 Ry     beta= 0.20
     Davidson diagonalization with overlap

---- Real-time Memory Report at c_bands before calling an iterative solver
           819 MiB given to the printing process from OS
             0 MiB allocation reported by mallinfo(arena+hblkhd)
        211321 MiB available memory on the node where the printing process lives
------------------
     ethr =  2.99E-08,  avg # of iterations = 12.1

     negative rho (up, down):  4.468E-04 0.000E+00

     add environment contribution to local potential

     total cpu time spent up to now is     1685.5 secs

     total energy              =    -782.24922378 Ry
     estimated scf accuracy    <       0.00003130 Ry

     total charge of GC-SCF    =      -7.84304799 e
     the Fermi energy          =      -1.73170505 eV
                        (error :       0.07770505 eV)
     electrostatic embedding   =      -6.47274048 Ry
     cavitation energy         =       0.03399560 Ry
     electrolyte free energy   =      -0.12115488 Ry
     correction to one-el term =     242.14065301 Ry

     iteration # 22     ecut=    80.00 Ry     beta= 0.20
     Davidson diagonalization with overlap

---- Real-time Memory Report at c_bands before calling an iterative solver
           819 MiB given to the printing process from OS
             0 MiB allocation reported by mallinfo(arena+hblkhd)
        211267 MiB available memory on the node where the printing process lives
------------------
     ethr =  1.91E-08,  avg # of iterations = 19.5

     negative rho (up, down):  4.391E-04 0.000E+00

     add environment contribution to local potential

     total cpu time spent up to now is     1755.3 secs

     total energy              =    -782.24912681 Ry
     estimated scf accuracy    <       0.00001493 Ry

     total charge of GC-SCF    =      -7.89780000 e
     the Fermi energy          =      -1.68965570 eV
                        (error :       0.03565570 eV)
     electrostatic embedding   =      -6.87626971 Ry
     cavitation energy         =       0.03399560 Ry
     electrolyte free energy   =      -0.13516076 Ry
     correction to one-el term =     248.60546738 Ry

     iteration # 23     ecut=    80.00 Ry     beta= 0.20
     Davidson diagonalization with overlap

---- Real-time Memory Report at c_bands before calling an iterative solver
           819 MiB given to the printing process from OS
             0 MiB allocation reported by mallinfo(arena+hblkhd)
        211287 MiB available memory on the node where the printing process lives
------------------
     ethr =  9.11E-09,  avg # of iterations = 14.1

     negative rho (up, down):  4.319E-04 0.000E+00

     add environment contribution to local potential

     total cpu time spent up to now is     1819.9 secs

     total energy              =    -782.24941498 Ry
     estimated scf accuracy    <       0.00001071 Ry

     total charge of GC-SCF    =      -7.96764450 e
     the Fermi energy          =      -1.68072587 eV
                        (error :       0.02672587 eV)
     electrostatic embedding   =      -6.95326924 Ry
     cavitation energy         =       0.03399560 Ry
     electrolyte free energy   =      -0.13804899 Ry
     correction to one-el term =     249.77370248 Ry

     iteration # 24     ecut=    80.00 Ry     beta= 0.20
     Davidson diagonalization with overlap

---- Real-time Memory Report at c_bands before calling an iterative solver
           819 MiB given to the printing process from OS
             0 MiB allocation reported by mallinfo(arena+hblkhd)
        211312 MiB available memory on the node where the printing process lives
------------------
     ethr =  6.53E-09,  avg # of iterations = 17.4

     negative rho (up, down):  4.258E-04 0.000E+00

     add environment contribution to local potential

     total cpu time spent up to now is     1895.0 secs

     total energy              =    -782.25017945 Ry
     estimated scf accuracy    <       0.00000577 Ry

     total charge of GC-SCF    =      -8.07533141 e
     the Fermi energy          =      -1.67023010 eV
                        (error :       0.01623010 eV)
     electrostatic embedding   =      -7.05114315 Ry
     cavitation energy         =       0.03399560 Ry
     electrolyte free energy   =      -0.14179385 Ry
     correction to one-el term =     251.22771375 Ry

     iteration # 25     ecut=    80.00 Ry     beta= 0.20
     Davidson diagonalization with overlap

---- Real-time Memory Report at c_bands before calling an iterative solver
           819 MiB given to the printing process from OS
             0 MiB allocation reported by mallinfo(arena+hblkhd)
        211298 MiB available memory on the node where the printing process lives
------------------
     ethr =  3.52E-09,  avg # of iterations = 18.4

     negative rho (up, down):  4.232E-04 0.000E+00

     add environment contribution to local potential

     total cpu time spent up to now is     1962.9 secs

     total energy              =    -782.24976408 Ry
     estimated scf accuracy    <       0.00000285 Ry

     total charge of GC-SCF    =      -8.06293065 e
     the Fermi energy          =      -1.65371759 eV
                        (error :       0.00028241 eV)
     electrostatic embedding   =      -7.21172652 Ry
     cavitation energy         =       0.03399560 Ry
     electrolyte free energy   =      -0.14777002 Ry
     correction to one-el term =     253.71785071 Ry

     iteration # 26     ecut=    80.00 Ry     beta= 0.20
     Davidson diagonalization with overlap

---- Real-time Memory Report at c_bands before calling an iterative solver
           819 MiB given to the printing process from OS
             0 MiB allocation reported by mallinfo(arena+hblkhd)
        211228 MiB available memory on the node where the printing process lives
------------------
     ethr =  1.74E-09,  avg # of iterations = 12.2

     negative rho (up, down):  4.204E-04 0.000E+00

     add environment contribution to local potential

     total cpu time spent up to now is     2023.8 secs

     total energy              =    -782.24979499 Ry
     estimated scf accuracy    <       0.00000164 Ry

     total charge of GC-SCF    =      -8.08800555 e
     the Fermi energy          =      -1.65588921 eV
                        (error :       0.00188921 eV)
     electrostatic embedding   =      -7.18896722 Ry
     cavitation energy         =       0.03399560 Ry
     electrolyte free energy   =      -0.14705252 Ry
     correction to one-el term =     253.31656321 Ry

     iteration # 27     ecut=    80.00 Ry     beta= 0.20
     Davidson diagonalization with overlap

---- Real-time Memory Report at c_bands before calling an iterative solver
           819 MiB given to the printing process from OS
             0 MiB allocation reported by mallinfo(arena+hblkhd)
        211234 MiB available memory on the node where the printing process lives
------------------
     ethr =  9.98E-10,  avg # of iterations = 14.6

     negative rho (up, down):  4.184E-04 0.000E+00

     add environment contribution to local potential

     total cpu time spent up to now is     2088.3 secs

     total energy              =    -782.24976447 Ry
     estimated scf accuracy    <       0.00000077 Ry

     total charge of GC-SCF    =      -8.09523626 e
     the Fermi energy          =      -1.65196790 eV
                        (error :       0.00203210 eV)
     electrostatic embedding   =      -7.22503165 Ry
     cavitation energy         =       0.03399560 Ry
     electrolyte free energy   =      -0.14846086 Ry
     correction to one-el term =     253.84517786 Ry

     iteration # 28     ecut=    80.00 Ry     beta= 0.20
     Davidson diagonalization with overlap

---- Real-time Memory Report at c_bands before calling an iterative solver
           819 MiB given to the printing process from OS
             0 MiB allocation reported by mallinfo(arena+hblkhd)
        211258 MiB available memory on the node where the printing process lives
------------------
     ethr =  4.67E-10,  avg # of iterations = 13.6

     negative rho (up, down):  4.173E-04 0.000E+00

     add environment contribution to local potential

     total cpu time spent up to now is     2157.0 secs

     total energy              =    -782.24975851 Ry
     estimated scf accuracy    <       0.00000035 Ry

     total charge of GC-SCF    =      -8.09639321 e
     the Fermi energy          =      -1.65100950 eV
                        (error :       0.00299050 eV)
     electrostatic embedding   =      -7.23535506 Ry
     cavitation energy         =       0.03399560 Ry
     electrolyte free energy   =      -0.14886698 Ry
     correction to one-el term =     253.99420214 Ry

     iteration # 29     ecut=    80.00 Ry     beta= 0.20
     Davidson diagonalization with overlap

---- Real-time Memory Report at c_bands before calling an iterative solver
           819 MiB given to the printing process from OS
             0 MiB allocation reported by mallinfo(arena+hblkhd)
        211224 MiB available memory on the node where the printing process lives
------------------
     ethr =  2.12E-10,  avg # of iterations = 12.2

     negative rho (up, down):  4.163E-04 0.000E+00

     add environment contribution to local potential

     total cpu time spent up to now is     2218.1 secs

     total energy              =    -782.24977195 Ry
     estimated scf accuracy    <       0.00000018 Ry

     total charge of GC-SCF    =      -8.10529086 e
     the Fermi energy          =      -1.65049072 eV
                        (error :       0.00350928 eV)
     electrostatic embedding   =      -7.23881355 Ry
     cavitation energy         =       0.03399560 Ry
     electrolyte free energy   =      -0.14894324 Ry
     correction to one-el term =     254.07333456 Ry

     iteration # 30     ecut=    80.00 Ry     beta= 0.20
     Davidson diagonalization with overlap

---- Real-time Memory Report at c_bands before calling an iterative solver
           819 MiB given to the printing process from OS
             0 MiB allocation reported by mallinfo(arena+hblkhd)
        211226 MiB available memory on the node where the printing process lives
------------------
     ethr =  1.09E-10,  avg # of iterations = 15.7

     negative rho (up, down):  4.159E-04 0.000E+00

     add environment contribution to local potential

     total cpu time spent up to now is     2293.5 secs

     total energy              =    -782.24974582 Ry
     estimated scf accuracy    <       0.00000022 Ry

     total charge of GC-SCF    =      -8.09578978 e
     the Fermi energy          =      -1.64962346 eV
                        (error :       0.00437654 eV)
     electrostatic embedding   =      -7.25393342 Ry
     cavitation energy         =       0.03399560 Ry
     electrolyte free energy   =      -0.14945242 Ry
     correction to one-el term =     254.32561009 Ry

     iteration # 31     ecut=    80.00 Ry     beta= 0.20
     Davidson diagonalization with overlap

---- Real-time Memory Report at c_bands before calling an iterative solver
           819 MiB given to the printing process from OS
             0 MiB allocation reported by mallinfo(arena+hblkhd)
        211271 MiB available memory on the node where the printing process lives
------------------
     ethr =  1.09E-10,  avg # of iterations = 12.2

     negative rho (up, down):  4.153E-04 0.000E+00

     add environment contribution to local potential

     total cpu time spent up to now is     2353.3 secs

     total energy              =    -782.24975325 Ry
     estimated scf accuracy    <       0.00000010 Ry

     total charge of GC-SCF    =      -8.09343744 e
     the Fermi energy          =      -1.65086544 eV
                        (error :       0.00313456 eV)
     electrostatic embedding   =      -7.23979041 Ry
     cavitation energy         =       0.03399560 Ry
     electrolyte free energy   =      -0.14891455 Ry
     correction to one-el term =     254.11205245 Ry

     iteration # 32     ecut=    80.00 Ry     beta= 0.20
     Davidson diagonalization with overlap

---- Real-time Memory Report at c_bands before calling an iterative solver
           819 MiB given to the printing process from OS
             0 MiB allocation reported by mallinfo(arena+hblkhd)
        211260 MiB available memory on the node where the printing process lives
------------------
     ethr =  6.27E-11,  avg # of iterations = 12.1

     negative rho (up, down):  4.149E-04 0.000E+00

     add environment contribution to local potential

     total cpu time spent up to now is     2414.3 secs

     total energy              =    -782.24975498 Ry
     estimated scf accuracy    <       0.00000008 Ry

     total charge of GC-SCF    =      -8.08880274 e
     the Fermi energy          =      -1.65158994 eV
                        (error :       0.00241006 eV)
     electrostatic embedding   =      -7.23576079 Ry
     cavitation energy         =       0.03399560 Ry
     electrolyte free energy   =      -0.14877404 Ry
     correction to one-el term =     254.03005954 Ry

     iteration # 33     ecut=    80.00 Ry     beta= 0.20
     Davidson diagonalization with overlap

---- Real-time Memory Report at c_bands before calling an iterative solver
           819 MiB given to the printing process from OS
             0 MiB allocation reported by mallinfo(arena+hblkhd)
        211273 MiB available memory on the node where the printing process lives
------------------
     ethr =  5.06E-11,  avg # of iterations = 11.6

     negative rho (up, down):  4.145E-04 0.000E+00

     add environment contribution to local potential

     total cpu time spent up to now is     2473.2 secs

     total energy              =    -782.24976130 Ry
     estimated scf accuracy    <       0.00000003 Ry

     total charge of GC-SCF    =      -8.08026911 e
     the Fermi energy          =      -1.65236316 eV
                        (error :       0.00163684 eV)
     electrostatic embedding   =      -7.22790897 Ry
     cavitation energy         =       0.03399560 Ry
     electrolyte free energy   =      -0.14850510 Ry
     correction to one-el term =     253.88559856 Ry

     iteration # 34     ecut=    80.00 Ry     beta= 0.20
     Davidson diagonalization with overlap

---- Real-time Memory Report at c_bands before calling an iterative solver
           819 MiB given to the printing process from OS
             0 MiB allocation reported by mallinfo(arena+hblkhd)
        211270 MiB available memory on the node where the printing process lives
------------------
     ethr =  1.69E-11,  avg # of iterations = 21.4

     negative rho (up, down):  4.140E-04 0.000E+00

     add environment contribution to local potential

     total cpu time spent up to now is     2552.8 secs

     total energy              =    -782.24976255 Ry
     estimated scf accuracy    <          8.2E-09 Ry

     total charge of GC-SCF    =      -8.08118623 e
     the Fermi energy          =      -1.65374445 eV
                        (error :       0.00025555 eV)
     electrostatic embedding   =      -7.21404033 Ry
     cavitation energy         =       0.03399560 Ry
     electrolyte free energy   =      -0.14801587 Ry
     correction to one-el term =     253.65024469 Ry

     iteration # 35     ecut=    80.00 Ry     beta= 0.20
     Davidson diagonalization with overlap

---- Real-time Memory Report at c_bands before calling an iterative solver
           819 MiB given to the printing process from OS
             0 MiB allocation reported by mallinfo(arena+hblkhd)
        211152 MiB available memory on the node where the printing process lives
------------------
     ethr =  4.97E-12,  avg # of iterations = 14.4

     negative rho (up, down):  4.138E-04 0.000E+00

     add environment contribution to local potential

     total cpu time spent up to now is     2620.6 secs

     total energy              =    -782.24976225 Ry
     estimated scf accuracy    <          3.5E-09 Ry

     total charge of GC-SCF    =      -8.07995265 e
     the Fermi energy          =      -1.65364925 eV
                        (error :       0.00035075 eV)
     electrostatic embedding   =      -7.21516573 Ry
     cavitation energy         =       0.03399560 Ry
     electrolyte free energy   =      -0.14806593 Ry
     correction to one-el term =     253.66218219 Ry

     iteration # 36     ecut=    80.00 Ry     beta= 0.20
     Davidson diagonalization with overlap

---- Real-time Memory Report at c_bands before calling an iterative solver
           819 MiB given to the printing process from OS
             0 MiB allocation reported by mallinfo(arena+hblkhd)
        211212 MiB available memory on the node where the printing process lives
------------------
     ethr =  2.15E-12,  avg # of iterations = 12.1

     negative rho (up, down):  4.136E-04 0.000E+00

     add environment contribution to local potential

     total cpu time spent up to now is     2682.8 secs

     total energy              =    -782.24976269 Ry
     estimated scf accuracy    <          2.0E-09 Ry

     total charge of GC-SCF    =      -8.08012193 e
     the Fermi energy          =      -1.65381758 eV
                        (error :       0.00018242 eV)
     electrostatic embedding   =      -7.21312914 Ry
     cavitation energy         =       0.03399560 Ry
     electrolyte free energy   =      -0.14799531 Ry
     correction to one-el term =     253.62725510 Ry

     iteration # 37     ecut=    80.00 Ry     beta= 0.20
     Davidson diagonalization with overlap

---- Real-time Memory Report at c_bands before calling an iterative solver
           819 MiB given to the printing process from OS
             0 MiB allocation reported by mallinfo(arena+hblkhd)
        211224 MiB available memory on the node where the printing process lives
------------------
     ethr =  1.20E-12,  avg # of iterations = 14.5

     negative rho (up, down):  4.134E-04 0.000E+00

     add environment contribution to local potential

     total cpu time spent up to now is     2748.7 secs

     total energy              =    -782.24976270 Ry
     estimated scf accuracy    <          8.5E-10 Ry

     total charge of GC-SCF    =      -8.07977181 e
     the Fermi energy          =      -1.65381583 eV
                        (error :       0.00018417 eV)
     electrostatic embedding   =      -7.21332231 Ry
     cavitation energy         =       0.03399560 Ry
     electrolyte free energy   =      -0.14800417 Ry
     correction to one-el term =     253.62868346 Ry

     iteration # 38     ecut=    80.00 Ry     beta= 0.20
     Davidson diagonalization with overlap

---- Real-time Memory Report at c_bands before calling an iterative solver
           819 MiB given to the printing process from OS
             0 MiB allocation reported by mallinfo(arena+hblkhd)
        211175 MiB available memory on the node where the printing process lives
------------------
     c_bands:  1 eigenvalues not converged
     ethr =  5.16E-13,  avg # of iterations = 21.4

     negative rho (up, down):  4.133E-04 0.000E+00

     add environment contribution to local potential

     total cpu time spent up to now is     2832.3 secs

     total energy              =    -782.24976283 Ry
     estimated scf accuracy    <          4.9E-10 Ry

     total charge of GC-SCF    =      -8.07905773 e
     the Fermi energy          =      -1.65386733 eV
                        (error :       0.00013267 eV)
     electrostatic embedding   =      -7.21275877 Ry
     cavitation energy         =       0.03399560 Ry
     electrolyte free energy   =      -0.14798406 Ry
     correction to one-el term =     253.61892609 Ry

     iteration # 39     ecut=    80.00 Ry     beta= 0.20
     Davidson diagonalization with overlap

---- Real-time Memory Report at c_bands before calling an iterative solver
           819 MiB given to the printing process from OS
             0 MiB allocation reported by mallinfo(arena+hblkhd)
        211159 MiB available memory on the node where the printing process lives
------------------
     ethr =  2.99E-13,  avg # of iterations = 21.1

     negative rho (up, down):  4.132E-04 0.000E+00

     add environment contribution to local potential

     total cpu time spent up to now is     2912.9 secs

     total energy              =    -782.24976303 Ry
     estimated scf accuracy    <          1.8E-10 Ry

     total charge of GC-SCF    =      -8.07872543 e
     the Fermi energy          =      -1.65396972 eV
                        (error :       0.00003028 eV)
     electrostatic embedding   =      -7.21167893 Ry
     cavitation energy         =       0.03399560 Ry
     electrolyte free energy   =      -0.14794362 Ry
     correction to one-el term =     253.60208342 Ry

     iteration # 40     ecut=    80.00 Ry     beta= 0.20
     Davidson diagonalization with overlap

---- Real-time Memory Report at c_bands before calling an iterative solver
           819 MiB given to the printing process from OS
             0 MiB allocation reported by mallinfo(arena+hblkhd)
        211220 MiB available memory on the node where the printing process lives
------------------
     ethr =  1.12E-13,  avg # of iterations = 27.8

     negative rho (up, down):  4.131E-04 0.000E+00

     add environment contribution to local potential

     total cpu time spent up to now is     3010.7 secs

     total energy              =    -782.24976311 Ry
     estimated scf accuracy    <          1.2E-10 Ry

     total charge of GC-SCF    =      -8.07887530 e
     the Fermi energy          =      -1.65401207 eV
                        (error :       0.00001207 eV)
     electrostatic embedding   =      -7.21119400 Ry
     cavitation energy         =       0.03399560 Ry
     electrolyte free energy   =      -0.14792494 Ry
     correction to one-el term =     253.59484192 Ry

     iteration # 41     ecut=    80.00 Ry     beta= 0.20
     Davidson diagonalization with overlap

---- Real-time Memory Report at c_bands before calling an iterative solver
           819 MiB given to the printing process from OS
             0 MiB allocation reported by mallinfo(arena+hblkhd)
        211203 MiB available memory on the node where the printing process lives
------------------
     ethr =  1.00E-13,  avg # of iterations = 23.4

     negative rho (up, down):  4.130E-04 0.000E+00

     add environment contribution to local potential

     total cpu time spent up to now is     3103.8 secs

     total energy              =    -782.24976305 Ry
     estimated scf accuracy    <          6.8E-11 Ry

     total charge of GC-SCF    =      -8.07880831 e
     the Fermi energy          =      -1.65399460 eV
                        (error :       0.00000540 eV)
     electrostatic embedding   =      -7.21147208 Ry
     cavitation energy         =       0.03399560 Ry
     electrolyte free energy   =      -0.14793364 Ry
     correction to one-el term =     253.60026134 Ry

     iteration # 42     ecut=    80.00 Ry     beta= 0.20
     Davidson diagonalization with overlap

---- Real-time Memory Report at c_bands before calling an iterative solver
           819 MiB given to the printing process from OS
             0 MiB allocation reported by mallinfo(arena+hblkhd)
        211170 MiB available memory on the node where the printing process lives
------------------
     ethr =  1.00E-13,  avg # of iterations = 26.0

     negative rho (up, down):  4.130E-04 0.000E+00

     add environment contribution to local potential

     total cpu time spent up to now is     3198.8 secs

     total energy              =    -782.24976305 Ry
     estimated scf accuracy    <          2.7E-11 Ry

     total charge of GC-SCF    =      -8.07883479 e
     the Fermi energy          =      -1.65399355 eV
                        (error :       0.00000645 eV)
     electrostatic embedding   =      -7.21137843 Ry
     cavitation energy         =       0.03399560 Ry
     electrolyte free energy   =      -0.14792997 Ry
     correction to one-el term =     253.59904243 Ry

     iteration # 43     ecut=    80.00 Ry     beta= 0.20
     Davidson diagonalization with overlap

---- Real-time Memory Report at c_bands before calling an iterative solver
           819 MiB given to the printing process from OS
             0 MiB allocation reported by mallinfo(arena+hblkhd)
        211158 MiB available memory on the node where the printing process lives
------------------
     ethr =  1.00E-13,  avg # of iterations = 21.2

     negative rho (up, down):  4.129E-04 0.000E+00

     add environment contribution to local potential

     total cpu time spent up to now is     3278.1 secs

     total energy              =    -782.24976304 Ry
     estimated scf accuracy    <          1.7E-11 Ry

     total charge of GC-SCF    =      -8.07881690 e
     the Fermi energy          =      -1.65398975 eV
                        (error :       0.00001025 eV)
     electrostatic embedding   =      -7.21143852 Ry
     cavitation energy         =       0.03399560 Ry
     electrolyte free energy   =      -0.14793158 Ry
     correction to one-el term =     253.60041601 Ry

     iteration # 44     ecut=    80.00 Ry     beta= 0.20
     Davidson diagonalization with overlap

---- Real-time Memory Report at c_bands before calling an iterative solver
           819 MiB given to the printing process from OS
             0 MiB allocation reported by mallinfo(arena+hblkhd)
        211148 MiB available memory on the node where the printing process lives
------------------
     ethr =  1.00E-13,  avg # of iterations = 20.2

     negative rho (up, down):  4.129E-04 0.000E+00

     add environment contribution to local potential

     total cpu time spent up to now is     3356.0 secs

     total energy              =    -782.24976303 Ry
     estimated scf accuracy    <          6.7E-12 Ry

     total charge of GC-SCF    =      -8.07874881 e
     the Fermi energy          =      -1.65399114 eV
                        (error :       0.00000886 eV)
     electrostatic embedding   =      -7.21142447 Ry
     cavitation energy         =       0.03399560 Ry
     electrolyte free energy   =      -0.14793065 Ry
     correction to one-el term =     253.60047248 Ry

     iteration # 45     ecut=    80.00 Ry     beta= 0.20
     Davidson diagonalization with overlap

---- Real-time Memory Report at c_bands before calling an iterative solver
           819 MiB given to the printing process from OS
             0 MiB allocation reported by mallinfo(arena+hblkhd)
        211171 MiB available memory on the node where the printing process lives
------------------
     ethr =  1.00E-13,  avg # of iterations = 20.4

     negative rho (up, down):  4.129E-04 0.000E+00

     add environment contribution to local potential

     total cpu time spent up to now is     3432.7 secs

     total energy              =    -782.24976305 Ry
     estimated scf accuracy    <          1.7E-12 Ry

     total charge of GC-SCF    =      -8.07873716 e
     the Fermi energy          =      -1.65400063 eV
                        (error :       0.00000063 eV)
     electrostatic embedding   =      -7.21131946 Ry
     cavitation energy         =       0.03399560 Ry
     electrolyte free energy   =      -0.14792680 Ry
     correction to one-el term =     253.59878477 Ry

     iteration # 46     ecut=    80.00 Ry     beta= 0.20
     Davidson diagonalization with overlap

---- Real-time Memory Report at c_bands before calling an iterative solver
           819 MiB given to the printing process from OS
             0 MiB allocation reported by mallinfo(arena+hblkhd)
        211152 MiB available memory on the node where the printing process lives
------------------
     ethr =  1.00E-13,  avg # of iterations = 21.9

     negative rho (up, down):  4.129E-04 0.000E+00

     add environment contribution to local potential

     total cpu time spent up to now is     3508.8 secs

     total energy              =    -782.24976305 Ry
     estimated scf accuracy    <          9.4E-13 Ry

     total charge of GC-SCF    =      -8.07873164 e
     the Fermi energy          =      -1.65400278 eV
                        (error :       0.00000278 eV)
     electrostatic embedding   =      -7.21130046 Ry
     cavitation energy         =       0.03399560 Ry
     electrolyte free energy   =      -0.14792613 Ry
     correction to one-el term =     253.59845664 Ry

     iteration # 47     ecut=    80.00 Ry     beta= 0.20
     Davidson diagonalization with overlap

---- Real-time Memory Report at c_bands before calling an iterative solver
           819 MiB given to the printing process from OS
             0 MiB allocation reported by mallinfo(arena+hblkhd)
        211216 MiB available memory on the node where the printing process lives
------------------
     ethr =  1.00E-13,  avg # of iterations = 12.2

     negative rho (up, down):  4.128E-04 0.000E+00

     add environment contribution to local potential

     total cpu time spent up to now is     3565.9 secs

     total energy              =    -782.24976305 Ry
     estimated scf accuracy    <          7.2E-13 Ry

     total charge of GC-SCF    =      -8.07872919 e
     the Fermi energy          =      -1.65400316 eV
                        (error :       0.00000316 eV)
     electrostatic embedding   =      -7.21129152 Ry
     cavitation energy         =       0.03399560 Ry
     electrolyte free energy   =      -0.14792582 Ry
     correction to one-el term =     253.59830668 Ry

     iteration # 48     ecut=    80.00 Ry     beta= 0.20
     Davidson diagonalization with overlap

---- Real-time Memory Report at c_bands before calling an iterative solver
           819 MiB given to the printing process from OS
             0 MiB allocation reported by mallinfo(arena+hblkhd)
        211216 MiB available memory on the node where the printing process lives
------------------
     ethr =  1.00E-13,  avg # of iterations = 17.2

     negative rho (up, down):  4.128E-04 0.000E+00

     add environment contribution to local potential

     total cpu time spent up to now is     3630.9 secs

     total energy              =    -782.24976305 Ry
     estimated scf accuracy    <          6.1E-13 Ry

     total charge of GC-SCF    =      -8.07874861 e
     the Fermi energy          =      -1.65400285 eV
                        (error :       0.00000285 eV)
     electrostatic embedding   =      -7.21128762 Ry
     cavitation energy         =       0.03399560 Ry
     electrolyte free energy   =      -0.14792569 Ry
     correction to one-el term =     253.59824550 Ry

     iteration # 49     ecut=    80.00 Ry     beta= 0.20
     Davidson diagonalization with overlap

---- Real-time Memory Report at c_bands before calling an iterative solver
           819 MiB given to the printing process from OS
             0 MiB allocation reported by mallinfo(arena+hblkhd)
        211180 MiB available memory on the node where the printing process lives
------------------
     ethr =  1.00E-13,  avg # of iterations = 18.7

     negative rho (up, down):  4.128E-04 0.000E+00

     add environment contribution to local potential

     total cpu time spent up to now is     3703.3 secs

     total energy              =    -782.24976305 Ry
     estimated scf accuracy    <          2.0E-13 Ry

     total charge of GC-SCF    =      -8.07875558 e
     the Fermi energy          =      -1.65400088 eV
                        (error :       0.00000088 eV)
     electrostatic embedding   =      -7.21131875 Ry
     cavitation energy         =       0.03399560 Ry
     electrolyte free energy   =      -0.14792679 Ry
     correction to one-el term =     253.59876729 Ry

     iteration # 50     ecut=    80.00 Ry     beta= 0.20
     Davidson diagonalization with overlap

---- Real-time Memory Report at c_bands before calling an iterative solver
           819 MiB given to the printing process from OS
             0 MiB allocation reported by mallinfo(arena+hblkhd)
        211208 MiB available memory on the node where the printing process lives
------------------
     ethr =  1.00E-13,  avg # of iterations = 13.1

     negative rho (up, down):  4.128E-04 0.000E+00

     add environment contribution to local potential

     total cpu time spent up to now is     3764.0 secs

     total energy              =    -782.24976304 Ry
     estimated scf accuracy    <          7.0E-14 Ry

     total charge of GC-SCF    =      -8.07875455 e
     the Fermi energy          =      -1.65399941 eV
                        (error :       0.00000059 eV)
     electrostatic embedding   =      -7.21132979 Ry
     cavitation energy         =       0.03399560 Ry
     electrolyte free energy   =      -0.14792719 Ry
     correction to one-el term =     253.59895536 Ry

     iteration # 51     ecut=    80.00 Ry     beta= 0.20
     Davidson diagonalization with overlap

---- Real-time Memory Report at c_bands before calling an iterative solver
           819 MiB given to the printing process from OS
             0 MiB allocation reported by mallinfo(arena+hblkhd)
        211184 MiB available memory on the node where the printing process lives
------------------
     ethr =  1.00E-13,  avg # of iterations = 11.2

     negative rho (up, down):  4.128E-04 0.000E+00

     add environment contribution to local potential

     total cpu time spent up to now is     3820.4 secs

     total energy              =    -782.24976304 Ry
     estimated scf accuracy    <          3.8E-14 Ry

     total charge of GC-SCF    =      -8.07875369 e
     the Fermi energy          =      -1.65399959 eV
                        (error :       0.00000041 eV)
     electrostatic embedding   =      -7.21132755 Ry
     cavitation energy         =       0.03399560 Ry
     electrolyte free energy   =      -0.14792713 Ry
     correction to one-el term =     253.59890630 Ry

     iteration # 52     ecut=    80.00 Ry     beta= 0.20
     Davidson diagonalization with overlap

---- Real-time Memory Report at c_bands before calling an iterative solver
           819 MiB given to the printing process from OS
             0 MiB allocation reported by mallinfo(arena+hblkhd)
        211260 MiB available memory on the node where the printing process lives
------------------
     ethr =  1.00E-13,  avg # of iterations = 12.5

     negative rho (up, down):  4.128E-04 0.000E+00

     add environment contribution to local potential

     total cpu time spent up to now is     3874.6 secs

     total energy              =    -782.24976305 Ry
     estimated scf accuracy    <          2.0E-14 Ry

     total charge of GC-SCF    =      -8.07875266 e
     the Fermi energy          =      -1.65399982 eV
                        (error :       0.00000018 eV)
     electrostatic embedding   =      -7.21132571 Ry
     cavitation energy         =       0.03399560 Ry
     electrolyte free energy   =      -0.14792708 Ry
     correction to one-el term =     253.59886643 Ry

     iteration # 53     ecut=    80.00 Ry     beta= 0.20
     Davidson diagonalization with overlap

---- Real-time Memory Report at c_bands before calling an iterative solver
           819 MiB given to the printing process from OS
             0 MiB allocation reported by mallinfo(arena+hblkhd)
        211305 MiB available memory on the node where the printing process lives
------------------
     ethr =  1.00E-13,  avg # of iterations =  8.9

     negative rho (up, down):  4.128E-04 0.000E+00

     total cpu time spent up to now is     3912.6 secs

     End of self-consistent calculation

          k = 0.0000 0.0000 0.0000 (361215 PWs)   bands (ev):

   -48.6179 -48.6163 -48.6151 -48.6136 -48.4917 -48.4900 -48.4898 -48.4881
   -48.4535 -48.4531 -48.4518 -48.4514 -48.4350 -48.4340 -48.4339 -48.4329
   -48.4069 -48.4064 -48.4054 -48.4049 -48.2050 -48.2023 -48.2010 -48.1993
   -48.1987 -48.1958 -48.1948 -48.1947 -48.1916 -48.1908 -48.1903 -48.1893
[...]
     atom   50 type  1   force =    -0.00000394   -0.63344108  -12.81271392
     atom   51 type  1   force =    -0.00000573   -0.28927962   11.04736491
     atom   52 type  1   force =    -0.00000323    0.30385958    8.04574656
     The local contribution  to forces
     atom    1 type  1   force =     0.00000000    0.47059869  -11.56608833
     atom    2 type  1   force =     0.00000000    0.09125450   -7.02066368
     atom    3 type  1   force =    -0.00000000   -0.32715535   -9.82629152
     atom    4 type  1   force =    -0.00000000    0.06702122   -5.14171538
     atom    5 type  1   force =    -0.00000000    0.02643377   -0.51769846
     atom    6 type  1   force =    -0.00000000    0.10585628    4.09250203
     atom    7 type  1   force =     0.00000000   -0.06839198   -2.67962057
     atom    8 type  1   force =     0.00000000   -0.06520498    1.51979094
     atom    9 type  1   force =     0.00000000   -0.16800007    6.09579743
     atom   10 type  1   force =    -0.00000000   -0.27029701   10.89316571
     atom   11 type  1   force =    -0.00000000    0.28269423    7.90834010
     atom   12 type  1   force =     0.00000000   -0.25526852   12.23127922
     atom   13 type  1   force =    -0.00000000   -0.61110683  -12.73839858
     atom   14 type  1   force =    -0.00000024    0.16786612   -6.08839958
     atom   15 type  1   force =     0.00000003    0.06569170   -1.52119022
     atom   16 type  1   force =    -0.00000140   -0.10938263   -4.08646284
     atom   17 type  1   force =     0.00000183   -0.02690259    0.52157164
     atom   18 type  1   force =     0.00000120   -0.07002596    5.14590636
     atom   19 type  1   force =    -0.00000539    0.32341257    9.83263030
     atom   20 type  1   force =     0.00000005    0.06962653    2.66469081
     atom   21 type  1   force =     0.00000174   -0.08827315    7.01982253
     atom   22 type  1   force =     0.00000366   -0.46780278   11.57518627
     atom   23 type  1   force =     0.00000188    0.25991544  -12.22972382
     atom   24 type  1   force =    -0.00000294    0.61044149   12.73057459
     atom   25 type  1   force =    -0.00000493    0.26757800  -10.88894352
     atom   26 type  1   force =    -0.00000229   -0.28073147   -7.92677507
     atom   27 type  1   force =     0.00000096    0.47060532  -11.56609921
     atom   28 type  1   force =     0.00000096    0.09125214   -7.02067835
     atom   29 type  1   force =     0.00000096   -0.32715756   -9.82628117
     atom   30 type  1   force =     0.00000096    0.06702102   -5.14170141
     atom   31 type  1   force =     0.00000096    0.02643180   -0.51768896
     atom   32 type  1   force =     0.00000096    0.10585399    4.09251057
     atom   33 type  1   force =     0.00000096   -0.06839307   -2.67963423
     atom   34 type  1   force =     0.00000096   -0.06520292    1.51978266
     atom   35 type  1   force =     0.00000096   -0.16799915    6.09579022
     atom   36 type  1   force =     0.00000096   -0.27030091   10.89315984
     atom   37 type  1   force =     0.00000096    0.28270007    7.90835166
     atom   38 type  1   force =     0.00000096   -0.25526454   12.23129245
     atom   39 type  1   force =     0.00000097   -0.61110708  -12.73839363
     atom   40 type  1   force =     0.00000216    0.16786612   -6.08839958
     atom   41 type  1   force =     0.00000190    0.06569170   -1.52119022
     atom   42 type  1   force =     0.00000333   -0.10938263   -4.08646284
     atom   43 type  1   force =     0.00000009   -0.02690259    0.52157164
     atom   44 type  1   force =     0.00000072   -0.07002596    5.14590636
     atom   45 type  1   force =     0.00000732    0.32341257    9.83263030
     atom   46 type  1   force =     0.00000187    0.06962653    2.66469081
     atom   47 type  1   force =     0.00000018   -0.08827315    7.01982253
     atom   48 type  1   force =    -0.00000173   -0.46780278   11.57518627
     atom   49 type  1   force =     0.00000004    0.25991544  -12.22972382
     atom   50 type  1   force =     0.00000487    0.61044149   12.73057459
     atom   51 type  1   force =     0.00000685    0.26757800  -10.88894352
     atom   52 type  1   force =     0.00000422   -0.28073147   -7.92677507
     The core correction contribution to forces
     atom    1 type  1   force =     0.00000000    0.00000000    0.00000000
     atom    2 type  1   force =     0.00000000    0.00000000    0.00000000
     atom    3 type  1   force =     0.00000000    0.00000000    0.00000000
     atom    4 type  1   force =     0.00000000    0.00000000    0.00000000
     atom    5 type  1   force =     0.00000000    0.00000000    0.00000000
     atom    6 type  1   force =     0.00000000    0.00000000    0.00000000
     atom    7 type  1   force =     0.00000000    0.00000000    0.00000000
     atom    8 type  1   force =     0.00000000    0.00000000    0.00000000
     atom    9 type  1   force =     0.00000000    0.00000000    0.00000000
     atom   10 type  1   force =     0.00000000    0.00000000    0.00000000
     atom   11 type  1   force =     0.00000000    0.00000000    0.00000000
     atom   12 type  1   force =     0.00000000    0.00000000    0.00000000
     atom   13 type  1   force =     0.00000000    0.00000000    0.00000000
     atom   14 type  1   force =     0.00000000    0.00000000    0.00000000
     atom   15 type  1   force =     0.00000000    0.00000000    0.00000000
     atom   16 type  1   force =     0.00000000    0.00000000    0.00000000
     atom   17 type  1   force =     0.00000000    0.00000000    0.00000000
     atom   18 type  1   force =     0.00000000    0.00000000    0.00000000
     atom   19 type  1   force =     0.00000000    0.00000000    0.00000000
     atom   20 type  1   force =     0.00000000    0.00000000    0.00000000
     atom   21 type  1   force =     0.00000000    0.00000000    0.00000000
     atom   22 type  1   force =     0.00000000    0.00000000    0.00000000
     atom   23 type  1   force =     0.00000000    0.00000000    0.00000000
     atom   24 type  1   force =     0.00000000    0.00000000    0.00000000
     atom   25 type  1   force =     0.00000000    0.00000000    0.00000000
     atom   26 type  1   force =     0.00000000    0.00000000    0.00000000
     atom   27 type  1   force =     0.00000000    0.00000000    0.00000000
     atom   28 type  1   force =     0.00000000    0.00000000    0.00000000
     atom   29 type  1   force =     0.00000000    0.00000000    0.00000000
     atom   30 type  1   force =     0.00000000    0.00000000    0.00000000
     atom   31 type  1   force =     0.00000000    0.00000000    0.00000000
     atom   32 type  1   force =     0.00000000    0.00000000    0.00000000
     atom   33 type  1   force =     0.00000000    0.00000000    0.00000000
     atom   34 type  1   force =     0.00000000    0.00000000    0.00000000
     atom   35 type  1   force =     0.00000000    0.00000000    0.00000000
     atom   36 type  1   force =     0.00000000    0.00000000    0.00000000
     atom   37 type  1   force =     0.00000000    0.00000000    0.00000000
     atom   38 type  1   force =     0.00000000    0.00000000    0.00000000
     atom   39 type  1   force =     0.00000000    0.00000000    0.00000000
     atom   40 type  1   force =     0.00000000    0.00000000    0.00000000
     atom   41 type  1   force =     0.00000000    0.00000000    0.00000000
     atom   42 type  1   force =     0.00000000    0.00000000    0.00000000
     atom   43 type  1   force =     0.00000000    0.00000000    0.00000000
     atom   44 type  1   force =     0.00000000    0.00000000    0.00000000
     atom   45 type  1   force =     0.00000000    0.00000000    0.00000000
     atom   46 type  1   force =     0.00000000    0.00000000    0.00000000
     atom   47 type  1   force =     0.00000000    0.00000000    0.00000000
     atom   48 type  1   force =     0.00000000    0.00000000    0.00000000
     atom   49 type  1   force =     0.00000000    0.00000000    0.00000000
     atom   50 type  1   force =     0.00000000    0.00000000    0.00000000
     atom   51 type  1   force =     0.00000000    0.00000000    0.00000000
     atom   52 type  1   force =     0.00000000    0.00000000    0.00000000
     The Hubbard contrib.    to forces
     atom    1 type  1   force =     0.00000000    0.00000000    0.00000000
     atom    2 type  1   force =     0.00000000    0.00000000    0.00000000
     atom    3 type  1   force =     0.00000000    0.00000000    0.00000000
     atom    4 type  1   force =     0.00000000    0.00000000    0.00000000
     atom    5 type  1   force =     0.00000000    0.00000000    0.00000000
     atom    6 type  1   force =     0.00000000    0.00000000    0.00000000
     atom    7 type  1   force =     0.00000000    0.00000000    0.00000000
     atom    8 type  1   force =     0.00000000    0.00000000    0.00000000
     atom    9 type  1   force =     0.00000000    0.00000000    0.00000000
     atom   10 type  1   force =     0.00000000    0.00000000    0.00000000
     atom   11 type  1   force =     0.00000000    0.00000000    0.00000000
     atom   12 type  1   force =     0.00000000    0.00000000    0.00000000
     atom   13 type  1   force =     0.00000000    0.00000000    0.00000000
     atom   14 type  1   force =     0.00000000    0.00000000    0.00000000
     atom   15 type  1   force =     0.00000000    0.00000000    0.00000000
     atom   16 type  1   force =     0.00000000    0.00000000    0.00000000
     atom   17 type  1   force =     0.00000000    0.00000000    0.00000000
     atom   18 type  1   force =     0.00000000    0.00000000    0.00000000
     atom   19 type  1   force =     0.00000000    0.00000000    0.00000000
     atom   20 type  1   force =     0.00000000    0.00000000    0.00000000
     atom   21 type  1   force =     0.00000000    0.00000000    0.00000000
     atom   22 type  1   force =     0.00000000    0.00000000    0.00000000
     atom   23 type  1   force =     0.00000000    0.00000000    0.00000000
     atom   24 type  1   force =     0.00000000    0.00000000    0.00000000
     atom   25 type  1   force =     0.00000000    0.00000000    0.00000000
     atom   26 type  1   force =     0.00000000    0.00000000    0.00000000
     atom   27 type  1   force =     0.00000000    0.00000000    0.00000000
     atom   28 type  1   force =     0.00000000    0.00000000    0.00000000
     atom   29 type  1   force =     0.00000000    0.00000000    0.00000000
     atom   30 type  1   force =     0.00000000    0.00000000    0.00000000
     atom   31 type  1   force =     0.00000000    0.00000000    0.00000000
     atom   32 type  1   force =     0.00000000    0.00000000    0.00000000
     atom   33 type  1   force =     0.00000000    0.00000000    0.00000000
     atom   34 type  1   force =     0.00000000    0.00000000    0.00000000
     atom   35 type  1   force =     0.00000000    0.00000000    0.00000000
     atom   36 type  1   force =     0.00000000    0.00000000    0.00000000
     atom   37 type  1   force =     0.00000000    0.00000000    0.00000000
     atom   38 type  1   force =     0.00000000    0.00000000    0.00000000
     atom   39 type  1   force =     0.00000000    0.00000000    0.00000000
     atom   40 type  1   force =     0.00000000    0.00000000    0.00000000
     atom   41 type  1   force =     0.00000000    0.00000000    0.00000000
     atom   42 type  1   force =     0.00000000    0.00000000    0.00000000
     atom   43 type  1   force =     0.00000000    0.00000000    0.00000000
     atom   44 type  1   force =     0.00000000    0.00000000    0.00000000
     atom   45 type  1   force =     0.00000000    0.00000000    0.00000000
     atom   46 type  1   force =     0.00000000    0.00000000    0.00000000
     atom   47 type  1   force =     0.00000000    0.00000000    0.00000000
     atom   48 type  1   force =     0.00000000    0.00000000    0.00000000
     atom   49 type  1   force =     0.00000000    0.00000000    0.00000000
     atom   50 type  1   force =     0.00000000    0.00000000    0.00000000
     atom   51 type  1   force =     0.00000000    0.00000000    0.00000000
     atom   52 type  1   force =     0.00000000    0.00000000    0.00000000
     The SCF correction term to forces
     atom    1 type  1   force =    -0.00000000   -0.00000002    0.00000006
     atom    2 type  1   force =    -0.00000000    0.00000001    0.00000001
     atom    3 type  1   force =    -0.00000000    0.00000000    0.00000000
     atom    4 type  1   force =     0.00000000   -0.00000002    0.00000001
     atom    5 type  1   force =     0.00000000    0.00000000   -0.00000001
     atom    6 type  1   force =     0.00000000    0.00000002   -0.00000002
     atom    7 type  1   force =     0.00000000    0.00000001   -0.00000002
     atom    8 type  1   force =    -0.00000000   -0.00000002   -0.00000002
     atom    9 type  1   force =    -0.00000000   -0.00000002   -0.00000005
     atom   10 type  1   force =     0.00000000   -0.00000000   -0.00000007
     atom   11 type  1   force =    -0.00000000    0.00000000   -0.00000002
     atom   12 type  1   force =    -0.00000000    0.00000000   -0.00000004
     atom   13 type  1   force =     0.00000000    0.00000001    0.00000004
     atom   14 type  1   force =     0.00000000   -0.00000001    0.00000002
     atom   15 type  1   force =    -0.00000000    0.00000003   -0.00000001
     atom   16 type  1   force =    -0.00000000   -0.00000002   -0.00000001
     atom   17 type  1   force =     0.00000000   -0.00000002   -0.00000002
     atom   18 type  1   force =     0.00000000    0.00000001   -0.00000004
     atom   19 type  1   force =     0.00000000    0.00000001   -0.00000001
     atom   20 type  1   force =     0.00000000    0.00000001   -0.00000001
     atom   21 type  1   force =     0.00000000   -0.00000001   -0.00000002
     atom   22 type  1   force =     0.00000000    0.00000001   -0.00000008
     atom   23 type  1   force =    -0.00000000   -0.00000001    0.00000004
     atom   24 type  1   force =     0.00000000   -0.00000000   -0.00000003
     atom   25 type  1   force =    -0.00000000   -0.00000001    0.00000006
     atom   26 type  1   force =    -0.00000000    0.00000001    0.00000001
     atom   27 type  1   force =    -0.00000000   -0.00000002    0.00000007
     atom   28 type  1   force =     0.00000000    0.00000001    0.00000001
     atom   29 type  1   force =     0.00000000    0.00000001    0.00000000
     atom   30 type  1   force =     0.00000000   -0.00000002    0.00000001
     atom   31 type  1   force =     0.00000000    0.00000000   -0.00000001
     atom   32 type  1   force =    -0.00000000    0.00000002   -0.00000003
     atom   33 type  1   force =     0.00000000    0.00000001   -0.00000002
     atom   34 type  1   force =     0.00000000   -0.00000002   -0.00000002
     atom   35 type  1   force =    -0.00000000   -0.00000002   -0.00000004
     atom   36 type  1   force =     0.00000000   -0.00000000   -0.00000008
     atom   37 type  1   force =     0.00000000    0.00000000   -0.00000002
     atom   38 type  1   force =    -0.00000000    0.00000000   -0.00000003
     atom   39 type  1   force =     0.00000000    0.00000001    0.00000004
     atom   40 type  1   force =    -0.00000000   -0.00000001    0.00000002
     atom   41 type  1   force =     0.00000000    0.00000003   -0.00000001
     atom   42 type  1   force =     0.00000000   -0.00000002   -0.00000001
     atom   43 type  1   force =    -0.00000000   -0.00000002   -0.00000002
     atom   44 type  1   force =    -0.00000000    0.00000001   -0.00000004
     atom   45 type  1   force =    -0.00000000    0.00000001   -0.00000001
     atom   46 type  1   force =    -0.00000000    0.00000001   -0.00000001
     atom   47 type  1   force =    -0.00000000   -0.00000001   -0.00000002
     atom   48 type  1   force =    -0.00000000    0.00000001   -0.00000008
     atom   49 type  1   force =     0.00000000   -0.00000001    0.00000004
     atom   50 type  1   force =    -0.00000000   -0.00000000   -0.00000003
     atom   51 type  1   force =     0.00000000   -0.00000001    0.00000006
     atom   52 type  1   force =     0.00000000    0.00000001    0.00000001

     Total force =     0.002729     Total SCF correction =     0.000000

     Writing all to output data dir ./Li/Lithium.save/ :
     XML data file
     init_run     :     26.81s CPU     36.68s WALL (       1 calls)
     electrons    :   2770.12s CPU   3875.75s WALL (       1 calls)
     forces       :     44.33s CPU     46.26s WALL (       1 calls)

     Called by init_run:
     wfcinit      :      4.48s CPU      6.39s WALL (       1 calls)
     wfcinit:wfcr :      4.12s CPU      6.04s WALL (      12 calls)
     potinit      :      0.80s CPU      0.85s WALL (       1 calls)
     hinit0       :      5.69s CPU      6.40s WALL (       1 calls)

     Called by electrons:
     c_bands      :   2083.58s CPU   3048.94s WALL (      53 calls)
     sum_band     :    113.99s CPU    161.46s WALL (      53 calls)
     v_of_rho     :      5.71s CPU      6.69s WALL (      54 calls)
     v_h          :      0.51s CPU      0.59s WALL (      54 calls)
     v_xc         :      5.20s CPU      6.10s WALL (      54 calls)
     newd         :      3.65s CPU      5.14s WALL (      54 calls)
     PAW_pot      :      0.50s CPU      0.69s WALL (      54 calls)
     mix_rho      :     18.61s CPU     21.91s WALL (      53 calls)

     Called by c_bands:
     init_us_2    :     21.37s CPU     21.57s WALL (    1296 calls)
     cegterg      :   1762.56s CPU   2206.57s WALL (     765 calls)

     Called by sum_band:
     sum_band:wei :      0.10s CPU      0.13s WALL (      53 calls)
     sum_band:loo :    110.54s CPU    156.13s WALL (      53 calls)
     sum_band:buf :      2.21s CPU      2.24s WALL (     636 calls)
     sum_band:ini :     10.53s CPU     10.59s WALL (     636 calls)
     sum_band:cal :     17.51s CPU     18.99s WALL (     636 calls)
     sum_band:bec :      0.15s CPU      0.18s WALL (     636 calls)
     addusdens    :      2.28s CPU      3.66s WALL (      53 calls)
                                        0.00s GPU  (      53 calls)
     addusd:skk   :      0.23s CPU      0.98s WALL (      53 calls)
                                        0.00s GPU  (      53 calls)

     Called by *egterg:
     cdiaghg      :    536.50s CPU    554.62s WALL (    9539 calls)
     cegterg:over :    101.59s CPU    111.29s WALL (    8838 calls)
     cegterg:upda :     81.89s CPU     84.23s WALL (    8838 calls)
     cegterg:last :     33.22s CPU     33.34s WALL (     973 calls)
     h_psi        :    888.29s CPU   1291.47s WALL (    9615 calls)
     s_psi        :     87.49s CPU     88.62s WALL (    9615 calls)
     g_psi        :      1.02s CPU      1.16s WALL (    8838 calls)

     Called by h_psi:
     h_psi:calbec :    105.30s CPU    116.73s WALL (    9615 calls)
     vloc_psi     :    690.39s CPU   1077.53s WALL (    9615 calls)
                                        0.00s GPU  (    9615 calls)
     add_vuspsi   :     88.39s CPU     89.31s WALL (    9615 calls)

     General routines
     calbec       :    123.90s CPU    136.89s WALL (   10299 calls)
     fft          :      4.99s CPU      6.32s WALL (     702 calls)
     ffts         :     10.46s CPU     12.68s WALL (    6503 calls)
     fftw         :    745.06s CPU   1164.01s WALL (  725100 calls)
     interpolate  :      1.10s CPU      1.20s WALL (      54 calls)

     Parallel routines

     PAW routines
     PAW_pot      :      0.50s CPU      0.69s WALL (      54 calls)
     PAW_symme    :      0.02s CPU      0.03s WALL (     107 calls)

     Environ routines

     PWSCF        :  47m21.62s CPU      1h 5m WALL


   This run was terminated on:   3: 3:34  24Jan2025            

=------------------------------------------------------------------------------=
   JOB DONE.
=------------------------------------------------------------------------------=
