
     Program PWSCF v.7.4 starts on 20Jan2025 at  4:23:56 

     This program is part of the open-source Quantum ESPRESSO suite
     for quantum simulation of materials; please cite
         "P. Giannozzi et al., J. Phys.:Condens. Matter 21 395502 (2009);
         "P. Giannozzi et al., J. Phys.:Condens. Matter 29 465901 (2017);
         "P. Giannozzi et al., J. Chem. Phys. 152 154105 (2020);
          URL http://www.quantum-espresso.org", 
     in publications or presentations arising from this work. More details at
     http://www.quantum-espresso.org/quote

     Parallel version (MPI & OpenMP), running on     512 processor cores
     Number of MPI processes:               512
     Threads/MPI process:                     1

     MPI processes distributed on     4 nodes
     490085 MiB available memory on the printing compute node when the environment starts

     Reading input from espresso.pwi
Warning: card &CELL ignored
Warning: card    PRESS_CONV_THR   = 0.1 ignored
Warning: card    CELL_DOFREE      = 'ALL' ignored
Warning: card / ignored
Warning: card &FCP ignored
Warning: card / ignored
Warning: card &RISM ignored
Warning: card / ignored

     Current dimensions of program PWSCF are:
     Max number of different atomic species (ntypx) = 10
     Max number of k-points (npk) =  40000
     Max angular momentum in pseudopotentials (lmaxx) =  4

     IMPORTANT: XC functional enforced from input :
     Exchange-correlation= PBE
                           (   1   4   3   4   0   0   0)
     Any further DFT definition will be discarded
     Please, verify this is what you really want


     Reading input from environ.in:
     * using ionic solvent mode
     * setting boundary derivatives method to SSCS default
     * setting electrolyte-boundary derivatives method to SSCS default

Environ Warning (1001): card EOF ignored

     
     Found identity + ( -0.5000 -0.0000 -0.0000) symmetry
     This is a supercell, fractional translations are disabled

     K-points division:     npool     =       2
     R & G space division:  proc/nbgrp/npool/nimage =     256
     Subspace diagonalization in iterative solution of the eigenvalue problem:
     a serial algorithm will be used


     Parallelization info
     --------------------
     sticks:   dense  smooth     PW     G-vecs:    dense   smooth      PW
     Min          69      27      7                40121    10115    1359
     Max          70      28      8                40178    10188    1404
     Sum       17801    7131   1879             10277287  2600241  352547

     Using Slab Decomposition



     bravais-lattice index     =           12
     lattice parameter (alat)  =      18.3607  a.u.
     unit-cell volume          =   26895.2624 (a.u.)^3
     number of atoms/cell      =           44
     number of atomic types    =            1
     number of electrons       =       132.00
     number of Kohn-Sham states=           99
     kinetic-energy cutoff     =      80.0000  Ry
     charge density cutoff     =     800.0000  Ry
     scf convergence threshold =      1.0E-16
     mixing beta               =       0.2000
     number of iterations used =            8  local-TF  mixing
     Exchange-correlation= PBE
                           (   1   4   3   4   0   0   0)

     ================================================================================

                                  Environ Setup Summary

     ================================================================================

     Please cite

          O. Andreussi, I. Dabo and N. Marzari, J. Chem. Phys. 136, 064102 (2012)
          F. Nattino, M. Truscott, N. Marzari, and O. Andreussi, J. Chem. Phys. 150, 041722 (2019)

     in publications or presentations arising from this work.

     ================================================================================

     Parameters
     ==========

     compensation onset threshold      =               0.1000E+00
     static permittivity               =                    89.90
     surface tension in input (dyn/cm) =                    37.30
     surface tension in internal units =               0.4792E-04

     Solvent Boundary
     ================

     solvent mode                      =                    ionic
     derivatives method                =                   lowmem
     electrolyte derivatives method    =                   lowmem
     numerical core for derivatives    =                      fft
     switching function adopted        =                     SCCS
     density limit for vacuum region   =               0.5000E-02
     density limit for bulk solvent    =               0.1000E-03
     soft-sphere radius mode           =                    bondi
     soft-sphere softness              =                     0.50
     alpha                             =                     1.32

     Electrostatic Setup
     ===================

     electrostatic problem to solve    =                    modpb
     numerical solver adopted          =                   newton
     type of auxiliary density adopted =                     none
     numerical core for poisson        =                      fft
     adopting a nested solver scheme
     inner solver                      =                       cg
     inner core                        =                      fft
     type of pbc corrections           =                parabolic
     numerical core for corrections    =                      1da

     ================================================================================


     >>>>> Grand-Canonical SCF is activated <<<<<
     Initial Total Charge  =     0.000000 e
     Target Fermi Energy   =    -4.904000 eV
     Thr. of Fermi Energy  =     0.001000 eV
     Wave-shift of Kerker  =     0.400000 bohr^-1
     Wave-shift of Hartree =     1.500000 bohr^-1
     Mixing Rate of Fermi  =     0.050000

     celldm(1)=  18.360747  celldm(2)=   0.866025  celldm(3)=   5.240449
     celldm(4)=  -0.288675  celldm(5)=   0.000000  celldm(6)=   0.000000

     crystal axes: (cart. coord. in units of alat)
               a(1) = (   1.000000   0.000000   0.000000 )  
               a(2) = (  -0.250000   0.829156   0.000000 )  
               a(3) = (   0.000000   0.000000   5.240449 )  

     reciprocal axes: (cart. coord. in units 2 pi/alat)
               b(1) = (  1.000000  0.301511 -0.000000 )  
               b(2) = (  0.000000  1.206046  0.000000 )  
               b(3) = (  0.000000 -0.000000  0.190823 )  


     PseudoPot. # 1 for Li read from file:
     /work/e89/e89/ba3g18/Repos/Pseudopotentials/Pslibrary/Li.pbe-sl-kjpaw_psl.1.0.0.UPF
     MD5 check sum: 3f4d2cafebb47c6c3aa8ed472e6f074d
     Pseudo is Projector augmented-wave, Zval =  3.0
     Generated using 'atomic' code by A. Dal Corso  v.7.4
     Shape of augmentation charge: PSQ
     Using radial grid of 1017 points,  4 beta functions with: 
                l(1) =   0
                l(2) =   0
                l(3) =   1
                l(4) =   1
     Q(r) pseudized with 0 coefficients 


     atomic species   valence    mass     pseudopotential
     Li                3.00     6.94000     Li( 1.00)

     No symmetry found


                                    s                        frac. trans.

      isym =  1     identity                                     

 cryst.   s( 1) = (     1          0          0      )
                  (     0          1          0      )
                  (     0          0          1      )

 cart.    s( 1) = (  1.0000000  0.0000000  0.0000000 )
                  (  0.0000000  1.0000000  0.0000000 )
                  (  0.0000000  0.0000000  1.0000000 )


     point group C_1 (1)    
     there are  1 classes
     the character table:

       E    
A      1.00

     the symmetry operations in each class and the name of the first element:

     E        1
          identity                                               

   Cartesian axes

     site n.     atom                  positions (alat units)
         1        Li     tau(   1) = (  -0.2498848   0.6805171   1.9639734  )
         2        Li     tau(   2) = (   0.2498293   0.2644806   3.2170258  )
         3        Li     tau(   3) = (  -0.0000614   0.4782258   3.0308238  )
         4        Li     tau(   4) = (   0.2499023   0.6718845   2.9111948  )
         5        Li     tau(   5) = (   0.2498677   0.0829201   2.7969819  )
         6        Li     tau(   6) = (  -0.0000099   0.3046305   2.7117897  )
         7        Li     tau(   7) = (   0.2500360   0.5227668   2.6010262  )
         8        Li     tau(   8) = (  -0.0000173   0.7497596   2.4843037  )
         9        Li     tau(   9) = (   0.0001023   0.1638696   2.3556413  )
        10        Li     tau(  10) = (   0.2501472   0.3750900   2.2664359  )
        11        Li     tau(  11) = (   0.0000848   0.5658453   2.1917138  )
        12        Li     tau(  12) = (  -0.0001472   0.1525567   2.9740143  )
        13        Li     tau(  13) = (   0.2498976   0.3637760   2.8848096  )
        14        Li     tau(  14) = (   0.0000172   0.6070426   2.7561465  )
        15        Li     tau(  15) = (   0.2499641   0.8340323   2.6394242  )
        16        Li     tau(  16) = (   0.2500098   0.2230130   2.5286597  )
        17        Li     tau(  17) = (   0.0001324   0.4447261   2.4434677  )
        18        Li     tau(  18) = (   0.2500976   0.6849159   2.3292554  )
        19        Li     tau(  19) = (   0.2500613   0.0494186   2.2096271  )
        20        Li     tau(  20) = (   0.0001704   0.2631645   2.0234237  )
        21        Li     tau(  21) = (   0.2498846   0.6762823   3.2764768  )
        22        Li     tau(  22) = (  -0.0000849   0.7909564   3.0487362  )
        23        Li     tau(  23) = (   0.2501152   0.6805171   1.9639734  )
        24        Li     tau(  24) = (   0.7498294   0.2644806   3.2170258  )
        25        Li     tau(  25) = (   0.4999386   0.4782258   3.0308238  )
        26        Li     tau(  26) = (   0.7499023   0.6718845   2.9111948  )
        27        Li     tau(  27) = (   0.7498677   0.0829201   2.7969819  )
        28        Li     tau(  28) = (   0.4999901   0.3046305   2.7117898  )
        29        Li     tau(  29) = (   0.7500360   0.5227668   2.6010262  )
        30        Li     tau(  30) = (   0.4999828   0.7497596   2.4843037  )
        31        Li     tau(  31) = (   0.5001022   0.1638695   2.3556412  )
        32        Li     tau(  32) = (   0.7501473   0.3750900   2.2664359  )
        33        Li     tau(  33) = (   0.5000848   0.5658452   2.1917138  )
        34        Li     tau(  34) = (   0.4998528   0.1525567   2.9740143  )
        35        Li     tau(  35) = (   0.7498976   0.3637760   2.8848096  )
        36        Li     tau(  36) = (   0.5000172   0.6070425   2.7561465  )
        37        Li     tau(  37) = (   0.7499640   0.8340323   2.6394242  )
        38        Li     tau(  38) = (   0.7500098   0.2230129   2.5286597  )
        39        Li     tau(  39) = (   0.5001324   0.4447262   2.4434677  )
        40        Li     tau(  40) = (   0.7500977   0.6849160   2.3292554  )
        41        Li     tau(  41) = (   0.7500613   0.0494186   2.2096271  )
        42        Li     tau(  42) = (   0.5001704   0.2631646   2.0234236  )
        43        Li     tau(  43) = (   0.7498848   0.6762824   3.2764769  )
        44        Li     tau(  44) = (   0.4999151   0.7909564   3.0487363  )

   Crystallographic axes

     site n.     atom                  positions (cryst. coord.)
         1        Li     tau(   1) = ( -0.0447012  0.8207347  0.3747720  )
         2        Li     tau(   2) = (  0.3295732  0.3189756  0.6138836  )
         3        Li     tau(   3) = (  0.1441291  0.5767622  0.5783519  )
         4        Li     tau(   4) = (  0.4524831  0.8103234  0.5555239  )
         5        Li     tau(   5) = (  0.2748691  0.1000054  0.5337294  )
         6        Li     tau(   6) = (  0.0918397  0.3673983  0.5174728  )
         7        Li     tau(   7) = (  0.4076562  0.6304806  0.4963365  )
         8        Li     tau(   8) = (  0.2260438  0.9042443  0.4740631  )
         9        Li     tau(   9) = (  0.0495108  0.1976342  0.4495113  )
        10        Li     tau(  10) = (  0.3632412  0.4523757  0.4324889  )
        11        Li     tau(  11) = (  0.1706936  0.6824352  0.4182302  )
        12        Li     tau(  12) = (  0.0458504  0.1839904  0.5675113  )
        13        Li     tau(  13) = (  0.3595802  0.4387305  0.5504890  )
        14        Li     tau(  14) = (  0.1830474  0.7321211  0.5259371  )
        15        Li     tau(  15) = (  0.5014343  1.0058811  0.5036638  )
        16        Li     tau(  16) = (  0.3172508  0.2689638  0.4825273  )
        17        Li     tau(  17) = (  0.1342224  0.5363600  0.4662707  )
        18        Li     tau(  18) = (  0.4566076  0.8260399  0.4444763  )
        19        Li     tau(  19) = (  0.2649616  0.0596011  0.4216484  )
        20        Li     tau(  20) = (  0.0795175  0.3173884  0.3861165  )
        21        Li     tau(  21) = (  0.4537915  0.8156274  0.6252283  )
        22        Li     tau(  22) = (  0.2383975  0.9539296  0.5817700  )
        23        Li     tau(  23) = (  0.4552989  0.8207347  0.3747720  )
        24        Li     tau(  24) = (  0.8295733  0.3189757  0.6138836  )
        25        Li     tau(  25) = (  0.6441291  0.5767622  0.5783519  )
        26        Li     tau(  26) = (  0.9524831  0.8103234  0.5555239  )
        27        Li     tau(  27) = (  0.7748691  0.1000054  0.5337294  )
        28        Li     tau(  28) = (  0.5918397  0.3673983  0.5174728  )
        29        Li     tau(  29) = (  0.9076562  0.6304806  0.4963365  )
        30        Li     tau(  30) = (  0.7260438  0.9042443  0.4740631  )
        31        Li     tau(  31) = (  0.5495108  0.1976341  0.4495113  )
        32        Li     tau(  32) = (  0.8632412  0.4523757  0.4324889  )
        33        Li     tau(  33) = (  0.6706936  0.6824352  0.4182302  )
        34        Li     tau(  34) = (  0.5458504  0.1839904  0.5675114  )
        35        Li     tau(  35) = (  0.8595802  0.4387304  0.5504890  )
        36        Li     tau(  36) = (  0.6830474  0.7321210  0.5259371  )
        37        Li     tau(  37) = (  1.0014343  1.0058811  0.5036638  )
        38        Li     tau(  38) = (  0.8172507  0.2689638  0.4825273  )
        39        Li     tau(  39) = (  0.6342224  0.5363601  0.4662707  )
        40        Li     tau(  40) = (  0.9566076  0.8260399  0.4444763  )
        41        Li     tau(  41) = (  0.7649616  0.0596011  0.4216484  )
        42        Li     tau(  42) = (  0.5795175  0.3173885  0.3861165  )
        43        Li     tau(  43) = (  0.9537916  0.8156274  0.6252283  )
        44        Li     tau(  44) = (  0.7383975  0.9539296  0.5817701  )

     number of k points=    29  Marzari-Vanderbilt smearing, width (Ry)=  0.0100
                       cart. coord. in units 2pi/alat
        k(    1) = (   0.0000000   0.0000000   0.0000000), wk =   0.0357143
        k(    2) = (   0.0000000   0.1507557   0.0000000), wk =   0.0714286
        k(    3) = (   0.0000000   0.3015114   0.0000000), wk =   0.0714286
        k(    4) = (   0.0000000   0.4522671   0.0000000), wk =   0.0714286
        k(    5) = (   0.0000000  -0.6030228   0.0000000), wk =   0.0357143
        k(    6) = (   0.1428571   0.0430731   0.0000000), wk =   0.0714286
        k(    7) = (   0.1428571   0.1938288   0.0000000), wk =   0.0714286
        k(    8) = (   0.1428571   0.3445845   0.0000000), wk =   0.0714286
        k(    9) = (   0.1428571   0.4953402   0.0000000), wk =   0.0714286
        k(   10) = (   0.1428571  -0.5599498   0.0000000), wk =   0.0714286
        k(   11) = (   0.1428571  -0.4091941   0.0000000), wk =   0.0714286
        k(   12) = (   0.1428571  -0.2584384   0.0000000), wk =   0.0714286
        k(   13) = (   0.1428571  -0.1076826   0.0000000), wk =   0.0714286
        k(   14) = (   0.2857143   0.0861461   0.0000000), wk =   0.0714286
        k(   15) = (   0.2857143   0.2369018   0.0000000), wk =   0.0714286
        k(   16) = (   0.2857143   0.3876575   0.0000000), wk =   0.0714286
        k(   17) = (   0.2857143   0.5384132   0.0000000), wk =   0.0714286
        k(   18) = (   0.2857143  -0.5168767   0.0000000), wk =   0.0714286
        k(   19) = (   0.2857143  -0.3661210   0.0000000), wk =   0.0714286
        k(   20) = (   0.2857143  -0.2153653   0.0000000), wk =   0.0714286
        k(   21) = (   0.2857143  -0.0646096   0.0000000), wk =   0.0714286
        k(   22) = (   0.4285714   0.1292192   0.0000000), wk =   0.0714286
        k(   23) = (   0.4285714   0.2799749   0.0000000), wk =   0.0714286
        k(   24) = (   0.4285714   0.4307306   0.0000000), wk =   0.0714286
        k(   25) = (   0.4285714   0.5814863   0.0000000), wk =   0.0714286
        k(   26) = (   0.4285714  -0.4738037   0.0000000), wk =   0.0714286
        k(   27) = (   0.4285714  -0.3230479   0.0000000), wk =   0.0714286
        k(   28) = (   0.4285714  -0.1722922   0.0000000), wk =   0.0714286
        k(   29) = (   0.4285714  -0.0215365   0.0000000), wk =   0.0714286

                       cryst. coord.
        k(    1) = (   0.0000000   0.0000000   0.0000000), wk =   0.0357143
        k(    2) = (   0.0000000   0.1250000   0.0000000), wk =   0.0714286
        k(    3) = (   0.0000000   0.2500000   0.0000000), wk =   0.0714286
        k(    4) = (   0.0000000   0.3750000   0.0000000), wk =   0.0714286
        k(    5) = (   0.0000000  -0.5000000   0.0000000), wk =   0.0357143
        k(    6) = (   0.1428571   0.0000000   0.0000000), wk =   0.0714286
        k(    7) = (   0.1428571   0.1250000   0.0000000), wk =   0.0714286
        k(    8) = (   0.1428571   0.2500000   0.0000000), wk =   0.0714286
        k(    9) = (   0.1428571   0.3750000   0.0000000), wk =   0.0714286
        k(   10) = (   0.1428571  -0.5000000   0.0000000), wk =   0.0714286
        k(   11) = (   0.1428571  -0.3750000   0.0000000), wk =   0.0714286
        k(   12) = (   0.1428571  -0.2500000   0.0000000), wk =   0.0714286
        k(   13) = (   0.1428571  -0.1250000   0.0000000), wk =   0.0714286
        k(   14) = (   0.2857143   0.0000000   0.0000000), wk =   0.0714286
        k(   15) = (   0.2857143   0.1250000   0.0000000), wk =   0.0714286
        k(   16) = (   0.2857143   0.2500000   0.0000000), wk =   0.0714286
        k(   17) = (   0.2857143   0.3750000   0.0000000), wk =   0.0714286
        k(   18) = (   0.2857143  -0.5000000   0.0000000), wk =   0.0714286
        k(   19) = (   0.2857143  -0.3750000   0.0000000), wk =   0.0714286
        k(   20) = (   0.2857143  -0.2500000   0.0000000), wk =   0.0714286
        k(   21) = (   0.2857143  -0.1250000   0.0000000), wk =   0.0714286
        k(   22) = (   0.4285714   0.0000000   0.0000000), wk =   0.0714286
        k(   23) = (   0.4285714   0.1250000   0.0000000), wk =   0.0714286
        k(   24) = (   0.4285714   0.2500000   0.0000000), wk =   0.0714286
        k(   25) = (   0.4285714   0.3750000   0.0000000), wk =   0.0714286
        k(   26) = (   0.4285714  -0.5000000   0.0000000), wk =   0.0714286
        k(   27) = (   0.4285714  -0.3750000   0.0000000), wk =   0.0714286
        k(   28) = (   0.4285714  -0.2500000   0.0000000), wk =   0.0714286
        k(   29) = (   0.4285714  -0.1250000   0.0000000), wk =   0.0714286

     Dense  grid: 10277287 G-vectors     FFT dimensions: ( 180, 144, 900)

     Smooth grid:  2600241 G-vectors     FFT dimensions: ( 108,  96, 576)

     Dynamical RAM for                 wfc:       1.92 MB

     Dynamical RAM for     wfc (w. buffer):      30.67 MB

     Dynamical RAM for           str. fact:       0.61 MB

     Dynamical RAM for           local pot:       0.00 MB

     Dynamical RAM for          nlocal pot:       6.82 MB

     Dynamical RAM for                qrad:       0.65 MB

     Dynamical RAM for          rho,v,vnew:       4.21 MB

     Dynamical RAM for               rhoin:       1.40 MB

     Dynamical RAM for            rho*nmix:       9.80 MB

     Dynamical RAM for           G-vectors:       2.37 MB

     Dynamical RAM for          h,s,v(r/c):       7.18 MB

     Dynamical RAM for          <psi|beta>:       0.53 MB

     Dynamical RAM for                 psi:       7.67 MB

     Dynamical RAM for                hpsi:       7.67 MB

     Dynamical RAM for                spsi:       7.67 MB

     Dynamical RAM for      wfcinit/wfcrot:       4.06 MB

     Dynamical RAM for           addusdens:      26.94 MB

     Dynamical RAM for          addusforce:      53.31 MB

     Estimated static dynamical RAM per process >      51.91 MB

     Estimated max dynamical RAM per process >     156.82 MB

     Estimated total dynamical RAM >      55.06 GB

     Initial potential from superposition of free atoms

     starting charge     131.7972, renormalised to     132.0000

     negative rho (up, down):  4.173E-03 0.000E+00
     Starting wfcs are random
     Checking if some PAW data can be deallocated... 

     total cpu time spent up to now is       33.8 secs

     Self-consistent Calculation

     iteration #  1     ecut=    80.00 Ry     beta= 0.20
     Davidson diagonalization with overlap

---- Real-time Memory Report at c_bands before calling an iterative solver
           714 MiB given to the printing process from OS
             0 MiB allocation reported by mallinfo(arena+hblkhd)
        475349 MiB available memory on the node where the printing process lives
------------------
     c_bands:  1 eigenvalues not converged
     c_bands:  1 eigenvalues not converged
     c_bands:  1 eigenvalues not converged
     c_bands:  1 eigenvalues not converged
     c_bands:  2 eigenvalues not converged
     ethr =  1.00E-12,  avg # of iterations =120.7

     negative rho (up, down):  3.117E-03 0.000E+00

     total cpu time spent up to now is      390.5 secs

     total energy              =    -661.36318074 Ry
     estimated scf accuracy    <       0.19655782 Ry

     total charge of GC-SCF    =       0.16233886 e
     the Fermi energy          =      -4.34610808 eV
                        (error :       0.55789192 eV)
     electrostatic embedding   =       0.00000000 Ry
     cavitation energy         =       0.04193613 Ry
     electrolyte free energy   =       0.01157605 Ry
     correction to one-el term =      -0.00000000 Ry

     iteration #  2     ecut=    80.00 Ry     beta= 0.20
     Davidson diagonalization with overlap

---- Real-time Memory Report at c_bands before calling an iterative solver
           714 MiB given to the printing process from OS
             0 MiB allocation reported by mallinfo(arena+hblkhd)
        471355 MiB available memory on the node where the printing process lives
------------------
     ethr =  1.00E-05,  avg # of iterations = 15.9

     negative rho (up, down):  2.369E-03 0.000E+00

     add environment contribution to local potential

     total cpu time spent up to now is      443.8 secs

     total energy              =    -661.61642081 Ry
     estimated scf accuracy    <       0.04553191 Ry

     total charge of GC-SCF    =       0.31584172 e
     the Fermi energy          =      -3.77279672 eV
                        (error :       1.13120328 eV)
     electrostatic embedding   =       0.00125153 Ry
     cavitation energy         =       0.04193613 Ry
     electrolyte free energy   =       0.01157605 Ry
     correction to one-el term =      -0.00000000 Ry

     iteration #  3     ecut=    80.00 Ry     beta= 0.20
     Davidson diagonalization with overlap

---- Real-time Memory Report at c_bands before calling an iterative solver
           714 MiB given to the printing process from OS
             0 MiB allocation reported by mallinfo(arena+hblkhd)
        470824 MiB available memory on the node where the printing process lives
------------------
     ethr =  1.00E-05,  avg # of iterations = 28.0

     negative rho (up, down):  1.874E-03 0.000E+00

     add environment contribution to local potential

     total cpu time spent up to now is      516.3 secs

     total energy              =    -661.72154155 Ry
     estimated scf accuracy    <       0.02071855 Ry

     total charge of GC-SCF    =       0.51147909 e
     the Fermi energy          =      -2.97641118 eV
                        (error :       1.92758882 eV)
     electrostatic embedding   =      -0.04122677 Ry
     cavitation energy         =       0.04193613 Ry
     electrolyte free energy   =      -0.00577599 Ry
     correction to one-el term =      -9.27951211 Ry

     iteration #  4     ecut=    80.00 Ry     beta= 0.20
     Davidson diagonalization with overlap

---- Real-time Memory Report at c_bands before calling an iterative solver
           714 MiB given to the printing process from OS
             0 MiB allocation reported by mallinfo(arena+hblkhd)
        470761 MiB available memory on the node where the printing process lives
------------------
     ethr =  1.00E-05,  avg # of iterations = 12.2

     negative rho (up, down):  1.490E-03 0.000E+00

     add environment contribution to local potential

     total cpu time spent up to now is      564.3 secs

     total energy              =    -661.67461396 Ry
     estimated scf accuracy    <       0.01706943 Ry

     total charge of GC-SCF    =       0.88338056 e
     the Fermi energy          =      -3.29184724 eV
                        (error :       1.61215276 eV)
     electrostatic embedding   =      -0.05207194 Ry
     cavitation energy         =       0.04193613 Ry
     electrolyte free energy   =      -0.00809678 Ry
     correction to one-el term =     -14.14573870 Ry

     iteration #  5     ecut=    80.00 Ry     beta= 0.20
     Davidson diagonalization with overlap

---- Real-time Memory Report at c_bands before calling an iterative solver
           714 MiB given to the printing process from OS
             0 MiB allocation reported by mallinfo(arena+hblkhd)
        470712 MiB available memory on the node where the printing process lives
------------------
     ethr =  1.00E-05,  avg # of iterations =  7.1

     negative rho (up, down):  1.209E-03 0.000E+00

     add environment contribution to local potential

     total cpu time spent up to now is      598.8 secs

     total energy              =    -661.49247911 Ry
     estimated scf accuracy    <       0.01372362 Ry

     total charge of GC-SCF    =       1.86063757 e
     the Fermi energy          =      -3.30152595 eV
                        (error :       1.60247405 eV)
     electrostatic embedding   =      -0.09970403 Ry
     cavitation energy         =       0.04193613 Ry
     electrolyte free energy   =      -0.00851154 Ry
     correction to one-el term =     -23.69816236 Ry

     iteration #  6     ecut=    80.00 Ry     beta= 0.20
     Davidson diagonalization with overlap

---- Real-time Memory Report at c_bands before calling an iterative solver
           714 MiB given to the printing process from OS
             0 MiB allocation reported by mallinfo(arena+hblkhd)
        470699 MiB available memory on the node where the printing process lives
------------------
     ethr =  1.00E-05,  avg # of iterations = 19.2

     negative rho (up, down):  2.362E-03 0.000E+00

     add environment contribution to local potential

     total cpu time spent up to now is      668.8 secs

     total energy              =    -661.82881288 Ry
     estimated scf accuracy    <       0.00662808 Ry

     total charge of GC-SCF    =       2.45861563 e
     the Fermi energy          =      -3.01788789 eV
                        (error :       1.88611211 eV)
     electrostatic embedding   =      -0.39398529 Ry
     cavitation energy         =       0.04193613 Ry
     electrolyte free energy   =      -0.00986797 Ry
     correction to one-el term =     -49.60413116 Ry

     iteration #  7     ecut=    80.00 Ry     beta= 0.20
     Davidson diagonalization with overlap

---- Real-time Memory Report at c_bands before calling an iterative solver
           714 MiB given to the printing process from OS
             0 MiB allocation reported by mallinfo(arena+hblkhd)
        470552 MiB available memory on the node where the printing process lives
------------------
     ethr =  5.12E-06,  avg # of iterations = 13.1

     negative rho (up, down):  2.649E-03 0.000E+00

     add environment contribution to local potential

     total cpu time spent up to now is      720.2 secs

     total energy              =    -662.10629353 Ry
     estimated scf accuracy    <       0.00411867 Ry

     total charge of GC-SCF    =       2.42213044 e
     the Fermi energy          =      -3.18015406 eV
                        (error :       1.72384594 eV)
     electrostatic embedding   =      -0.67322825 Ry
     cavitation energy         =       0.04193613 Ry
     electrolyte free energy   =      -0.01439410 Ry
     correction to one-el term =     -65.62504307 Ry

     iteration #  8     ecut=    80.00 Ry     beta= 0.20
     Davidson diagonalization with overlap

---- Real-time Memory Report at c_bands before calling an iterative solver
           714 MiB given to the printing process from OS
             0 MiB allocation reported by mallinfo(arena+hblkhd)
        470521 MiB available memory on the node where the printing process lives
------------------
     ethr =  3.18E-06,  avg # of iterations =  8.3

     negative rho (up, down):  5.428E-03 0.000E+00

     add environment contribution to local potential

     total cpu time spent up to now is      754.7 secs

     total energy              =    -662.45507829 Ry
     estimated scf accuracy    <       0.00501599 Ry

     total charge of GC-SCF    =       1.81499910 e
     the Fermi energy          =      -3.13258166 eV
                        (error :       1.77141834 eV)
     electrostatic embedding   =      -0.65593777 Ry
     cavitation energy         =       0.04193613 Ry
     electrolyte free energy   =      -0.01380516 Ry
     correction to one-el term =     -64.51399174 Ry

     iteration #  9     ecut=    80.00 Ry     beta= 0.20
     Davidson diagonalization with overlap

---- Real-time Memory Report at c_bands before calling an iterative solver
           714 MiB given to the printing process from OS
             0 MiB allocation reported by mallinfo(arena+hblkhd)
        470548 MiB available memory on the node where the printing process lives
------------------
     ethr =  3.18E-06,  avg # of iterations = 27.3

     negative rho (up, down):  3.215E-03 0.000E+00

     add environment contribution to local potential

     total cpu time spent up to now is      825.6 secs

     total energy              =    -662.03113832 Ry
     estimated scf accuracy    <       0.02262309 Ry

     total charge of GC-SCF    =       2.01407049 e
     the Fermi energy          =      -2.81170855 eV
                        (error :       2.09229145 eV)
     electrostatic embedding   =      -0.38674658 Ry
     cavitation energy         =       0.04193613 Ry
     electrolyte free energy   =      -0.00880204 Ry
     correction to one-el term =     -45.63592839 Ry

     iteration # 10     ecut=    80.00 Ry     beta= 0.20
     Davidson diagonalization with overlap

---- Real-time Memory Report at c_bands before calling an iterative solver
           714 MiB given to the printing process from OS
             0 MiB allocation reported by mallinfo(arena+hblkhd)
        470517 MiB available memory on the node where the printing process lives
------------------
     ethr =  3.18E-06,  avg # of iterations = 10.0

     negative rho (up, down):  1.984E-01 0.000E+00

     add environment contribution to local potential

     total cpu time spent up to now is      869.1 secs

     total energy              =    -661.48012188 Ry
     estimated scf accuracy    <       0.01737978 Ry

     total charge of GC-SCF    =       4.74945671 e
     the Fermi energy          =      -2.88834080 eV
                        (error :       2.01565920 eV)
     electrostatic embedding   =      -0.46510385 Ry
     cavitation energy         =       0.04193613 Ry
     electrolyte free energy   =      -0.01000923 Ry
     correction to one-el term =     -51.90927059 Ry

     iteration # 11     ecut=    80.00 Ry     beta= 0.20
     Davidson diagonalization with overlap

---- Real-time Memory Report at c_bands before calling an iterative solver
           714 MiB given to the printing process from OS
             0 MiB allocation reported by mallinfo(arena+hblkhd)
        470455 MiB available memory on the node where the printing process lives
------------------
     ethr =  3.18E-06,  avg # of iterations = 27.9

     negative rho (up, down):  1.513E-01 0.000E+00

     add environment contribution to local potential

     total cpu time spent up to now is      959.0 secs

     total energy              =    -662.18504622 Ry
     estimated scf accuracy    <       0.01461843 Ry

     total charge of GC-SCF    =       4.62034547 e
     the Fermi energy          =      -4.18225034 eV
                        (error :       0.72174966 eV)
     electrostatic embedding   =      -2.48843941 Ry
     cavitation energy         =       0.04193613 Ry
     electrolyte free energy   =      -0.05211438 Ry
     correction to one-el term =    -128.83405466 Ry

     iteration # 12     ecut=    80.00 Ry     beta= 0.20
     Davidson diagonalization with overlap

---- Real-time Memory Report at c_bands before calling an iterative solver
           714 MiB given to the printing process from OS
             0 MiB allocation reported by mallinfo(arena+hblkhd)
        470487 MiB available memory on the node where the printing process lives
------------------
     ethr =  3.18E-06,  avg # of iterations =  8.2

     negative rho (up, down):  1.017E-01 0.000E+00

     add environment contribution to local potential

     total cpu time spent up to now is      997.3 secs

     total energy              =    -662.10697431 Ry
     estimated scf accuracy    <       0.01450869 Ry

     total charge of GC-SCF    =       4.69114278 e
     the Fermi energy          =      -4.17457876 eV
                        (error :       0.72942124 eV)
     electrostatic embedding   =      -2.35221132 Ry
     cavitation energy         =       0.04193613 Ry
     electrolyte free energy   =      -0.04938507 Ry
     correction to one-el term =    -125.52830302 Ry

     iteration # 13     ecut=    80.00 Ry     beta= 0.20
     Davidson diagonalization with overlap

---- Real-time Memory Report at c_bands before calling an iterative solver
           714 MiB given to the printing process from OS
             0 MiB allocation reported by mallinfo(arena+hblkhd)
        470492 MiB available memory on the node where the printing process lives
------------------
     ethr =  3.18E-06,  avg # of iterations = 11.3

     negative rho (up, down):  1.764E-01 0.000E+00

     add environment contribution to local potential

     total cpu time spent up to now is     1045.9 secs

     total energy              =    -662.07641307 Ry
     estimated scf accuracy    <       0.00645277 Ry

     total charge of GC-SCF    =       5.05526157 e
     the Fermi energy          =      -4.22087769 eV
                        (error :       0.68312231 eV)
     electrostatic embedding   =      -2.44915383 Ry
     cavitation energy         =       0.04193613 Ry
     electrolyte free energy   =      -0.05192797 Ry
     correction to one-el term =    -128.40028966 Ry

     iteration # 14     ecut=    80.00 Ry     beta= 0.20
     Davidson diagonalization with overlap

---- Real-time Memory Report at c_bands before calling an iterative solver
           714 MiB given to the printing process from OS
             0 MiB allocation reported by mallinfo(arena+hblkhd)
        470518 MiB available memory on the node where the printing process lives
------------------
     ethr =  3.18E-06,  avg # of iterations = 10.1

     negative rho (up, down):  1.938E-01 0.000E+00

     add environment contribution to local potential

     total cpu time spent up to now is     1091.4 secs

     total energy              =    -662.08669163 Ry
     estimated scf accuracy    <       0.00725804 Ry

     total charge of GC-SCF    =       5.38256451 e
     the Fermi energy          =      -4.36970254 eV
                        (error :       0.53429746 eV)
     electrostatic embedding   =      -2.85734728 Ry
     cavitation energy         =       0.04193613 Ry
     electrolyte free energy   =      -0.06084083 Ry
     correction to one-el term =    -138.44563899 Ry

     iteration # 15     ecut=    80.00 Ry     beta= 0.20
     Davidson diagonalization with overlap

---- Real-time Memory Report at c_bands before calling an iterative solver
           714 MiB given to the printing process from OS
             0 MiB allocation reported by mallinfo(arena+hblkhd)
        470505 MiB available memory on the node where the printing process lives
------------------
     ethr =  3.18E-06,  avg # of iterations = 11.9

     negative rho (up, down):  4.782E-02 0.000E+00

     add environment contribution to local potential

     total cpu time spent up to now is     1141.0 secs

     total energy              =    -662.10706383 Ry
     estimated scf accuracy    <       0.00670119 Ry

     total charge of GC-SCF    =       5.39094665 e
     the Fermi energy          =      -4.59437530 eV
                        (error :       0.30962470 eV)
     electrostatic embedding   =      -3.25994865 Ry
     cavitation energy         =       0.04193613 Ry
     electrolyte free energy   =      -0.07007136 Ry
     correction to one-el term =    -148.02716187 Ry

     iteration # 16     ecut=    80.00 Ry     beta= 0.20
     Davidson diagonalization with overlap

---- Real-time Memory Report at c_bands before calling an iterative solver
           714 MiB given to the printing process from OS
             0 MiB allocation reported by mallinfo(arena+hblkhd)
        470463 MiB available memory on the node where the printing process lives
------------------
     ethr =  3.18E-06,  avg # of iterations = 16.9

     negative rho (up, down):  6.674E-02 0.000E+00

     add environment contribution to local potential

     total cpu time spent up to now is     1202.3 secs

     total energy              =    -662.10389463 Ry
     estimated scf accuracy    <       0.00382876 Ry

     total charge of GC-SCF    =       5.54657136 e
     the Fermi energy          =      -4.76039149 eV
                        (error :       0.14360851 eV)
     electrostatic embedding   =      -3.30617447 Ry
     cavitation energy         =       0.04193613 Ry
     electrolyte free energy   =      -0.07089129 Ry
     correction to one-el term =    -150.36345410 Ry

     iteration # 17     ecut=    80.00 Ry     beta= 0.20
     Davidson diagonalization with overlap

---- Real-time Memory Report at c_bands before calling an iterative solver
           714 MiB given to the printing process from OS
             0 MiB allocation reported by mallinfo(arena+hblkhd)
        470457 MiB available memory on the node where the printing process lives
------------------
     ethr =  3.03E-06,  avg # of iterations =  4.2

     negative rho (up, down):  4.824E-02 0.000E+00

     add environment contribution to local potential

     total cpu time spent up to now is     1237.6 secs

     total energy              =    -662.10048880 Ry
     estimated scf accuracy    <       0.00320496 Ry

     total charge of GC-SCF    =       5.67319697 e
     the Fermi energy          =      -4.79199682 eV
                        (error :       0.11200318 eV)
     electrostatic embedding   =      -3.51024061 Ry
     cavitation energy         =       0.04193613 Ry
     electrolyte free energy   =      -0.07531811 Ry
     correction to one-el term =    -154.76091129 Ry

     iteration # 18     ecut=    80.00 Ry     beta= 0.20
     Davidson diagonalization with overlap

---- Real-time Memory Report at c_bands before calling an iterative solver
           714 MiB given to the printing process from OS
             0 MiB allocation reported by mallinfo(arena+hblkhd)
        470471 MiB available memory on the node where the printing process lives
------------------
     ethr =  2.54E-06,  avg # of iterations = 11.0

     negative rho (up, down):  6.673E-04 0.000E+00

     add environment contribution to local potential

     total cpu time spent up to now is     1288.1 secs

     total energy              =    -662.10690439 Ry
     estimated scf accuracy    <       0.00121101 Ry

     total charge of GC-SCF    =       5.51376520 e
     the Fermi energy          =      -4.84721454 eV
                        (error :       0.05678546 eV)
     electrostatic embedding   =      -3.70787799 Ry
     cavitation energy         =       0.04193613 Ry
     electrolyte free energy   =      -0.07929059 Ry
     correction to one-el term =    -159.45958516 Ry

     iteration # 19     ecut=    80.00 Ry     beta= 0.20
     Davidson diagonalization with overlap

---- Real-time Memory Report at c_bands before calling an iterative solver
           714 MiB given to the printing process from OS
             0 MiB allocation reported by mallinfo(arena+hblkhd)
        470491 MiB available memory on the node where the printing process lives
------------------
     ethr =  9.57E-07,  avg # of iterations = 10.7

     negative rho (up, down):  4.968E-04 0.000E+00

     add environment contribution to local potential

     total cpu time spent up to now is     1339.3 secs

     total energy              =    -662.10200451 Ry
     estimated scf accuracy    <       0.00015109 Ry

     total charge of GC-SCF    =       5.63128371 e
     the Fermi energy          =      -4.82779907 eV
                        (error :       0.07620093 eV)
     electrostatic embedding   =      -3.53263702 Ry
     cavitation energy         =       0.04193613 Ry
     electrolyte free energy   =      -0.07484603 Ry
     correction to one-el term =    -156.54068809 Ry

     iteration # 20     ecut=    80.00 Ry     beta= 0.20
     Davidson diagonalization with overlap

---- Real-time Memory Report at c_bands before calling an iterative solver
           714 MiB given to the printing process from OS
             0 MiB allocation reported by mallinfo(arena+hblkhd)
        470467 MiB available memory on the node where the printing process lives
------------------
     ethr =  1.20E-07,  avg # of iterations = 28.7

     negative rho (up, down):  1.010E-03 0.000E+00

     add environment contribution to local potential

     total cpu time spent up to now is     1420.3 secs

     total energy              =    -662.10163876 Ry
     estimated scf accuracy    <       0.00003739 Ry

     total charge of GC-SCF    =       5.65592188 e
     the Fermi energy          =      -4.87497193 eV
                        (error :       0.02902807 eV)
     electrostatic embedding   =      -3.68093038 Ry
     cavitation energy         =       0.04193613 Ry
     electrolyte free energy   =      -0.07823140 Ry
     correction to one-el term =    -159.44393122 Ry

     iteration # 21     ecut=    80.00 Ry     beta= 0.20
     Davidson diagonalization with overlap

---- Real-time Memory Report at c_bands before calling an iterative solver
           714 MiB given to the printing process from OS
             0 MiB allocation reported by mallinfo(arena+hblkhd)
        470380 MiB available memory on the node where the printing process lives
------------------
     ethr =  2.96E-08,  avg # of iterations = 19.4

     negative rho (up, down):  2.622E-03 0.000E+00

     add environment contribution to local potential

     total cpu time spent up to now is     1487.5 secs

     total energy              =    -662.10197402 Ry
     estimated scf accuracy    <       0.00003035 Ry

     total charge of GC-SCF    =       5.72961968 e
     the Fermi energy          =      -4.88177759 eV
                        (error :       0.02222241 eV)
     electrostatic embedding   =      -3.71085247 Ry
     cavitation energy         =       0.04193613 Ry
     electrolyte free energy   =      -0.07894833 Ry
     correction to one-el term =    -159.99531815 Ry

     iteration # 22     ecut=    80.00 Ry     beta= 0.20
     Davidson diagonalization with overlap

---- Real-time Memory Report at c_bands before calling an iterative solver
           714 MiB given to the printing process from OS
             0 MiB allocation reported by mallinfo(arena+hblkhd)
        470379 MiB available memory on the node where the printing process lives
------------------
     c_bands:  1 eigenvalues not converged
     ethr =  2.40E-08,  avg # of iterations = 30.4

     negative rho (up, down):  1.790E-03 0.000E+00

     add environment contribution to local potential

     total cpu time spent up to now is     1574.4 secs

     total energy              =    -662.10075151 Ry
     estimated scf accuracy    <       0.00001192 Ry

     total charge of GC-SCF    =       5.71212566 e
     the Fermi energy          =      -4.92445488 eV
                        (error :       0.02045488 eV)
     electrostatic embedding   =      -3.80833980 Ry
     cavitation energy         =       0.04193613 Ry
     electrolyte free energy   =      -0.08119264 Ry
     correction to one-el term =    -162.00758320 Ry

     iteration # 23     ecut=    80.00 Ry     beta= 0.20
     Davidson diagonalization with overlap

---- Real-time Memory Report at c_bands before calling an iterative solver
           714 MiB given to the printing process from OS
             0 MiB allocation reported by mallinfo(arena+hblkhd)
        470372 MiB available memory on the node where the printing process lives
------------------
     ethr =  9.44E-09,  avg # of iterations = 15.4

     negative rho (up, down):  8.724E-04 0.000E+00

     add environment contribution to local potential

     total cpu time spent up to now is     1634.5 secs

     total energy              =    -662.10104540 Ry
     estimated scf accuracy    <       0.00000956 Ry

     total charge of GC-SCF    =       5.65607665 e
     the Fermi energy          =      -4.92342066 eV
                        (error :       0.01942066 eV)
     electrostatic embedding   =      -3.78535488 Ry
     cavitation energy         =       0.04193613 Ry
     electrolyte free energy   =      -0.08066340 Ry
     correction to one-el term =    -161.57814628 Ry

     iteration # 24     ecut=    80.00 Ry     beta= 0.20
     Davidson diagonalization with overlap

---- Real-time Memory Report at c_bands before calling an iterative solver
           714 MiB given to the printing process from OS
             0 MiB allocation reported by mallinfo(arena+hblkhd)
        470380 MiB available memory on the node where the printing process lives
------------------
     ethr =  7.57E-09,  avg # of iterations = 29.2

     negative rho (up, down):  7.552E-04 0.000E+00

     add environment contribution to local potential

     total cpu time spent up to now is     1721.0 secs

     total energy              =    -662.10158015 Ry
     estimated scf accuracy    <       0.00000648 Ry

     total charge of GC-SCF    =       5.64603802 e
     the Fermi energy          =      -4.89001400 eV
                        (error :       0.01398600 eV)
     electrostatic embedding   =      -3.70951531 Ry
     cavitation energy         =       0.04193613 Ry
     electrolyte free energy   =      -0.07895283 Ry
     correction to one-el term =    -160.01458241 Ry

     iteration # 25     ecut=    80.00 Ry     beta= 0.20
     Davidson diagonalization with overlap

---- Real-time Memory Report at c_bands before calling an iterative solver
           714 MiB given to the printing process from OS
             0 MiB allocation reported by mallinfo(arena+hblkhd)
        470401 MiB available memory on the node where the printing process lives
------------------
     ethr =  5.13E-09,  avg # of iterations = 11.9

     negative rho (up, down):  5.728E-04 0.000E+00

     add environment contribution to local potential

     total cpu time spent up to now is     1773.3 secs

     total energy              =    -662.10179011 Ry
     estimated scf accuracy    <       0.00000461 Ry

     total charge of GC-SCF    =       5.64218381 e
     the Fermi energy          =      -4.87752485 eV
                        (error :       0.02647515 eV)
     electrostatic embedding   =      -3.69558796 Ry
     cavitation energy         =       0.04193613 Ry
     electrolyte free energy   =      -0.07864227 Ry
     correction to one-el term =    -159.69963995 Ry

     iteration # 26     ecut=    80.00 Ry     beta= 0.20
     Davidson diagonalization with overlap

---- Real-time Memory Report at c_bands before calling an iterative solver
           714 MiB given to the printing process from OS
             0 MiB allocation reported by mallinfo(arena+hblkhd)
        470383 MiB available memory on the node where the printing process lives
------------------
     ethr =  3.65E-09,  avg # of iterations = 12.9

     negative rho (up, down):  5.509E-04 0.000E+00

     add environment contribution to local potential

     total cpu time spent up to now is     1824.7 secs

     total energy              =    -662.10171637 Ry
     estimated scf accuracy    <       0.00000275 Ry

     total charge of GC-SCF    =       5.67286374 e
     the Fermi energy          =      -4.87612866 eV
                        (error :       0.02787134 eV)
     electrostatic embedding   =      -3.69100955 Ry
     cavitation energy         =       0.04193613 Ry
     electrolyte free energy   =      -0.07852909 Ry
     correction to one-el term =    -159.60636405 Ry

     iteration # 27     ecut=    80.00 Ry     beta= 0.20
     Davidson diagonalization with overlap

---- Real-time Memory Report at c_bands before calling an iterative solver
           714 MiB given to the printing process from OS
             0 MiB allocation reported by mallinfo(arena+hblkhd)
        470376 MiB available memory on the node where the printing process lives
------------------
     c_bands:  1 eigenvalues not converged
     ethr =  2.18E-09,  avg # of iterations = 32.3

     negative rho (up, down):  5.223E-04 0.000E+00

     add environment contribution to local potential

     total cpu time spent up to now is     1918.1 secs

     total energy              =    -662.10141723 Ry
     estimated scf accuracy    <       0.00000079 Ry

     total charge of GC-SCF    =       5.66907375 e
     the Fermi energy          =      -4.89474754 eV
                        (error :       0.00925246 eV)
     electrostatic embedding   =      -3.73329206 Ry
     cavitation energy         =       0.04193613 Ry
     electrolyte free energy   =      -0.07946275 Ry
     correction to one-el term =    -160.49034932 Ry

     iteration # 28     ecut=    80.00 Ry     beta= 0.20
     Davidson diagonalization with overlap

---- Real-time Memory Report at c_bands before calling an iterative solver
           714 MiB given to the printing process from OS
             0 MiB allocation reported by mallinfo(arena+hblkhd)
        470368 MiB available memory on the node where the printing process lives
------------------
     ethr =  6.27E-10,  avg # of iterations = 17.6

     negative rho (up, down):  5.631E-04 0.000E+00

     add environment contribution to local potential

     total cpu time spent up to now is     1982.5 secs

     total energy              =    -662.10138428 Ry
     estimated scf accuracy    <       0.00000054 Ry

     total charge of GC-SCF    =       5.67378034 e
     the Fermi energy          =      -4.89619872 eV
                        (error :       0.00780128 eV)
     electrostatic embedding   =      -3.72862310 Ry
     cavitation energy         =       0.04193613 Ry
     electrolyte free energy   =      -0.07935283 Ry
     correction to one-el term =    -160.40990159 Ry

     iteration # 29     ecut=    80.00 Ry     beta= 0.20
     Davidson diagonalization with overlap

---- Real-time Memory Report at c_bands before calling an iterative solver
           714 MiB given to the printing process from OS
             0 MiB allocation reported by mallinfo(arena+hblkhd)
        470342 MiB available memory on the node where the printing process lives
------------------
     ethr =  4.27E-10,  avg # of iterations = 14.6

     negative rho (up, down):  5.885E-04 0.000E+00

     add environment contribution to local potential

     total cpu time spent up to now is     2039.4 secs

     total energy              =    -662.10131521 Ry
     estimated scf accuracy    <       0.00000020 Ry

     total charge of GC-SCF    =       5.67609019 e
     the Fermi energy          =      -4.90020145 eV
                        (error :       0.00379855 eV)
     electrostatic embedding   =      -3.73475440 Ry
     cavitation energy         =       0.04193613 Ry
     electrolyte free energy   =      -0.07949610 Ry
     correction to one-el term =    -160.54153643 Ry

     iteration # 30     ecut=    80.00 Ry     beta= 0.20
     Davidson diagonalization with overlap

---- Real-time Memory Report at c_bands before calling an iterative solver
           714 MiB given to the printing process from OS
             0 MiB allocation reported by mallinfo(arena+hblkhd)
        470320 MiB available memory on the node where the printing process lives
------------------
     ethr =  1.55E-10,  avg # of iterations = 13.4

     negative rho (up, down):  5.737E-04 0.000E+00

     add environment contribution to local potential

     total cpu time spent up to now is     2096.8 secs

     total energy              =    -662.10127857 Ry
     estimated scf accuracy    <       0.00000010 Ry

     total charge of GC-SCF    =       5.67555761 e
     the Fermi energy          =      -4.90232112 eV
                        (error :       0.00167888 eV)
     electrostatic embedding   =      -3.73776584 Ry
     cavitation energy         =       0.04193613 Ry
     electrolyte free energy   =      -0.07956658 Ry
     correction to one-el term =    -160.60642896 Ry

     iteration # 31     ecut=    80.00 Ry     beta= 0.20
     Davidson diagonalization with overlap

---- Real-time Memory Report at c_bands before calling an iterative solver
           714 MiB given to the printing process from OS
             0 MiB allocation reported by mallinfo(arena+hblkhd)
        470280 MiB available memory on the node where the printing process lives
------------------
     ethr =  7.68E-11,  avg # of iterations = 12.2

     negative rho (up, down):  5.645E-04 0.000E+00

     add environment contribution to local potential

     total cpu time spent up to now is     2147.3 secs

     total energy              =    -662.10127671 Ry
     estimated scf accuracy    <       0.00000006 Ry

     total charge of GC-SCF    =       5.67580892 e
     the Fermi energy          =      -4.90246361 eV
                        (error :       0.00153639 eV)
     electrostatic embedding   =      -3.73710869 Ry
     cavitation energy         =       0.04193613 Ry
     electrolyte free energy   =      -0.07955093 Ry
     correction to one-el term =    -160.59419339 Ry

     iteration # 32     ecut=    80.00 Ry     beta= 0.20
     Davidson diagonalization with overlap

---- Real-time Memory Report at c_bands before calling an iterative solver
           714 MiB given to the printing process from OS
             0 MiB allocation reported by mallinfo(arena+hblkhd)
        470322 MiB available memory on the node where the printing process lives
------------------
     ethr =  4.82E-11,  avg # of iterations = 12.6

     negative rho (up, down):  5.655E-04 0.000E+00

     add environment contribution to local potential

     total cpu time spent up to now is     2199.1 secs

     total energy              =    -662.10127125 Ry
     estimated scf accuracy    <       0.00000004 Ry

     total charge of GC-SCF    =       5.67619603 e
     the Fermi energy          =      -4.90279904 eV
                        (error :       0.00120096 eV)
     electrostatic embedding   =      -3.73750945 Ry
     cavitation energy         =       0.04193613 Ry
     electrolyte free energy   =      -0.07955888 Ry
     correction to one-el term =    -160.60267510 Ry

     iteration # 33     ecut=    80.00 Ry     beta= 0.20
     Davidson diagonalization with overlap

---- Real-time Memory Report at c_bands before calling an iterative solver
           714 MiB given to the printing process from OS
             0 MiB allocation reported by mallinfo(arena+hblkhd)
        470325 MiB available memory on the node where the printing process lives
------------------
     ethr =  2.82E-11,  avg # of iterations = 12.2

     negative rho (up, down):  5.669E-04 0.000E+00

     add environment contribution to local potential

     total cpu time spent up to now is     2252.9 secs

     total energy              =    -662.10126628 Ry
     estimated scf accuracy    <       0.00000002 Ry

     total charge of GC-SCF    =       5.67688603 e
     the Fermi energy          =      -4.90308699 eV
                        (error :       0.00091301 eV)
     electrostatic embedding   =      -3.73806089 Ry
     cavitation energy         =       0.04193613 Ry
     electrolyte free energy   =      -0.07957074 Ry
     correction to one-el term =    -160.61398404 Ry

     iteration # 34     ecut=    80.00 Ry     beta= 0.20
     Davidson diagonalization with overlap

---- Real-time Memory Report at c_bands before calling an iterative solver
           714 MiB given to the printing process from OS
             0 MiB allocation reported by mallinfo(arena+hblkhd)
        470370 MiB available memory on the node where the printing process lives
------------------
     ethr =  1.27E-11,  avg # of iterations = 11.4

     negative rho (up, down):  5.663E-04 0.000E+00

     add environment contribution to local potential

     total cpu time spent up to now is     2308.2 secs

     total energy              =    -662.10125430 Ry
     estimated scf accuracy    <          8.0E-09 Ry

     total charge of GC-SCF    =       5.67684591 e
     the Fermi energy          =      -4.90369295 eV
                        (error :       0.00030705 eV)
     electrostatic embedding   =      -3.73904048 Ry
     cavitation energy         =       0.04193613 Ry
     electrolyte free energy   =      -0.07959211 Ry
     correction to one-el term =    -160.63524777 Ry

     iteration # 35     ecut=    80.00 Ry     beta= 0.20
     Davidson diagonalization with overlap

---- Real-time Memory Report at c_bands before calling an iterative solver
           714 MiB given to the printing process from OS
             0 MiB allocation reported by mallinfo(arena+hblkhd)
        470350 MiB available memory on the node where the printing process lives
------------------
     ethr =  6.36E-12,  avg # of iterations = 12.7

     negative rho (up, down):  5.666E-04 0.000E+00

     add environment contribution to local potential

     total cpu time spent up to now is     2357.4 secs

     total energy              =    -662.10125506 Ry
     estimated scf accuracy    <          5.7E-09 Ry

     total charge of GC-SCF    =       5.67629572 e
     the Fermi energy          =      -4.90361034 eV
                        (error :       0.00038966 eV)
     electrostatic embedding   =      -3.73899421 Ry
     cavitation energy         =       0.04193613 Ry
     electrolyte free energy   =      -0.07959090 Ry
     correction to one-el term =    -160.63442654 Ry

     iteration # 36     ecut=    80.00 Ry     beta= 0.20
     Davidson diagonalization with overlap

---- Real-time Memory Report at c_bands before calling an iterative solver
           714 MiB given to the printing process from OS
             0 MiB allocation reported by mallinfo(arena+hblkhd)
        470356 MiB available memory on the node where the printing process lives
------------------
     ethr =  4.49E-12,  avg # of iterations = 14.9

     negative rho (up, down):  5.666E-04 0.000E+00

     add environment contribution to local potential

     total cpu time spent up to now is     2415.2 secs

     total energy              =    -662.10126259 Ry
     estimated scf accuracy    <          3.5E-09 Ry

     total charge of GC-SCF    =       5.67621449 e
     the Fermi energy          =      -4.90320221 eV
                        (error :       0.00079779 eV)
     electrostatic embedding   =      -3.73822367 Ry
     cavitation energy         =       0.04193613 Ry
     electrolyte free energy   =      -0.07957398 Ry
     correction to one-el term =    -160.61836050 Ry

     iteration # 37     ecut=    80.00 Ry     beta= 0.20
     Davidson diagonalization with overlap

---- Real-time Memory Report at c_bands before calling an iterative solver
           714 MiB given to the printing process from OS
             0 MiB allocation reported by mallinfo(arena+hblkhd)
        470309 MiB available memory on the node where the printing process lives
------------------
     ethr =  2.80E-12,  avg # of iterations = 12.7

     negative rho (up, down):  5.685E-04 0.000E+00

     add environment contribution to local potential

     total cpu time spent up to now is     2467.3 secs

     total energy              =    -662.10126298 Ry
     estimated scf accuracy    <          2.4E-09 Ry

     total charge of GC-SCF    =       5.67676188 e
     the Fermi energy          =      -4.90316217 eV
                        (error :       0.00083783 eV)
     electrostatic embedding   =      -3.73810869 Ry
     cavitation energy         =       0.04193613 Ry
     electrolyte free energy   =      -0.07957152 Ry
     correction to one-el term =    -160.61618065 Ry

     iteration # 38     ecut=    80.00 Ry     beta= 0.20
     Davidson diagonalization with overlap

---- Real-time Memory Report at c_bands before calling an iterative solver
           714 MiB given to the printing process from OS
             0 MiB allocation reported by mallinfo(arena+hblkhd)
        470350 MiB available memory on the node where the printing process lives
------------------
     ethr =  1.87E-12,  avg # of iterations = 23.7

     negative rho (up, down):  5.712E-04 0.000E+00

     add environment contribution to local potential

     total cpu time spent up to now is     2540.1 secs

     total energy              =    -662.10125715 Ry
     estimated scf accuracy    <          1.2E-09 Ry

     total charge of GC-SCF    =       5.67735327 e
     the Fermi energy          =      -4.90342636 eV
                        (error :       0.00057364 eV)
     electrostatic embedding   =      -3.73884695 Ry
     cavitation energy         =       0.04193613 Ry
     electrolyte free energy   =      -0.07958815 Ry
     correction to one-el term =    -160.63133909 Ry

     iteration # 39     ecut=    80.00 Ry     beta= 0.20
     Davidson diagonalization with overlap

---- Real-time Memory Report at c_bands before calling an iterative solver
           714 MiB given to the printing process from OS
             0 MiB allocation reported by mallinfo(arena+hblkhd)
        470336 MiB available memory on the node where the printing process lives
------------------
     c_bands:  1 eigenvalues not converged
     ethr =  9.78E-13,  avg # of iterations = 35.6

     negative rho (up, down):  5.718E-04 0.000E+00

     add environment contribution to local potential

     total cpu time spent up to now is     2637.0 secs

     total energy              =    -662.10125084 Ry
     estimated scf accuracy    <          6.7E-10 Ry

     total charge of GC-SCF    =       5.67775964 e
     the Fermi energy          =      -4.90374520 eV
                        (error :       0.00025480 eV)
     electrostatic embedding   =      -3.73963388 Ry
     cavitation energy         =       0.04193613 Ry
     electrolyte free energy   =      -0.07960607 Ry
     correction to one-el term =    -160.64741042 Ry

     iteration # 40     ecut=    80.00 Ry     beta= 0.20
     Davidson diagonalization with overlap

---- Real-time Memory Report at c_bands before calling an iterative solver
           714 MiB given to the printing process from OS
             0 MiB allocation reported by mallinfo(arena+hblkhd)
        470330 MiB available memory on the node where the printing process lives
------------------
     c_bands:  1 eigenvalues not converged
     ethr =  5.34E-13,  avg # of iterations = 31.2

     negative rho (up, down):  5.708E-04 0.000E+00

     add environment contribution to local potential

     total cpu time spent up to now is     2727.4 secs

     total energy              =    -662.10124462 Ry
     estimated scf accuracy    <          4.0E-10 Ry

     total charge of GC-SCF    =       5.67788793 e
     the Fermi energy          =      -4.90405264 eV
                        (error :       0.00005264 eV)
     electrostatic embedding   =      -3.74019418 Ry
     cavitation energy         =       0.04193613 Ry
     electrolyte free energy   =      -0.07961856 Ry
     correction to one-el term =    -160.65939408 Ry

     iteration # 41     ecut=    80.00 Ry     beta= 0.20
     Davidson diagonalization with overlap

---- Real-time Memory Report at c_bands before calling an iterative solver
           714 MiB given to the printing process from OS
             0 MiB allocation reported by mallinfo(arena+hblkhd)
        470331 MiB available memory on the node where the printing process lives
------------------
     ethr =  3.14E-13,  avg # of iterations = 14.3

     negative rho (up, down):  5.701E-04 0.000E+00

     add environment contribution to local potential

     total cpu time spent up to now is     2786.1 secs

     total energy              =    -662.10124199 Ry
     estimated scf accuracy    <          1.3E-10 Ry

     total charge of GC-SCF    =       5.67788785 e
     the Fermi energy          =      -4.90416747 eV
                        (error :       0.00016747 eV)
     electrostatic embedding   =      -3.74038708 Ry
     cavitation energy         =       0.04193613 Ry
     electrolyte free energy   =      -0.07962260 Ry
     correction to one-el term =    -160.66375471 Ry

     iteration # 42     ecut=    80.00 Ry     beta= 0.20
     Davidson diagonalization with overlap

---- Real-time Memory Report at c_bands before calling an iterative solver
           714 MiB given to the printing process from OS
             0 MiB allocation reported by mallinfo(arena+hblkhd)
        470331 MiB available memory on the node where the printing process lives
------------------
     ethr =  1.06E-13,  avg # of iterations = 15.1

     negative rho (up, down):  5.694E-04 0.000E+00

     add environment contribution to local potential

     total cpu time spent up to now is     2843.5 secs

     total energy              =    -662.10124174 Ry
     estimated scf accuracy    <          9.7E-11 Ry

     total charge of GC-SCF    =       5.67781762 e
     the Fermi energy          =      -4.90417320 eV
                        (error :       0.00017320 eV)
     electrostatic embedding   =      -3.74039476 Ry
     cavitation energy         =       0.04193613 Ry
     electrolyte free energy   =      -0.07962264 Ry
     correction to one-el term =    -160.66400845 Ry

     iteration # 43     ecut=    80.00 Ry     beta= 0.20
     Davidson diagonalization with overlap

---- Real-time Memory Report at c_bands before calling an iterative solver
           714 MiB given to the printing process from OS
             0 MiB allocation reported by mallinfo(arena+hblkhd)
        470320 MiB available memory on the node where the printing process lives
------------------
     ethr =  1.00E-13,  avg # of iterations = 14.2

     negative rho (up, down):  5.690E-04 0.000E+00

     add environment contribution to local potential

     total cpu time spent up to now is     2901.5 secs

     total energy              =    -662.10124275 Ry
     estimated scf accuracy    <          7.2E-11 Ry

     total charge of GC-SCF    =       5.67774317 e
     the Fermi energy          =      -4.90412205 eV
                        (error :       0.00012205 eV)
     electrostatic embedding   =      -3.74030167 Ry
     cavitation energy         =       0.04193613 Ry
     electrolyte free energy   =      -0.07962050 Ry
     correction to one-el term =    -160.66205137 Ry

     iteration # 44     ecut=    80.00 Ry     beta= 0.20
     Davidson diagonalization with overlap

---- Real-time Memory Report at c_bands before calling an iterative solver
           714 MiB given to the printing process from OS
             0 MiB allocation reported by mallinfo(arena+hblkhd)
        470337 MiB available memory on the node where the printing process lives
------------------
     ethr =  1.00E-13,  avg # of iterations = 13.2

     negative rho (up, down):  5.682E-04 0.000E+00

     add environment contribution to local potential

     total cpu time spent up to now is     2956.7 secs

     total energy              =    -662.10124373 Ry
     estimated scf accuracy    <          4.3E-11 Ry

     total charge of GC-SCF    =       5.67768744 e
     the Fermi energy          =      -4.90407793 eV
                        (error :       0.00007793 eV)
     electrostatic embedding   =      -3.74019987 Ry
     cavitation energy         =       0.04193613 Ry
     electrolyte free energy   =      -0.07961822 Ry
     correction to one-el term =    -160.65991928 Ry

     iteration # 45     ecut=    80.00 Ry     beta= 0.20
     Davidson diagonalization with overlap

---- Real-time Memory Report at c_bands before calling an iterative solver
           714 MiB given to the printing process from OS
             0 MiB allocation reported by mallinfo(arena+hblkhd)
        470310 MiB available memory on the node where the printing process lives
------------------
     ethr =  1.00E-13,  avg # of iterations = 14.4

     negative rho (up, down):  5.682E-04 0.000E+00

     add environment contribution to local potential

     total cpu time spent up to now is     3014.0 secs

     total energy              =    -662.10124446 Ry
     estimated scf accuracy    <          1.8E-11 Ry

     total charge of GC-SCF    =       5.67766792 e
     the Fermi energy          =      -4.90404260 eV
                        (error :       0.00004260 eV)
     electrostatic embedding   =      -3.74012708 Ry
     cavitation energy         =       0.04193613 Ry
     electrolyte free energy   =      -0.07961654 Ry
     correction to one-el term =    -160.65840521 Ry

     iteration # 46     ecut=    80.00 Ry     beta= 0.20
     Davidson diagonalization with overlap

---- Real-time Memory Report at c_bands before calling an iterative solver
           714 MiB given to the printing process from OS
             0 MiB allocation reported by mallinfo(arena+hblkhd)
        470327 MiB available memory on the node where the printing process lives
------------------
     ethr =  1.00E-13,  avg # of iterations =  7.2

     negative rho (up, down):  5.682E-04 0.000E+00

     add environment contribution to local potential

     total cpu time spent up to now is     3053.1 secs

     total energy              =    -662.10124488 Ry
     estimated scf accuracy    <          1.0E-11 Ry

     total charge of GC-SCF    =       5.67763653 e
     the Fermi energy          =      -4.90402116 eV
                        (error :       0.00002116 eV)
     electrostatic embedding   =      -3.74009967 Ry
     cavitation energy         =       0.04193613 Ry
     electrolyte free energy   =      -0.07961593 Ry
     correction to one-el term =    -160.65778600 Ry

     iteration # 47     ecut=    80.00 Ry     beta= 0.20
     Davidson diagonalization with overlap

---- Real-time Memory Report at c_bands before calling an iterative solver
           714 MiB given to the printing process from OS
             0 MiB allocation reported by mallinfo(arena+hblkhd)
        470328 MiB available memory on the node where the printing process lives
------------------
     ethr =  1.00E-13,  avg # of iterations = 10.5

     negative rho (up, down):  5.683E-04 0.000E+00

     add environment contribution to local potential

     total cpu time spent up to now is     3098.8 secs

     total energy              =    -662.10124536 Ry
     estimated scf accuracy    <          3.3E-12 Ry

     total charge of GC-SCF    =       5.67763785 e
     the Fermi energy          =      -4.90399906 eV
                        (error :       0.00000094 eV)
     electrostatic embedding   =      -3.74005525 Ry
     cavitation energy         =       0.04193613 Ry
     electrolyte free energy   =      -0.07961496 Ry
     correction to one-el term =    -160.65682975 Ry

     iteration # 48     ecut=    80.00 Ry     beta= 0.20
     Davidson diagonalization with overlap

---- Real-time Memory Report at c_bands before calling an iterative solver
           714 MiB given to the printing process from OS
             0 MiB allocation reported by mallinfo(arena+hblkhd)
        470293 MiB available memory on the node where the printing process lives
------------------
     ethr =  1.00E-13,  avg # of iterations = 10.1

     negative rho (up, down):  5.684E-04 0.000E+00

     add environment contribution to local potential

     total cpu time spent up to now is     3140.0 secs

     total energy              =    -662.10124540 Ry
     estimated scf accuracy    <          1.2E-12 Ry

     total charge of GC-SCF    =       5.67764681 e
     the Fermi energy          =      -4.90399678 eV
                        (error :       0.00000322 eV)
     electrostatic embedding   =      -3.74005589 Ry
     cavitation energy         =       0.04193613 Ry
     electrolyte free energy   =      -0.07961499 Ry
     correction to one-el term =    -160.65682369 Ry

     iteration # 49     ecut=    80.00 Ry     beta= 0.20
     Davidson diagonalization with overlap

---- Real-time Memory Report at c_bands before calling an iterative solver
           714 MiB given to the printing process from OS
             0 MiB allocation reported by mallinfo(arena+hblkhd)
        470316 MiB available memory on the node where the printing process lives
------------------
     ethr =  1.00E-13,  avg # of iterations =  9.9

     negative rho (up, down):  5.685E-04 0.000E+00

     add environment contribution to local potential

     total cpu time spent up to now is     3179.0 secs

     total energy              =    -662.10124527 Ry
     estimated scf accuracy    <          7.4E-13 Ry

     total charge of GC-SCF    =       5.67765109 e
     the Fermi energy          =      -4.90400340 eV
                        (error :       0.00000340 eV)
     electrostatic embedding   =      -3.74006776 Ry
     cavitation energy         =       0.04193613 Ry
     electrolyte free energy   =      -0.07961526 Ry
     correction to one-el term =    -160.65707479 Ry

     iteration # 50     ecut=    80.00 Ry     beta= 0.20
     Davidson diagonalization with overlap

---- Real-time Memory Report at c_bands before calling an iterative solver
           714 MiB given to the printing process from OS
             0 MiB allocation reported by mallinfo(arena+hblkhd)
        470341 MiB available memory on the node where the printing process lives
------------------
     ethr =  1.00E-13,  avg # of iterations =  8.3

     negative rho (up, down):  5.685E-04 0.000E+00

     add environment contribution to local potential

     total cpu time spent up to now is     3216.0 secs

     total energy              =    -662.10124521 Ry
     estimated scf accuracy    <          3.8E-13 Ry

     total charge of GC-SCF    =       5.67764843 e
     the Fermi energy          =      -4.90400643 eV
                        (error :       0.00000643 eV)
     electrostatic embedding   =      -3.74007315 Ry
     cavitation energy         =       0.04193613 Ry
     electrolyte free energy   =      -0.07961539 Ry
     correction to one-el term =    -160.65718610 Ry

     iteration # 51     ecut=    80.00 Ry     beta= 0.20
     Davidson diagonalization with overlap

---- Real-time Memory Report at c_bands before calling an iterative solver
           714 MiB given to the printing process from OS
             0 MiB allocation reported by mallinfo(arena+hblkhd)
        470346 MiB available memory on the node where the printing process lives
------------------
     ethr =  1.00E-13,  avg # of iterations =  2.0

     negative rho (up, down):  5.685E-04 0.000E+00

     add environment contribution to local potential

     total cpu time spent up to now is     3246.1 secs

     total energy              =    -662.10124524 Ry
     estimated scf accuracy    <          2.0E-13 Ry

     total charge of GC-SCF    =       5.67764420 e
     the Fermi energy          =      -4.90400478 eV
                        (error :       0.00000478 eV)
     electrostatic embedding   =      -3.74006939 Ry
     cavitation energy         =       0.04193613 Ry
     electrolyte free energy   =      -0.07961531 Ry
     correction to one-el term =    -160.65710799 Ry

     iteration # 52     ecut=    80.00 Ry     beta= 0.20
     Davidson diagonalization with overlap

---- Real-time Memory Report at c_bands before calling an iterative solver
           714 MiB given to the printing process from OS
             0 MiB allocation reported by mallinfo(arena+hblkhd)
        470340 MiB available memory on the node where the printing process lives
------------------
     ethr =  1.00E-13,  avg # of iterations =  2.1

     negative rho (up, down):  5.684E-04 0.000E+00

     add environment contribution to local potential

     total cpu time spent up to now is     3276.4 secs

     total energy              =    -662.10124529 Ry
     estimated scf accuracy    <          9.6E-14 Ry

     total charge of GC-SCF    =       5.67764183 e
     the Fermi energy          =      -4.90400179 eV
                        (error :       0.00000179 eV)
     electrostatic embedding   =      -3.74006358 Ry
     cavitation energy         =       0.04193613 Ry
     electrolyte free energy   =      -0.07961518 Ry
     correction to one-el term =    -160.65698668 Ry

     iteration # 53     ecut=    80.00 Ry     beta= 0.20
     Davidson diagonalization with overlap

---- Real-time Memory Report at c_bands before calling an iterative solver
           714 MiB given to the printing process from OS
             0 MiB allocation reported by mallinfo(arena+hblkhd)
        470291 MiB available memory on the node where the printing process lives
------------------
     ethr =  1.00E-13,  avg # of iterations =  4.0

     negative rho (up, down):  5.684E-04 0.000E+00

     add environment contribution to local potential

     total cpu time spent up to now is     3308.6 secs

     total energy              =    -662.10124533 Ry
     estimated scf accuracy    <          4.7E-14 Ry

     total charge of GC-SCF    =       5.67763991 e
     the Fermi energy          =      -4.90399997 eV
                        (error :       0.00000003 eV)
     electrostatic embedding   =      -3.74006049 Ry
     cavitation energy         =       0.04193613 Ry
     electrolyte free energy   =      -0.07961511 Ry
     correction to one-el term =    -160.65692323 Ry

     iteration # 54     ecut=    80.00 Ry     beta= 0.20
     Davidson diagonalization with overlap

---- Real-time Memory Report at c_bands before calling an iterative solver
           714 MiB given to the printing process from OS
             0 MiB allocation reported by mallinfo(arena+hblkhd)
        470324 MiB available memory on the node where the printing process lives
------------------
     ethr =  1.00E-13,  avg # of iterations =  3.2

     negative rho (up, down):  5.684E-04 0.000E+00

     add environment contribution to local potential

     total cpu time spent up to now is     3339.6 secs

     total energy              =    -662.10124535 Ry
[...]
     atom    9 type  1   force =    -0.00055063   -0.02855938   -6.15875286
     atom   10 type  1   force =    -0.00007970   -0.12062384   -8.17371272
     atom   11 type  1   force =     0.00024195   -0.04614479   -9.61533803
     atom   12 type  1   force =     0.00007903    0.12060191    8.17371132
     atom   13 type  1   force =     0.00055136    0.02856258    6.15875585
     atom   14 type  1   force =    -0.00044930   -0.06173177    3.09411817
     atom   15 type  1   force =    -0.00031101    0.04173896    0.40519187
     atom   16 type  1   force =     0.00050264    0.00136730   -2.10045355
     atom   17 type  1   force =    -0.00029824   -0.07607468   -3.98672274
     atom   18 type  1   force =    -0.00059679    0.07659195   -6.70308975
     atom   19 type  1   force =     0.00042494    0.15277541   -9.29322807
     atom   20 type  1   force =    -0.00008280   -0.04994085  -11.52797879
     atom   21 type  1   force =     0.00009256   -0.03078155   11.83781301
     atom   22 type  1   force =    -0.00024175    0.04614210    9.61533073
     atom   23 type  1   force =    -0.00009225    0.03078843  -11.83781563
     atom   24 type  1   force =     0.00008321    0.04993324   11.52798146
     atom   25 type  1   force =    -0.00042526   -0.15275937    9.29323098
     atom   26 type  1   force =     0.00059691   -0.07658155    6.70309610
     atom   27 type  1   force =     0.00029814    0.07606731    3.98672072
     atom   28 type  1   force =    -0.00050292   -0.00135123    2.10043450
     atom   29 type  1   force =     0.00031020   -0.04174062   -0.40517977
     atom   30 type  1   force =     0.00044950    0.06172015   -3.09411501
     atom   31 type  1   force =    -0.00055017   -0.02855909   -6.15875331
     atom   32 type  1   force =    -0.00008017   -0.12062411   -8.17371134
     atom   33 type  1   force =     0.00024180   -0.04614477   -9.61533703
     atom   34 type  1   force =     0.00007909    0.12060188    8.17371255
     atom   35 type  1   force =     0.00055149    0.02856316    6.15875589
     atom   36 type  1   force =    -0.00044925   -0.06173173    3.09411818
     atom   37 type  1   force =    -0.00031038    0.04173903    0.40519236
     atom   38 type  1   force =     0.00050234    0.00136742   -2.10045312
     atom   39 type  1   force =    -0.00029834   -0.07607529   -3.98672172
     atom   40 type  1   force =    -0.00059693    0.07659178   -6.70308992
     atom   41 type  1   force =     0.00042460    0.15277549   -9.29322805
     atom   42 type  1   force =    -0.00008280   -0.04994097  -11.52797887
     atom   43 type  1   force =     0.00009197   -0.03078158   11.83781291
     atom   44 type  1   force =    -0.00024147    0.04614201    9.61533217
     The local contribution  to forces
     atom    1 type  1   force =     0.00012310   -0.02543224   11.78628994
     atom    2 type  1   force =    -0.00008430   -0.04516425  -11.57120522
     atom    3 type  1   force =     0.00052914    0.17033079   -9.45810219
     atom    4 type  1   force =    -0.00057172    0.08110091   -6.77149453
     atom    5 type  1   force =    -0.00030956   -0.08131162   -4.04380922
     atom    6 type  1   force =     0.00059916    0.00182970   -2.12872065
     atom    7 type  1   force =    -0.00038996    0.04583769    0.41312158
     atom    8 type  1   force =    -0.00046031   -0.06625339    3.12779943
     atom    9 type  1   force =     0.00065190    0.03099062    6.22951974
     atom   10 type  1   force =    -0.00003156    0.12138662    8.31124984
     atom   11 type  1   force =    -0.00029372    0.06262421    9.77470147
     atom   12 type  1   force =     0.00003233   -0.12136366   -8.31124953
     atom   13 type  1   force =    -0.00065266   -0.03099437   -6.22952290
     atom   14 type  1   force =     0.00045954    0.06626488   -3.12780390
     atom   15 type  1   force =     0.00039097   -0.04583577   -0.41313476
     atom   16 type  1   force =    -0.00059935   -0.00184556    2.12874032
     atom   17 type  1   force =     0.00030936    0.08131860    4.04381119
     atom   18 type  1   force =     0.00057150   -0.08111221    6.77148753
     atom   19 type  1   force =    -0.00052831   -0.17034643    9.45810004
     atom   20 type  1   force =     0.00008374    0.04517332   11.57120073
     atom   21 type  1   force =    -0.00012348    0.02542435  -11.78628654
     atom   22 type  1   force =     0.00029354   -0.06262237   -9.77469566
     atom   23 type  1   force =     0.00012317   -0.02543228   11.78628982
     atom   24 type  1   force =    -0.00008417   -0.04516424  -11.57120517
     atom   25 type  1   force =     0.00052871    0.17033059   -9.45810276
     atom   26 type  1   force =    -0.00057161    0.08110133   -6.77149474
     atom   27 type  1   force =    -0.00030928   -0.08131130   -4.04381000
     atom   28 type  1   force =     0.00059960    0.00182990   -2.12872185
     atom   29 type  1   force =    -0.00039018    0.04583782    0.41312192
     atom   30 type  1   force =    -0.00045971   -0.06625353    3.12779986
     atom   31 type  1   force =     0.00065146    0.03099036    6.22952021
     atom   32 type  1   force =    -0.00003107    0.12138689    8.31124840
     atom   33 type  1   force =    -0.00029357    0.06262424    9.77470041
     atom   34 type  1   force =     0.00003227   -0.12136363   -8.31125081
     atom   35 type  1   force =    -0.00065278   -0.03099495   -6.22952293
     atom   36 type  1   force =     0.00045947    0.06626484   -3.12780392
     atom   37 type  1   force =     0.00039035   -0.04583585   -0.41313525
     atom   38 type  1   force =    -0.00059902   -0.00184568    2.12873990
     atom   39 type  1   force =     0.00030946    0.08131920    4.04381016
     atom   40 type  1   force =     0.00057163   -0.08111205    6.77148769
     atom   41 type  1   force =    -0.00052794   -0.17034653    9.45810000
     atom   42 type  1   force =     0.00008372    0.04517344   11.57120073
     atom   43 type  1   force =    -0.00012290    0.02542438  -11.78628636
     atom   44 type  1   force =     0.00029326   -0.06262222   -9.77469722
     The core correction contribution to forces
     atom    1 type  1   force =     0.00000000    0.00000000    0.00000000
     atom    2 type  1   force =     0.00000000    0.00000000    0.00000000
     atom    3 type  1   force =     0.00000000    0.00000000    0.00000000
     atom    4 type  1   force =     0.00000000    0.00000000    0.00000000
     atom    5 type  1   force =     0.00000000    0.00000000    0.00000000
     atom    6 type  1   force =     0.00000000    0.00000000    0.00000000
     atom    7 type  1   force =     0.00000000    0.00000000    0.00000000
     atom    8 type  1   force =     0.00000000    0.00000000    0.00000000
     atom    9 type  1   force =     0.00000000    0.00000000    0.00000000
     atom   10 type  1   force =     0.00000000    0.00000000    0.00000000
     atom   11 type  1   force =     0.00000000    0.00000000    0.00000000
     atom   12 type  1   force =     0.00000000    0.00000000    0.00000000
     atom   13 type  1   force =     0.00000000    0.00000000    0.00000000
     atom   14 type  1   force =     0.00000000    0.00000000    0.00000000
     atom   15 type  1   force =     0.00000000    0.00000000    0.00000000
     atom   16 type  1   force =     0.00000000    0.00000000    0.00000000
     atom   17 type  1   force =     0.00000000    0.00000000    0.00000000
     atom   18 type  1   force =     0.00000000    0.00000000    0.00000000
     atom   19 type  1   force =     0.00000000    0.00000000    0.00000000
     atom   20 type  1   force =     0.00000000    0.00000000    0.00000000
     atom   21 type  1   force =     0.00000000    0.00000000    0.00000000
     atom   22 type  1   force =     0.00000000    0.00000000    0.00000000
     atom   23 type  1   force =     0.00000000    0.00000000    0.00000000
     atom   24 type  1   force =     0.00000000    0.00000000    0.00000000
     atom   25 type  1   force =     0.00000000    0.00000000    0.00000000
     atom   26 type  1   force =     0.00000000    0.00000000    0.00000000
     atom   27 type  1   force =     0.00000000    0.00000000    0.00000000
     atom   28 type  1   force =     0.00000000    0.00000000    0.00000000
     atom   29 type  1   force =     0.00000000    0.00000000    0.00000000
     atom   30 type  1   force =     0.00000000    0.00000000    0.00000000
     atom   31 type  1   force =     0.00000000    0.00000000    0.00000000
     atom   32 type  1   force =     0.00000000    0.00000000    0.00000000
     atom   33 type  1   force =     0.00000000    0.00000000    0.00000000
     atom   34 type  1   force =     0.00000000    0.00000000    0.00000000
     atom   35 type  1   force =     0.00000000    0.00000000    0.00000000
     atom   36 type  1   force =     0.00000000    0.00000000    0.00000000
     atom   37 type  1   force =     0.00000000    0.00000000    0.00000000
     atom   38 type  1   force =     0.00000000    0.00000000    0.00000000
     atom   39 type  1   force =     0.00000000    0.00000000    0.00000000
     atom   40 type  1   force =     0.00000000    0.00000000    0.00000000
     atom   41 type  1   force =     0.00000000    0.00000000    0.00000000
     atom   42 type  1   force =     0.00000000    0.00000000    0.00000000
     atom   43 type  1   force =     0.00000000    0.00000000    0.00000000
     atom   44 type  1   force =     0.00000000    0.00000000    0.00000000
     The Hubbard contrib.    to forces
     atom    1 type  1   force =     0.00000000    0.00000000    0.00000000
     atom    2 type  1   force =     0.00000000    0.00000000    0.00000000
     atom    3 type  1   force =     0.00000000    0.00000000    0.00000000
     atom    4 type  1   force =     0.00000000    0.00000000    0.00000000
     atom    5 type  1   force =     0.00000000    0.00000000    0.00000000
     atom    6 type  1   force =     0.00000000    0.00000000    0.00000000
     atom    7 type  1   force =     0.00000000    0.00000000    0.00000000
     atom    8 type  1   force =     0.00000000    0.00000000    0.00000000
     atom    9 type  1   force =     0.00000000    0.00000000    0.00000000
     atom   10 type  1   force =     0.00000000    0.00000000    0.00000000
     atom   11 type  1   force =     0.00000000    0.00000000    0.00000000
     atom   12 type  1   force =     0.00000000    0.00000000    0.00000000
     atom   13 type  1   force =     0.00000000    0.00000000    0.00000000
     atom   14 type  1   force =     0.00000000    0.00000000    0.00000000
     atom   15 type  1   force =     0.00000000    0.00000000    0.00000000
     atom   16 type  1   force =     0.00000000    0.00000000    0.00000000
     atom   17 type  1   force =     0.00000000    0.00000000    0.00000000
     atom   18 type  1   force =     0.00000000    0.00000000    0.00000000
     atom   19 type  1   force =     0.00000000    0.00000000    0.00000000
     atom   20 type  1   force =     0.00000000    0.00000000    0.00000000
     atom   21 type  1   force =     0.00000000    0.00000000    0.00000000
     atom   22 type  1   force =     0.00000000    0.00000000    0.00000000
     atom   23 type  1   force =     0.00000000    0.00000000    0.00000000
     atom   24 type  1   force =     0.00000000    0.00000000    0.00000000
     atom   25 type  1   force =     0.00000000    0.00000000    0.00000000
     atom   26 type  1   force =     0.00000000    0.00000000    0.00000000
     atom   27 type  1   force =     0.00000000    0.00000000    0.00000000
     atom   28 type  1   force =     0.00000000    0.00000000    0.00000000
     atom   29 type  1   force =     0.00000000    0.00000000    0.00000000
     atom   30 type  1   force =     0.00000000    0.00000000    0.00000000
     atom   31 type  1   force =     0.00000000    0.00000000    0.00000000
     atom   32 type  1   force =     0.00000000    0.00000000    0.00000000
     atom   33 type  1   force =     0.00000000    0.00000000    0.00000000
     atom   34 type  1   force =     0.00000000    0.00000000    0.00000000
     atom   35 type  1   force =     0.00000000    0.00000000    0.00000000
     atom   36 type  1   force =     0.00000000    0.00000000    0.00000000
     atom   37 type  1   force =     0.00000000    0.00000000    0.00000000
     atom   38 type  1   force =     0.00000000    0.00000000    0.00000000
     atom   39 type  1   force =     0.00000000    0.00000000    0.00000000
     atom   40 type  1   force =     0.00000000    0.00000000    0.00000000
     atom   41 type  1   force =     0.00000000    0.00000000    0.00000000
     atom   42 type  1   force =     0.00000000    0.00000000    0.00000000
     atom   43 type  1   force =     0.00000000    0.00000000    0.00000000
     atom   44 type  1   force =     0.00000000    0.00000000    0.00000000
     The SCF correction term to forces
     atom    1 type  1   force =    -0.00000000   -0.00000000    0.00000001
     atom    2 type  1   force =     0.00000000   -0.00000000   -0.00000001
     atom    3 type  1   force =     0.00000000    0.00000000   -0.00000000
     atom    4 type  1   force =     0.00000000   -0.00000000   -0.00000000
     atom    5 type  1   force =     0.00000000   -0.00000000   -0.00000000
     atom    6 type  1   force =     0.00000000    0.00000000   -0.00000000
     atom    7 type  1   force =     0.00000000    0.00000000   -0.00000000
     atom    8 type  1   force =     0.00000000   -0.00000000   -0.00000000
     atom    9 type  1   force =     0.00000000   -0.00000000   -0.00000000
     atom   10 type  1   force =     0.00000000    0.00000000    0.00000000
     atom   11 type  1   force =     0.00000000    0.00000000    0.00000000
     atom   12 type  1   force =     0.00000000   -0.00000000   -0.00000000
     atom   13 type  1   force =     0.00000000    0.00000000   -0.00000000
     atom   14 type  1   force =     0.00000000    0.00000000    0.00000000
     atom   15 type  1   force =    -0.00000000   -0.00000000   -0.00000000
     atom   16 type  1   force =     0.00000000   -0.00000000   -0.00000000
     atom   17 type  1   force =     0.00000000    0.00000000   -0.00000000
     atom   18 type  1   force =    -0.00000000    0.00000000    0.00000000
     atom   19 type  1   force =     0.00000000   -0.00000000    0.00000000
     atom   20 type  1   force =     0.00000000    0.00000000    0.00000001
     atom   21 type  1   force =     0.00000000    0.00000000   -0.00000001
     atom   22 type  1   force =     0.00000000   -0.00000000   -0.00000000
     atom   23 type  1   force =    -0.00000000   -0.00000000    0.00000001
     atom   24 type  1   force =    -0.00000000   -0.00000000   -0.00000001
     atom   25 type  1   force =    -0.00000000    0.00000000   -0.00000000
     atom   26 type  1   force =    -0.00000000   -0.00000000   -0.00000000
     atom   27 type  1   force =    -0.00000000   -0.00000000   -0.00000000
     atom   28 type  1   force =    -0.00000000    0.00000000   -0.00000000
     atom   29 type  1   force =    -0.00000000    0.00000000   -0.00000000
     atom   30 type  1   force =    -0.00000000   -0.00000000   -0.00000000
     atom   31 type  1   force =    -0.00000000   -0.00000000    0.00000000
     atom   32 type  1   force =    -0.00000000   -0.00000000   -0.00000000
     atom   33 type  1   force =    -0.00000000   -0.00000000    0.00000000
     atom   34 type  1   force =    -0.00000000   -0.00000000   -0.00000000
     atom   35 type  1   force =    -0.00000000    0.00000000   -0.00000000
     atom   36 type  1   force =    -0.00000000    0.00000000    0.00000000
     atom   37 type  1   force =     0.00000000   -0.00000000   -0.00000000
     atom   38 type  1   force =    -0.00000000   -0.00000000   -0.00000000
     atom   39 type  1   force =    -0.00000000    0.00000000   -0.00000000
     atom   40 type  1   force =     0.00000000    0.00000000   -0.00000000
     atom   41 type  1   force =    -0.00000000   -0.00000000    0.00000000
     atom   42 type  1   force =    -0.00000000    0.00000000    0.00000001
     atom   43 type  1   force =     0.00000000    0.00000000   -0.00000001
     atom   44 type  1   force =    -0.00000000   -0.00000000   -0.00000000

     Total force =     0.010178     Total SCF correction =     0.000000

     Writing all to output data dir ./Li/Lithium.save/ :
     XML data file
     init_run     :     22.83s CPU     33.57s WALL (       1 calls)
     electrons    :   2912.04s CPU   3759.91s WALL (       1 calls)
     forces       :     32.37s CPU     34.15s WALL (       1 calls)

     Called by init_run:
     wfcinit      :      3.99s CPU      5.84s WALL (       1 calls)
     wfcinit:wfcr :      3.68s CPU      5.51s WALL (      15 calls)
     potinit      :      1.22s CPU      1.28s WALL (       1 calls)
     hinit0       :      7.58s CPU     16.14s WALL (       1 calls)

     Called by electrons:
     c_bands      :   1963.13s CPU   2611.84s WALL (      70 calls)
     sum_band     :    132.10s CPU    195.29s WALL (      70 calls)
     v_of_rho     :      7.09s CPU      8.32s WALL (      71 calls)
     v_h          :      0.58s CPU      0.72s WALL (      71 calls)
     v_xc         :      6.51s CPU      7.59s WALL (      71 calls)
     newd         :      3.82s CPU      5.46s WALL (      71 calls)
     PAW_pot      :      0.56s CPU      0.88s WALL (      71 calls)
     mix_rho      :     22.04s CPU     26.43s WALL (      70 calls)

     Called by c_bands:
     init_us_2    :     24.41s CPU     24.68s WALL (    2130 calls)
     cegterg      :   1884.05s CPU   2428.40s WALL (    1337 calls)

     Called by sum_band:
     sum_band:wei :      0.14s CPU      0.17s WALL (      70 calls)
     sum_band:loo :    128.65s CPU    190.03s WALL (      70 calls)
     sum_band:buf :      2.20s CPU      2.36s WALL (    1050 calls)
     sum_band:ini :     12.39s CPU     12.42s WALL (    1050 calls)
     sum_band:cal :     21.07s CPU     23.20s WALL (    1050 calls)
     sum_band:bec :      0.20s CPU      0.23s WALL (    1050 calls)
     addusdens    :      2.55s CPU      3.89s WALL (      70 calls)
                                        0.00s GPU  (      70 calls)
     addusd:skk   :      0.27s CPU      0.91s WALL (      70 calls)
                                        0.00s GPU  (      70 calls)

     Called by *egterg:
     cdiaghg      :    533.92s CPU    554.99s WALL (   15802 calls)
     cegterg:over :    111.17s CPU    122.38s WALL (   14553 calls)
     cegterg:upda :     84.31s CPU     86.85s WALL (   14553 calls)
     cegterg:last :     33.43s CPU     33.58s WALL (    1666 calls)
     h_psi        :    982.29s CPU   1476.64s WALL (   15905 calls)
     s_psi        :     98.16s CPU    100.34s WALL (   15905 calls)
     g_psi        :      1.20s CPU      1.30s WALL (   14553 calls)

     Called by h_psi:
     h_psi:calbec :    124.68s CPU    140.18s WALL (   15905 calls)
     vloc_psi     :    752.95s CPU   1226.90s WALL (   15905 calls)
                                        0.00s GPU  (   15905 calls)
     add_vuspsi   :    100.17s CPU    101.93s WALL (   15905 calls)

     General routines
     calbec       :    146.65s CPU    164.39s WALL (   17015 calls)
     fft          :      8.54s CPU     18.21s WALL (     923 calls)
     ffts         :     13.23s CPU     16.18s WALL (    8628 calls)
     fftw         :    811.00s CPU   1327.13s WALL (  966652 calls)
     interpolate  :      1.62s CPU      1.74s WALL (      71 calls)

     Parallel routines

     PAW routines
     PAW_pot      :      0.56s CPU      0.88s WALL (      71 calls)

     Environ routines

     PWSCF        :  49m27.38s CPU      1h 3m WALL


   This run was terminated on:   5:27:44  20Jan2025            

=------------------------------------------------------------------------------=
   JOB DONE.
=------------------------------------------------------------------------------=
