
     Program PWSCF v.7.4 starts on  3Jan2025 at 16: 0:49 

     This program is part of the open-source Quantum ESPRESSO suite
     for quantum simulation of materials; please cite
         "P. Giannozzi et al., J. Phys.:Condens. Matter 21 395502 (2009);
         "P. Giannozzi et al., J. Phys.:Condens. Matter 29 465901 (2017);
         "P. Giannozzi et al., J. Chem. Phys. 152 154105 (2020);
          URL http://www.quantum-espresso.org", 
     in publications or presentations arising from this work. More details at
     http://www.quantum-espresso.org/quote

     Parallel version (MPI & OpenMP), running on     384 processor cores
     Number of MPI processes:               384
     Threads/MPI process:                     1

     MPI processes distributed on     3 nodes
     230686 MiB available memory on the printing compute node when the environment starts

     Reading input from espresso.pwi
Warning: card &CELL ignored
Warning: card    PRESS_CONV_THR   = 0.1 ignored
Warning: card    CELL_DOFREE      = 'ALL' ignored
Warning: card / ignored
Warning: card &FCP ignored
Warning: card / ignored
Warning: card &RISM ignored
Warning: card / ignored

     Current dimensions of program PWSCF are:
     Max number of different atomic species (ntypx) = 10
     Max number of k-points (npk) =  40000
     Max angular momentum in pseudopotentials (lmaxx) =  4

     IMPORTANT: XC functional enforced from input :
     Exchange-correlation= PBE
                           (   1   4   3   4   0   0   0)
     Any further DFT definition will be discarded
     Please, verify this is what you really want


     Reading input from environ.in:
     * using ionic solvent mode
     * setting boundary derivatives method to SSCS default
     * setting electrolyte-boundary derivatives method to SSCS default

Environ Warning (1001): card EOF ignored

     
     Found identity + (  0.5000  0.0000  0.0000) symmetry
     This is a supercell, fractional translations are disabled

     K-points division:     npool     =       2
     R & G space division:  proc/nbgrp/npool/nimage =     192
     Subspace diagonalization in iterative solution of the eigenvalue problem:
     a serial algorithm will be used


     Parallelization info
     --------------------
     sticks:   dense  smooth     PW     G-vecs:    dense   smooth      PW
     Min          62      25      6                33436     8439    1136
     Max          63      27      7                33505     8489    1207
     Sum       11999    4803   1285              6425037  1625491  225007

     Using Slab Decomposition



     bravais-lattice index     =            8
     lattice parameter (alat)  =      12.9830  a.u.
     unit-cell volume          =   16814.9378 (a.u.)^3
     number of atoms/cell      =           20
     number of atomic types    =            1
     number of electrons       =        60.00
     number of Kohn-Sham states=           45
     kinetic-energy cutoff     =      80.0000  Ry
     charge density cutoff     =     800.0000  Ry
     scf convergence threshold =      1.0E-06
     mixing beta               =       0.2000
     number of iterations used =            8  local-TF  mixing
     energy convergence thresh.=      1.0E-05
     force convergence thresh. =      3.9E-04
     Exchange-correlation= PBE
                           (   1   4   3   4   0   0   0)
     nstep                     =          999


     ================================================================================

                                  Environ Setup Summary

     ================================================================================

     Please cite

          O. Andreussi, I. Dabo and N. Marzari, J. Chem. Phys. 136, 064102 (2012)
          F. Nattino, M. Truscott, N. Marzari, and O. Andreussi, J. Chem. Phys. 150, 041722 (2019)

     in publications or presentations arising from this work.

     ================================================================================

     Parameters
     ==========

     compensation onset threshold      =               0.1000E+00
     static permittivity               =                    89.90
     surface tension in input (dyn/cm) =                    37.30
     surface tension in internal units =               0.4792E-04

     Solvent Boundary
     ================

     solvent mode                      =                    ionic
     derivatives method                =                   lowmem
     electrolyte derivatives method    =                   lowmem
     numerical core for derivatives    =                      fft
     switching function adopted        =                     SCCS
     density limit for vacuum region   =               0.5000E-02
     density limit for bulk solvent    =               0.1000E-03
     soft-sphere radius mode           =                    bondi
     soft-sphere softness              =                     0.50
     alpha                             =                     1.32

     Electrostatic Setup
     ===================

     electrostatic problem to solve    =                    modpb
     numerical solver adopted          =                   newton
     type of auxiliary density adopted =                     none
     numerical core for poisson        =                      fft
     adopting a nested solver scheme
     inner solver                      =                       cg
     inner core                        =                      fft
     type of pbc corrections           =                parabolic
     numerical core for corrections    =                      1da

     ================================================================================


     >>>>> Grand-Canonical SCF is activated <<<<<
     Initial Total Charge  =     0.000000 e
     Target Fermi Energy   =    -1.904000 eV
     Thr. of Fermi Energy  =     0.001000 eV
     Wave-shift of Kerker  =     0.400000 bohr^-1
     Wave-shift of Hartree =     1.500000 bohr^-1
     Mixing Rate of Fermi  =     0.050000

     celldm(1)=  12.983009  celldm(2)=   1.118034  celldm(3)=   6.872491
     celldm(4)=   0.000000  celldm(5)=   0.000000  celldm(6)=   0.000000

     crystal axes: (cart. coord. in units of alat)
               a(1) = (   1.000000   0.000000   0.000000 )  
               a(2) = (   0.000000   1.118034   0.000000 )  
               a(3) = (   0.000000   0.000000   6.872491 )  

     reciprocal axes: (cart. coord. in units 2 pi/alat)
               b(1) = (  1.000000  0.000000  0.000000 )  
               b(2) = (  0.000000  0.894427  0.000000 )  
               b(3) = (  0.000000  0.000000  0.145508 )  


     PseudoPot. # 1 for Li read from file:
     /work/e89/e89/ba3g18/Repos/Pseudopotentials/Pslibrary/Li.pbe-sl-kjpaw_psl.1.0.0.UPF
     MD5 check sum: 3f4d2cafebb47c6c3aa8ed472e6f074d
     Pseudo is Projector augmented-wave, Zval =  3.0
     Generated using 'atomic' code by A. Dal Corso  v.7.4
     Shape of augmentation charge: PSQ
     Using radial grid of 1017 points,  4 beta functions with: 
                l(1) =   0
                l(2) =   0
                l(3) =   1
                l(4) =   1
     Q(r) pseudized with 0 coefficients 


     atomic species   valence    mass     pseudopotential
     Li                3.00     6.94000     Li( 1.00)

      2 Sym. Ops. (no inversion) found


                                    s                        frac. trans.

      isym =  1     identity                                     

 cryst.   s( 1) = (     1          0          0      )
                  (     0          1          0      )
                  (     0          0          1      )

 cart.    s( 1) = (  1.0000000  0.0000000  0.0000000 )
                  (  0.0000000  1.0000000  0.0000000 )
                  (  0.0000000  0.0000000  1.0000000 )


      isym =  2     inv. 180 deg rotation - cart. axis [1,0,0]   

 cryst.   s( 2) = (    -1          0          0      )
                  (     0          1          0      )
                  (     0          0          1      )

 cart.    s( 2) = ( -1.0000000  0.0000000  0.0000000 )
                  (  0.0000000  1.0000000  0.0000000 )
                  (  0.0000000  0.0000000  1.0000000 )


     point group C_s (m)    
     there are  2 classes
     the character table:

       E     s    
A'     1.00  1.00
A''    1.00 -1.00

     the symmetry operations in each class and the name of the first element:

     E        1
          identity                                               
     s        2
          inv. 180 deg rotation - cart. axis [1,0,0]             

   Cartesian axes

     site n.     atom                  positions (alat units)
         1        Li     tau(   1) = (  -0.0000000   0.4472449   3.7519355  )
         2        Li     tau(   2) = (  -0.0000000   0.9016132   3.4654924  )
         3        Li     tau(   3) = (  -0.0000000   0.2215214   3.2702133  )
         4        Li     tau(   4) = (  -0.0000000   0.6417008   3.0619289  )
         5        Li     tau(   5) = (  -0.0000000   0.0426888   3.9464214  )
         6        Li     tau(   6) = (   0.2500039   0.5518285   3.4069989  )
         7        Li     tau(   7) = (   0.2499988   1.0061979   3.1205538  )
         8        Li     tau(   8) = (   0.2499993   0.2927284   2.9260634  )
         9        Li     tau(   9) = (   0.2500022   0.8117466   3.8105648  )
        10        Li     tau(  10) = (   0.2499982   0.1138819   3.6022766  )
        11        Li     tau(  11) = (   0.5000000   0.4472494   3.7519358  )
        12        Li     tau(  12) = (   0.5000000   0.9016076   3.4654910  )
        13        Li     tau(  13) = (   0.5000000   0.2215253   3.2702044  )
        14        Li     tau(  14) = (   0.5000000   0.6417001   3.0619286  )
        15        Li     tau(  15) = (   0.5000000   0.0426866   3.9464282  )
        16        Li     tau(  16) = (   0.7499961   0.5518285   3.4069989  )
        17        Li     tau(  17) = (   0.7500012   1.0061979   3.1205538  )
        18        Li     tau(  18) = (   0.7500007   0.2927284   2.9260634  )
        19        Li     tau(  19) = (   0.7499978   0.8117466   3.8105648  )
        20        Li     tau(  20) = (   0.7500018   0.1138819   3.6022766  )

   Crystallographic axes

     site n.     atom                  positions (cryst. coord.)
         1        Li     tau(   1) = ( -0.0000000  0.4000280  0.5459353  )
         2        Li     tau(   2) = ( -0.0000000  0.8064274  0.5042556  )
         3        Li     tau(   3) = ( -0.0000000  0.1981348  0.4758410  )
         4        Li     tau(   4) = ( -0.0000000  0.5739547  0.4455341  )
         5        Li     tau(   5) = ( -0.0000000  0.0381820  0.5742345  )
         6        Li     tau(   6) = (  0.2500039  0.4935704  0.4957444  )
         7        Li     tau(   7) = (  0.2499988  0.8999708  0.4540644  )
         8        Li     tau(   8) = (  0.2499993  0.2618243  0.4257646  )
         9        Li     tau(   9) = (  0.2500022  0.7260483  0.5544663  )
        10        Li     tau(  10) = (  0.2499982  0.1018591  0.5241588  )
        11        Li     tau(  11) = (  0.5000000  0.4000320  0.5459354  )
        12        Li     tau(  12) = (  0.5000000  0.8064223  0.5042554  )
        13        Li     tau(  13) = (  0.5000000  0.1981382  0.4758397  )
        14        Li     tau(  14) = (  0.5000000  0.5739540  0.4455340  )
        15        Li     tau(  15) = (  0.5000000  0.0381801  0.5742355  )
        16        Li     tau(  16) = (  0.7499961  0.4935704  0.4957444  )
        17        Li     tau(  17) = (  0.7500012  0.8999708  0.4540644  )
        18        Li     tau(  18) = (  0.7500007  0.2618243  0.4257646  )
        19        Li     tau(  19) = (  0.7499978  0.7260483  0.5544663  )
        20        Li     tau(  20) = (  0.7500018  0.1018591  0.5241588  )

     number of k points=    30  Marzari-Vanderbilt smearing, width (Ry)=  0.0100
                       cart. coord. in units 2pi/alat
        k(    1) = (   0.0000000   0.0000000   0.0000000), wk =   0.0222222
        k(    2) = (   0.0000000   0.0993808   0.0000000), wk =   0.0444444
        k(    3) = (   0.0000000   0.1987616   0.0000000), wk =   0.0444444
        k(    4) = (   0.0000000   0.2981424   0.0000000), wk =   0.0444444
        k(    5) = (   0.0000000   0.3975232   0.0000000), wk =   0.0444444
        k(    6) = (   0.1000000   0.0000000   0.0000000), wk =   0.0444444
        k(    7) = (   0.1000000   0.0993808   0.0000000), wk =   0.0888889
        k(    8) = (   0.1000000   0.1987616   0.0000000), wk =   0.0888889
        k(    9) = (   0.1000000   0.2981424   0.0000000), wk =   0.0888889
        k(   10) = (   0.1000000   0.3975232   0.0000000), wk =   0.0888889
        k(   11) = (   0.2000000   0.0000000   0.0000000), wk =   0.0444444
        k(   12) = (   0.2000000   0.0993808   0.0000000), wk =   0.0888889
        k(   13) = (   0.2000000   0.1987616   0.0000000), wk =   0.0888889
        k(   14) = (   0.2000000   0.2981424   0.0000000), wk =   0.0888889
        k(   15) = (   0.2000000   0.3975232   0.0000000), wk =   0.0888889
        k(   16) = (   0.3000000   0.0000000   0.0000000), wk =   0.0444444
        k(   17) = (   0.3000000   0.0993808   0.0000000), wk =   0.0888889
        k(   18) = (   0.3000000   0.1987616   0.0000000), wk =   0.0888889
        k(   19) = (   0.3000000   0.2981424   0.0000000), wk =   0.0888889
        k(   20) = (   0.3000000   0.3975232   0.0000000), wk =   0.0888889
        k(   21) = (   0.4000000   0.0000000   0.0000000), wk =   0.0444444
        k(   22) = (   0.4000000   0.0993808   0.0000000), wk =   0.0888889
        k(   23) = (   0.4000000   0.1987616   0.0000000), wk =   0.0888889
        k(   24) = (   0.4000000   0.2981424   0.0000000), wk =   0.0888889
        k(   25) = (   0.4000000   0.3975232   0.0000000), wk =   0.0888889
        k(   26) = (  -0.5000000   0.0000000   0.0000000), wk =   0.0222222
        k(   27) = (  -0.5000000   0.0993808   0.0000000), wk =   0.0444444
        k(   28) = (  -0.5000000   0.1987616   0.0000000), wk =   0.0444444
        k(   29) = (  -0.5000000   0.2981424   0.0000000), wk =   0.0444444
        k(   30) = (  -0.5000000   0.3975232   0.0000000), wk =   0.0444444

                       cryst. coord.
        k(    1) = (   0.0000000   0.0000000   0.0000000), wk =   0.0222222
        k(    2) = (   0.0000000   0.1111111   0.0000000), wk =   0.0444444
        k(    3) = (   0.0000000   0.2222222   0.0000000), wk =   0.0444444
        k(    4) = (   0.0000000   0.3333333   0.0000000), wk =   0.0444444
        k(    5) = (   0.0000000   0.4444444   0.0000000), wk =   0.0444444
        k(    6) = (   0.1000000   0.0000000   0.0000000), wk =   0.0444444
        k(    7) = (   0.1000000   0.1111111   0.0000000), wk =   0.0888889
        k(    8) = (   0.1000000   0.2222222   0.0000000), wk =   0.0888889
        k(    9) = (   0.1000000   0.3333333   0.0000000), wk =   0.0888889
        k(   10) = (   0.1000000   0.4444444   0.0000000), wk =   0.0888889
        k(   11) = (   0.2000000   0.0000000   0.0000000), wk =   0.0444444
        k(   12) = (   0.2000000   0.1111111   0.0000000), wk =   0.0888889
        k(   13) = (   0.2000000   0.2222222   0.0000000), wk =   0.0888889
        k(   14) = (   0.2000000   0.3333333   0.0000000), wk =   0.0888889
        k(   15) = (   0.2000000   0.4444444   0.0000000), wk =   0.0888889
        k(   16) = (   0.3000000   0.0000000   0.0000000), wk =   0.0444444
        k(   17) = (   0.3000000   0.1111111   0.0000000), wk =   0.0888889
        k(   18) = (   0.3000000   0.2222222   0.0000000), wk =   0.0888889
        k(   19) = (   0.3000000   0.3333333   0.0000000), wk =   0.0888889
        k(   20) = (   0.3000000   0.4444444   0.0000000), wk =   0.0888889
        k(   21) = (   0.4000000   0.0000000   0.0000000), wk =   0.0444444
        k(   22) = (   0.4000000   0.1111111   0.0000000), wk =   0.0888889
        k(   23) = (   0.4000000   0.2222222   0.0000000), wk =   0.0888889
        k(   24) = (   0.4000000   0.3333333   0.0000000), wk =   0.0888889
        k(   25) = (   0.4000000   0.4444444   0.0000000), wk =   0.0888889
        k(   26) = (  -0.5000000   0.0000000   0.0000000), wk =   0.0222222
        k(   27) = (  -0.5000000   0.1111111   0.0000000), wk =   0.0444444
        k(   28) = (  -0.5000000   0.2222222   0.0000000), wk =   0.0444444
        k(   29) = (  -0.5000000   0.3333333   0.0000000), wk =   0.0444444
        k(   30) = (  -0.5000000   0.4444444   0.0000000), wk =   0.0444444

     Dense  grid:  6425037 G-vectors     FFT dimensions: ( 120, 135, 810)

     Smooth grid:  1625491 G-vectors     FFT dimensions: (  75,  90, 512)

     Dynamical RAM for                 wfc:       0.73 MB

     Dynamical RAM for     wfc (w. buffer):      11.62 MB

     Dynamical RAM for           str. fact:       0.51 MB

     Dynamical RAM for           local pot:       0.00 MB

     Dynamical RAM for          nlocal pot:       2.58 MB

     Dynamical RAM for                qrad:       0.65 MB

     Dynamical RAM for          rho,v,vnew:       3.38 MB

     Dynamical RAM for               rhoin:       1.13 MB

     Dynamical RAM for            rho*nmix:       8.16 MB

     Dynamical RAM for           G-vectors:       1.98 MB

     Dynamical RAM for          h,s,v(r/c):       1.48 MB

     Dynamical RAM for          <psi|beta>:       0.11 MB

     Dynamical RAM for                 psi:       2.91 MB

     Dynamical RAM for                hpsi:       2.91 MB

     Dynamical RAM for                spsi:       2.91 MB

     Dynamical RAM for      wfcinit/wfcrot:       1.50 MB

     Dynamical RAM for           addusdens:      16.33 MB

     Dynamical RAM for          addusforce:      26.04 MB

     Estimated static dynamical RAM per process >      25.97 MB

     Estimated max dynamical RAM per process >      98.04 MB

     Estimated total dynamical RAM >      21.03 GB

     Initial potential from superposition of free atoms

     starting charge      59.9078, renormalised to      60.0000

     negative rho (up, down):  2.816E-03 0.000E+00
     Starting wfcs are random
     Checking if some PAW data can be deallocated... 

     total cpu time spent up to now is       21.3 secs

     Self-consistent Calculation

     iteration #  1     ecut=    80.00 Ry     beta= 0.20
     Davidson diagonalization with overlap

---- Real-time Memory Report at c_bands before calling an iterative solver
           367 MiB given to the printing process from OS
             0 MiB allocation reported by mallinfo(arena+hblkhd)
        216004 MiB available memory on the node where the printing process lives
------------------
     c_bands:  1 eigenvalues not converged
     c_bands:  1 eigenvalues not converged
     ethr =  1.00E-12,  avg # of iterations =121.9

     negative rho (up, down):  2.061E-03 0.000E+00

     total cpu time spent up to now is      107.6 secs

     total energy              =    -300.85633534 Ry
     estimated scf accuracy    <       0.10652368 Ry

     total charge of GC-SCF    =       0.00417855 e
     the Fermi energy          =      -4.58771222 eV
                        (error :       2.68371222 eV)
     electrostatic embedding   =       0.00000000 Ry
     cavitation energy         =       0.02146371 Ry
     electrolyte free energy   =       0.00723735 Ry
     correction to one-el term =      -0.00000000 Ry

     iteration #  2     ecut=    80.00 Ry     beta= 0.20
     Davidson diagonalization with overlap

---- Real-time Memory Report at c_bands before calling an iterative solver
           367 MiB given to the printing process from OS
             0 MiB allocation reported by mallinfo(arena+hblkhd)
        216086 MiB available memory on the node where the printing process lives
------------------
     ethr =  1.00E-05,  avg # of iterations =  9.9

     negative rho (up, down):  1.479E-03 0.000E+00

     add environment contribution to local potential

     total cpu time spent up to now is      121.1 secs

     total energy              =    -300.62672428 Ry
     estimated scf accuracy    <       0.03929226 Ry

     total charge of GC-SCF    =       0.00020406 e
     the Fermi energy          =      -3.80823608 eV
                        (error :       1.90423608 eV)
     electrostatic embedding   =       0.00002342 Ry
     cavitation energy         =       0.02146371 Ry
     electrolyte free energy   =       0.00723735 Ry
     correction to one-el term =      -0.00000000 Ry

     iteration #  3     ecut=    80.00 Ry     beta= 0.20
     Davidson diagonalization with overlap

---- Real-time Memory Report at c_bands before calling an iterative solver
           367 MiB given to the printing process from OS
             0 MiB allocation reported by mallinfo(arena+hblkhd)
        216126 MiB available memory on the node where the printing process lives
------------------
     ethr =  1.00E-05,  avg # of iterations = 16.4

     negative rho (up, down):  1.244E-03 0.000E+00

     add environment contribution to local potential

     total cpu time spent up to now is      139.0 secs

     total energy              =    -300.65050695 Ry
     estimated scf accuracy    <       0.01097809 Ry

     total charge of GC-SCF    =      -0.05138320 e
     the Fermi energy          =      -2.78833933 eV
                        (error :       0.88433933 eV)
     electrostatic embedding   =      -0.02173559 Ry
     cavitation energy         =       0.02146371 Ry
     electrolyte free energy   =      -0.00210083 Ry
     correction to one-el term =      -0.63308324 Ry

     iteration #  4     ecut=    80.00 Ry     beta= 0.20
     Davidson diagonalization with overlap

---- Real-time Memory Report at c_bands before calling an iterative solver
           367 MiB given to the printing process from OS
             0 MiB allocation reported by mallinfo(arena+hblkhd)
        216230 MiB available memory on the node where the printing process lives
------------------
     ethr =  1.00E-05,  avg # of iterations =  8.1

     negative rho (up, down):  1.027E-03 0.000E+00

     add environment contribution to local potential

     total cpu time spent up to now is      151.6 secs

     total energy              =    -300.62627536 Ry
     estimated scf accuracy    <       0.00800699 Ry

     total charge of GC-SCF    =      -0.15095924 e
     the Fermi energy          =      -3.06433485 eV
                        (error :       1.16033485 eV)
     electrostatic embedding   =      -0.02374586 Ry
     cavitation energy         =       0.02146371 Ry
     electrolyte free energy   =      -0.00283799 Ry
     correction to one-el term =       1.11399487 Ry

     iteration #  5     ecut=    80.00 Ry     beta= 0.20
     Davidson diagonalization with overlap

---- Real-time Memory Report at c_bands before calling an iterative solver
           367 MiB given to the printing process from OS
             0 MiB allocation reported by mallinfo(arena+hblkhd)
        216286 MiB available memory on the node where the printing process lives
------------------
     ethr =  1.00E-05,  avg # of iterations =  7.9

     negative rho (up, down):  8.659E-04 0.000E+00

     add environment contribution to local potential

     total cpu time spent up to now is      163.1 secs

     total energy              =    -300.61331966 Ry
     estimated scf accuracy    <       0.00223856 Ry

     total charge of GC-SCF    =      -0.27481962 e
     the Fermi energy          =      -2.74823444 eV
                        (error :       0.84423444 eV)
     electrostatic embedding   =      -0.03117574 Ry
     cavitation energy         =       0.02146371 Ry
     electrolyte free energy   =      -0.00154361 Ry
     correction to one-el term =       5.01959308 Ry

     iteration #  6     ecut=    80.00 Ry     beta= 0.20
     Davidson diagonalization with overlap

---- Real-time Memory Report at c_bands before calling an iterative solver
           367 MiB given to the printing process from OS
             0 MiB allocation reported by mallinfo(arena+hblkhd)
        216309 MiB available memory on the node where the printing process lives
------------------
     ethr =  3.71E-06,  avg # of iterations = 22.5

     negative rho (up, down):  7.889E-04 0.000E+00

     add environment contribution to local potential

     total cpu time spent up to now is      182.5 secs

     total energy              =    -300.66165227 Ry
     estimated scf accuracy    <       0.00380041 Ry

     total charge of GC-SCF    =      -0.43600241 e
     the Fermi energy          =      -2.33013281 eV
                        (error :       0.42613281 eV)
     electrostatic embedding   =      -0.05268678 Ry
     cavitation energy         =       0.02146371 Ry
     electrolyte free energy   =      -0.00129122 Ry
     correction to one-el term =       9.96491073 Ry

     iteration #  7     ecut=    80.00 Ry     beta= 0.20
     Davidson diagonalization with overlap

---- Real-time Memory Report at c_bands before calling an iterative solver
           367 MiB given to the printing process from OS
             0 MiB allocation reported by mallinfo(arena+hblkhd)
        216357 MiB available memory on the node where the printing process lives
------------------
     ethr =  3.71E-06,  avg # of iterations =  9.8

     negative rho (up, down):  7.496E-04 0.000E+00

     add environment contribution to local potential

     total cpu time spent up to now is      194.9 secs

     total energy              =    -300.65578077 Ry
     estimated scf accuracy    <       0.00440287 Ry

     total charge of GC-SCF    =      -0.57718275 e
     the Fermi energy          =      -2.24185588 eV
                        (error :       0.33785588 eV)
     electrostatic embedding   =      -0.09342033 Ry
     cavitation energy         =       0.02146371 Ry
     electrolyte free energy   =      -0.00161972 Ry
     correction to one-el term =      15.30136860 Ry

     iteration #  8     ecut=    80.00 Ry     beta= 0.20
     Davidson diagonalization with overlap

---- Real-time Memory Report at c_bands before calling an iterative solver
           367 MiB given to the printing process from OS
             0 MiB allocation reported by mallinfo(arena+hblkhd)
        216358 MiB available memory on the node where the printing process lives
------------------
     ethr =  3.71E-06,  avg # of iterations =  8.8

     negative rho (up, down):  7.472E-04 0.000E+00

     add environment contribution to local potential

     total cpu time spent up to now is      207.0 secs

     total energy              =    -300.66142400 Ry
     estimated scf accuracy    <       0.00060623 Ry

     total charge of GC-SCF    =      -0.86218411 e
     the Fermi energy          =      -2.39049619 eV
                        (error :       0.48649619 eV)
     electrostatic embedding   =      -0.13633390 Ry
     cavitation energy         =       0.02146371 Ry
     electrolyte free energy   =      -0.00145794 Ry
     correction to one-el term =      19.29910565 Ry

     iteration #  9     ecut=    80.00 Ry     beta= 0.20
     Davidson diagonalization with overlap

---- Real-time Memory Report at c_bands before calling an iterative solver
           367 MiB given to the printing process from OS
             0 MiB allocation reported by mallinfo(arena+hblkhd)
        216340 MiB available memory on the node where the printing process lives
------------------
     ethr =  9.96E-07,  avg # of iterations = 13.0

     negative rho (up, down):  6.725E-04 0.000E+00

     add environment contribution to local potential

     total cpu time spent up to now is      221.9 secs

     total energy              =    -300.68814712 Ry
     estimated scf accuracy    <       0.00025290 Ry

     total charge of GC-SCF    =      -0.92124750 e
     the Fermi energy          =      -2.41596094 eV
                        (error :       0.51196094 eV)
     electrostatic embedding   =      -0.24846064 Ry
     cavitation energy         =       0.02146371 Ry
     electrolyte free energy   =      -0.00193487 Ry
     correction to one-el term =      27.35006838 Ry

     iteration # 10     ecut=    80.00 Ry     beta= 0.20
     Davidson diagonalization with overlap

---- Real-time Memory Report at c_bands before calling an iterative solver
           367 MiB given to the printing process from OS
             0 MiB allocation reported by mallinfo(arena+hblkhd)
        216324 MiB available memory on the node where the printing process lives
------------------
     ethr =  4.15E-07,  avg # of iterations =  8.1

     negative rho (up, down):  5.275E-04 0.000E+00

     add environment contribution to local potential

     total cpu time spent up to now is      233.1 secs

     total energy              =    -300.68096662 Ry
     estimated scf accuracy    <       0.00018217 Ry

     total charge of GC-SCF    =      -1.07729044 e
     the Fermi energy          =      -2.42996563 eV
                        (error :       0.52596563 eV)
     electrostatic embedding   =      -0.27615219 Ry
     cavitation energy         =       0.02146371 Ry
     electrolyte free energy   =      -0.00206491 Ry
     correction to one-el term =      28.98775521 Ry

     iteration # 11     ecut=    80.00 Ry     beta= 0.20
     Davidson diagonalization with overlap

---- Real-time Memory Report at c_bands before calling an iterative solver
           367 MiB given to the printing process from OS
             0 MiB allocation reported by mallinfo(arena+hblkhd)
        216260 MiB available memory on the node where the printing process lives
------------------
     ethr =  2.98E-07,  avg # of iterations = 14.2

     negative rho (up, down):  4.583E-04 0.000E+00

     add environment contribution to local potential

     total cpu time spent up to now is      248.1 secs

     total energy              =    -300.69077768 Ry
     estimated scf accuracy    <       0.00018310 Ry

     total charge of GC-SCF    =      -1.20557383 e
     the Fermi energy          =      -2.40197762 eV
                        (error :       0.49797762 eV)
     electrostatic embedding   =      -0.35258027 Ry
     cavitation energy         =       0.02146371 Ry
     electrolyte free energy   =      -0.00248553 Ry
     correction to one-el term =      33.23943854 Ry

     iteration # 12     ecut=    80.00 Ry     beta= 0.20
     Davidson diagonalization with overlap

---- Real-time Memory Report at c_bands before calling an iterative solver
           367 MiB given to the printing process from OS
             0 MiB allocation reported by mallinfo(arena+hblkhd)
        216275 MiB available memory on the node where the printing process lives
------------------
     ethr =  2.98E-07,  avg # of iterations = 11.3

     negative rho (up, down):  4.240E-04 0.000E+00

     add environment contribution to local potential

     total cpu time spent up to now is      261.9 secs

     total energy              =    -300.71141734 Ry
     estimated scf accuracy    <       0.00017110 Ry

     total charge of GC-SCF    =      -1.19832056 e
     the Fermi energy          =      -2.40532531 eV
                        (error :       0.50132531 eV)
     electrostatic embedding   =      -0.42290514 Ry
     cavitation energy         =       0.02146371 Ry
     electrolyte free energy   =      -0.00287771 Ry
     correction to one-el term =      36.66447652 Ry

     iteration # 13     ecut=    80.00 Ry     beta= 0.20
     Davidson diagonalization with overlap

---- Real-time Memory Report at c_bands before calling an iterative solver
           367 MiB given to the printing process from OS
             0 MiB allocation reported by mallinfo(arena+hblkhd)
        216277 MiB available memory on the node where the printing process lives
------------------
     ethr =  2.80E-07,  avg # of iterations =  7.8

     negative rho (up, down):  3.931E-04 0.000E+00

     add environment contribution to local potential

     total cpu time spent up to now is      274.1 secs

     total energy              =    -300.69381032 Ry
     estimated scf accuracy    <       0.00026388 Ry

     total charge of GC-SCF    =      -1.35285642 e
     the Fermi energy          =      -2.37456786 eV
                        (error :       0.47056786 eV)
     electrostatic embedding   =      -0.41744848 Ry
     cavitation energy         =       0.02146371 Ry
     electrolyte free energy   =      -0.00286875 Ry
     correction to one-el term =      36.48455016 Ry

     iteration # 14     ecut=    80.00 Ry     beta= 0.20
     Davidson diagonalization with overlap

---- Real-time Memory Report at c_bands before calling an iterative solver
           367 MiB given to the printing process from OS
             0 MiB allocation reported by mallinfo(arena+hblkhd)
        216282 MiB available memory on the node where the printing process lives
------------------
     ethr =  2.80E-07,  avg # of iterations = 12.8

     negative rho (up, down):  3.842E-04 0.000E+00

     add environment contribution to local potential

     total cpu time spent up to now is      290.1 secs

     total energy              =    -300.70997505 Ry
     estimated scf accuracy    <       0.00017751 Ry

     total charge of GC-SCF    =      -1.97111320 e
     the Fermi energy          =      -2.38392450 eV
                        (error :       0.47992450 eV)
     electrostatic embedding   =      -0.51038726 Ry
     cavitation energy         =       0.02146371 Ry
     electrolyte free energy   =      -0.00340355 Ry
     correction to one-el term =      40.60577603 Ry

     iteration # 15     ecut=    80.00 Ry     beta= 0.20
     Davidson diagonalization with overlap

---- Real-time Memory Report at c_bands before calling an iterative solver
           367 MiB given to the printing process from OS
             0 MiB allocation reported by mallinfo(arena+hblkhd)
        216285 MiB available memory on the node where the printing process lives
------------------
     ethr =  2.80E-07,  avg # of iterations = 19.9

     negative rho (up, down):  3.681E-04 0.000E+00

     add environment contribution to local potential

     total cpu time spent up to now is      309.2 secs

     total energy              =    -300.72284634 Ry
     estimated scf accuracy    <       0.00010625 Ry

     total charge of GC-SCF    =      -2.13506282 e
     the Fermi energy          =      -2.32888024 eV
                        (error :       0.42488024 eV)
     electrostatic embedding   =      -0.99231500 Ry
     cavitation energy         =       0.02146371 Ry
     electrolyte free energy   =      -0.00709700 Ry
     correction to one-el term =      57.80825543 Ry

     iteration # 16     ecut=    80.00 Ry     beta= 0.20
     Davidson diagonalization with overlap

---- Real-time Memory Report at c_bands before calling an iterative solver
           367 MiB given to the printing process from OS
             0 MiB allocation reported by mallinfo(arena+hblkhd)
        216292 MiB available memory on the node where the printing process lives
------------------
     ethr =  1.71E-07,  avg # of iterations = 11.5

     negative rho (up, down):  3.593E-04 0.000E+00

     add environment contribution to local potential

     total cpu time spent up to now is      325.3 secs

     total energy              =    -300.77122603 Ry
     estimated scf accuracy    <       0.00013006 Ry

     total charge of GC-SCF    =      -2.82530043 e
     the Fermi energy          =      -2.27716593 eV
                        (error :       0.37316593 eV)
     electrostatic embedding   =      -1.14741556 Ry
     cavitation energy         =       0.02146371 Ry
     electrolyte free energy   =      -0.00863966 Ry
     correction to one-el term =      62.50987183 Ry

     iteration # 17     ecut=    80.00 Ry     beta= 0.20
     Davidson diagonalization with overlap

---- Real-time Memory Report at c_bands before calling an iterative solver
           367 MiB given to the printing process from OS
             0 MiB allocation reported by mallinfo(arena+hblkhd)
        216299 MiB available memory on the node where the printing process lives
------------------
     ethr =  1.71E-07,  avg # of iterations = 20.3

     negative rho (up, down):  3.146E-04 0.000E+00

     add environment contribution to local potential

     total cpu time spent up to now is      345.9 secs

     total energy              =    -300.77984716 Ry
     estimated scf accuracy    <       0.00010662 Ry

     total charge of GC-SCF    =      -2.63007344 e
     the Fermi energy          =      -2.19729130 eV
                        (error :       0.29329130 eV)
     electrostatic embedding   =      -1.90837182 Ry
     cavitation energy         =       0.02146371 Ry
     electrolyte free energy   =      -0.01761820 Ry
     correction to one-el term =      81.35009149 Ry

     iteration # 18     ecut=    80.00 Ry     beta= 0.20
     Davidson diagonalization with overlap

---- Real-time Memory Report at c_bands before calling an iterative solver
           367 MiB given to the printing process from OS
             0 MiB allocation reported by mallinfo(arena+hblkhd)
        216297 MiB available memory on the node where the printing process lives
------------------
     ethr =  1.70E-07,  avg # of iterations = 10.2

     negative rho (up, down):  3.006E-04 0.000E+00

     add environment contribution to local potential

     total cpu time spent up to now is      361.0 secs

     total energy              =    -300.74875294 Ry
     estimated scf accuracy    <       0.00008257 Ry

     total charge of GC-SCF    =      -2.71585169 e
     the Fermi energy          =      -2.19742726 eV
                        (error :       0.29342726 eV)
     electrostatic embedding   =      -1.66437033 Ry
     cavitation energy         =       0.02146371 Ry
     electrolyte free energy   =      -0.01455373 Ry
     correction to one-el term =      75.79125600 Ry

     iteration # 19     ecut=    80.00 Ry     beta= 0.20
     Davidson diagonalization with overlap

---- Real-time Memory Report at c_bands before calling an iterative solver
           367 MiB given to the printing process from OS
             0 MiB allocation reported by mallinfo(arena+hblkhd)
        216303 MiB available memory on the node where the printing process lives
------------------
     ethr =  1.32E-07,  avg # of iterations = 10.8

     negative rho (up, down):  2.841E-04 0.000E+00

     add environment contribution to local potential

     total cpu time spent up to now is      376.6 secs

     total energy              =    -300.77796467 Ry
     estimated scf accuracy    <       0.00006871 Ry

     total charge of GC-SCF    =      -3.26098153 e
     the Fermi energy          =      -2.18402358 eV
                        (error :       0.28002358 eV)
     electrostatic embedding   =      -1.75864122 Ry
     cavitation energy         =       0.02146371 Ry
     electrolyte free energy   =      -0.01581858 Ry
     correction to one-el term =      77.92479357 Ry

     iteration # 20     ecut=    80.00 Ry     beta= 0.20
     Davidson diagonalization with overlap

---- Real-time Memory Report at c_bands before calling an iterative solver
           367 MiB given to the printing process from OS
             0 MiB allocation reported by mallinfo(arena+hblkhd)
        216302 MiB available memory on the node where the printing process lives
------------------
     ethr =  1.09E-07,  avg # of iterations = 22.7

     negative rho (up, down):  2.814E-04 0.000E+00

     add environment contribution to local potential

     total cpu time spent up to now is      399.7 secs

     total energy              =    -300.76436887 Ry
     estimated scf accuracy    <       0.00004369 Ry

     total charge of GC-SCF    =      -3.24952371 e
     the Fermi energy          =      -2.07151637 eV
                        (error :       0.16751637 eV)
     electrostatic embedding   =      -2.46239915 Ry
     cavitation energy         =       0.02146371 Ry
     electrolyte free energy   =      -0.02637033 Ry
     correction to one-el term =      92.76092025 Ry

     iteration # 21     ecut=    80.00 Ry     beta= 0.20
     Davidson diagonalization with overlap

---- Real-time Memory Report at c_bands before calling an iterative solver
           367 MiB given to the printing process from OS
             0 MiB allocation reported by mallinfo(arena+hblkhd)
        216308 MiB available memory on the node where the printing process lives
------------------
     ethr =  6.91E-08,  avg # of iterations =  5.0

     negative rho (up, down):  2.850E-04 0.000E+00

     add environment contribution to local potential

     total cpu time spent up to now is      412.8 secs

     total energy              =    -300.91760739 Ry
     estimated scf accuracy    <       0.00004220 Ry

     total charge of GC-SCF    =      -4.21680815 e
     the Fermi energy          =      -2.07683239 eV
                        (error :       0.17283239 eV)
     electrostatic embedding   =      -2.44393600 Ry
     cavitation energy         =       0.02146371 Ry
     electrolyte free energy   =      -0.02608069 Ry
     correction to one-el term =      92.36694142 Ry

     iteration # 22     ecut=    80.00 Ry     beta= 0.20
     Davidson diagonalization with overlap

---- Real-time Memory Report at c_bands before calling an iterative solver
           367 MiB given to the printing process from OS
             0 MiB allocation reported by mallinfo(arena+hblkhd)
        216307 MiB available memory on the node where the printing process lives
------------------
     ethr =  6.57E-08,  avg # of iterations = 24.0

     negative rho (up, down):  2.808E-04 0.000E+00

     add environment contribution to local potential

     total cpu time spent up to now is      439.3 secs

     total energy              =    -300.78875933 Ry
     estimated scf accuracy    <       0.00037120 Ry

     total charge of GC-SCF    =      -4.46155291 e
     the Fermi energy          =      -1.83535481 eV
                        (error :       0.06864519 eV)
     electrostatic embedding   =      -3.98988983 Ry
     cavitation energy         =       0.02146371 Ry
     electrolyte free energy   =      -0.05607158 Ry
     correction to one-el term =     119.31603819 Ry

     iteration # 23     ecut=    80.00 Ry     beta= 0.20
     Davidson diagonalization with overlap

---- Real-time Memory Report at c_bands before calling an iterative solver
           367 MiB given to the printing process from OS
             0 MiB allocation reported by mallinfo(arena+hblkhd)
        216302 MiB available memory on the node where the printing process lives
------------------
     ethr =  6.57E-08,  avg # of iterations = 17.6

     negative rho (up, down):  2.772E-04 0.000E+00

     add environment contribution to local potential

     total cpu time spent up to now is      458.3 secs

     total energy              =    -301.06158096 Ry
     estimated scf accuracy    <       0.00048734 Ry

     total charge of GC-SCF    =      -3.11171172 e
     the Fermi energy          =      -1.74777172 eV
                        (error :       0.15622828 eV)
     electrostatic embedding   =      -4.44381546 Ry
     cavitation energy         =       0.02146371 Ry
     electrolyte free energy   =      -0.06649210 Ry
     correction to one-el term =     126.35251455 Ry

     iteration # 24     ecut=    80.00 Ry     beta= 0.20
     Davidson diagonalization with overlap

---- Real-time Memory Report at c_bands before calling an iterative solver
           367 MiB given to the printing process from OS
             0 MiB allocation reported by mallinfo(arena+hblkhd)
        216294 MiB available memory on the node where the printing process lives
------------------
     ethr =  6.57E-08,  avg # of iterations = 26.7

     negative rho (up, down):  2.746E-04 0.000E+00

     add environment contribution to local potential

     total cpu time spent up to now is      484.3 secs

     total energy              =    -300.75929121 Ry
     estimated scf accuracy    <       0.00003671 Ry

     total charge of GC-SCF    =      -3.21114496 e
     the Fermi energy          =      -2.10561056 eV
                        (error :       0.20161056 eV)
     electrostatic embedding   =      -2.25365680 Ry
     cavitation energy         =       0.02146371 Ry
     electrolyte free energy   =      -0.02304342 Ry
     correction to one-el term =      88.55122611 Ry

     iteration # 25     ecut=    80.00 Ry     beta= 0.20
     Davidson diagonalization with overlap

---- Real-time Memory Report at c_bands before calling an iterative solver
           367 MiB given to the printing process from OS
             0 MiB allocation reported by mallinfo(arena+hblkhd)
        216293 MiB available memory on the node where the printing process lives
------------------
     ethr =  5.81E-08,  avg # of iterations = 11.1

     negative rho (up, down):  2.698E-04 0.000E+00

     add environment contribution to local potential

     total cpu time spent up to now is      500.3 secs

     total energy              =    -300.76250749 Ry
     estimated scf accuracy    <       0.00003922 Ry

     total charge of GC-SCF    =      -3.23405830 e
     the Fermi energy          =      -2.08421084 eV
                        (error :       0.18021084 eV)
     electrostatic embedding   =      -2.38552054 Ry
     cavitation energy         =       0.02146371 Ry
     electrolyte free energy   =      -0.02517504 Ry
     correction to one-el term =      91.14698206 Ry

     iteration # 26     ecut=    80.00 Ry     beta= 0.20
     Davidson diagonalization with overlap

---- Real-time Memory Report at c_bands before calling an iterative solver
           367 MiB given to the printing process from OS
             0 MiB allocation reported by mallinfo(arena+hblkhd)
        216298 MiB available memory on the node where the printing process lives
------------------
     ethr =  5.81E-08,  avg # of iterations =  6.6

     negative rho (up, down):  2.857E-04 0.000E+00

     add environment contribution to local potential

     total cpu time spent up to now is      513.6 secs

     total energy              =    -300.79156360 Ry
     estimated scf accuracy    <       0.00004259 Ry

     total charge of GC-SCF    =      -3.72288484 e
     the Fermi energy          =      -2.08135204 eV
                        (error :       0.17735204 eV)
     electrostatic embedding   =      -2.41634239 Ry
     cavitation energy         =       0.02146371 Ry
     electrolyte free energy   =      -0.02567955 Ry
     correction to one-el term =      91.75289063 Ry

     iteration # 27     ecut=    80.00 Ry     beta= 0.20
     Davidson diagonalization with overlap

---- Real-time Memory Report at c_bands before calling an iterative solver
           367 MiB given to the printing process from OS
             0 MiB allocation reported by mallinfo(arena+hblkhd)
        216309 MiB available memory on the node where the printing process lives
------------------
     ethr =  5.81E-08,  avg # of iterations = 20.0

     negative rho (up, down):  2.983E-04 0.000E+00

     add environment contribution to local potential

     total cpu time spent up to now is      535.8 secs

     total energy              =    -300.77226505 Ry
     estimated scf accuracy    <       0.00009703 Ry

     total charge of GC-SCF    =      -3.57729979 e
     the Fermi energy          =      -1.94903249 eV
                        (error :       0.04503249 eV)
     electrostatic embedding   =      -3.14465909 Ry
     cavitation energy         =       0.02146371 Ry
     electrolyte free energy   =      -0.03878010 Ry
     correction to one-el term =     105.28182604 Ry

     iteration # 28     ecut=    80.00 Ry     beta= 0.20
     Davidson diagonalization with overlap

---- Real-time Memory Report at c_bands before calling an iterative solver
           367 MiB given to the printing process from OS
             0 MiB allocation reported by mallinfo(arena+hblkhd)
        216251 MiB available memory on the node where the printing process lives
------------------
     ethr =  5.81E-08,  avg # of iterations = 12.2

     negative rho (up, down):  2.872E-04 0.000E+00

     add environment contribution to local potential

     total cpu time spent up to now is      552.4 secs

     total energy              =    -300.81433243 Ry
     estimated scf accuracy    <       0.00007223 Ry

     total charge of GC-SCF    =      -3.12451730 e
     the Fermi energy          =      -1.98223721 eV
                        (error :       0.07823721 eV)
     electrostatic embedding   =      -2.92709504 Ry
     cavitation energy         =       0.02146371 Ry
     electrolyte free energy   =      -0.03457672 Ry
     correction to one-el term =     101.51427784 Ry

     iteration # 29     ecut=    80.00 Ry     beta= 0.20
     Davidson diagonalization with overlap

---- Real-time Memory Report at c_bands before calling an iterative solver
           367 MiB given to the printing process from OS
             0 MiB allocation reported by mallinfo(arena+hblkhd)
        216244 MiB available memory on the node where the printing process lives
------------------
     ethr =  5.81E-08,  avg # of iterations = 20.3

     negative rho (up, down):  2.814E-04 0.000E+00

     add environment contribution to local potential

     total cpu time spent up to now is      574.3 secs

     total energy              =    -300.76444016 Ry
     estimated scf accuracy    <       0.00003081 Ry

     total charge of GC-SCF    =      -3.08857127 e
     the Fermi energy          =      -2.10500487 eV
                        (error :       0.20100487 eV)
     electrostatic embedding   =      -2.27377464 Ry
     cavitation energy         =       0.02146371 Ry
     electrolyte free energy   =      -0.02333033 Ry
     correction to one-el term =      88.97111641 Ry

     iteration # 30     ecut=    80.00 Ry     beta= 0.20
     Davidson diagonalization with overlap

---- Real-time Memory Report at c_bands before calling an iterative solver
           367 MiB given to the printing process from OS
             0 MiB allocation reported by mallinfo(arena+hblkhd)
        216237 MiB available memory on the node where the printing process lives
------------------
     ethr =  4.88E-08,  avg # of iterations =  8.4

     negative rho (up, down):  2.564E-04 0.000E+00

     add environment contribution to local potential

     total cpu time spent up to now is      588.9 secs

     total energy              =    -300.75894073 Ry
     estimated scf accuracy    <       0.00002783 Ry

     total charge of GC-SCF    =      -3.19037773 e
     the Fermi energy          =      -2.11851923 eV
                        (error :       0.21451923 eV)
     electrostatic embedding   =      -2.22042509 Ry
     cavitation energy         =       0.02146371 Ry
     electrolyte free energy   =      -0.02252463 Ry
     correction to one-el term =      87.81464096 Ry

     iteration # 31     ecut=    80.00 Ry     beta= 0.20
     Davidson diagonalization with overlap

---- Real-time Memory Report at c_bands before calling an iterative solver
           367 MiB given to the printing process from OS
             0 MiB allocation reported by mallinfo(arena+hblkhd)
        216239 MiB available memory on the node where the printing process lives
------------------
     ethr =  4.40E-08,  avg # of iterations = 15.4

     negative rho (up, down):  2.430E-04 0.000E+00

     add environment contribution to local potential

     total cpu time spent up to now is      607.0 secs

     total energy              =    -300.80680061 Ry
     estimated scf accuracy    <       0.00002434 Ry

     total charge of GC-SCF    =      -3.80271849 e
     the Fermi energy          =      -2.10979252 eV
                        (error :       0.20579252 eV)
     electrostatic embedding   =      -2.34521832 Ry
     cavitation energy         =       0.02146371 Ry
     electrolyte free energy   =      -0.02458015 Ry
     correction to one-el term =      90.17380320 Ry

     iteration # 32     ecut=    80.00 Ry     beta= 0.20
     Davidson diagonalization with overlap

---- Real-time Memory Report at c_bands before calling an iterative solver
           367 MiB given to the printing process from OS
             0 MiB allocation reported by mallinfo(arena+hblkhd)
        216216 MiB available memory on the node where the printing process lives
------------------
     ethr =  3.81E-08,  avg # of iterations = 20.8

     negative rho (up, down):  2.467E-04 0.000E+00

     add environment contribution to local potential

     total cpu time spent up to now is      630.5 secs

     total energy              =    -300.77518492 Ry
     estimated scf accuracy    <       0.00003356 Ry

     total charge of GC-SCF    =      -3.63285314 e
     the Fermi energy          =      -1.94074626 eV
                        (error :       0.03674626 eV)
     electrostatic embedding   =      -3.25548217 Ry
     cavitation energy         =       0.02146371 Ry
     electrolyte free energy   =      -0.04114964 Ry
     correction to one-el term =     107.07092459 Ry

     iteration # 33     ecut=    80.00 Ry     beta= 0.20
     Davidson diagonalization with overlap

---- Real-time Memory Report at c_bands before calling an iterative solver
           367 MiB given to the printing process from OS
             0 MiB allocation reported by mallinfo(arena+hblkhd)
        216215 MiB available memory on the node where the printing process lives
------------------
     ethr =  3.81E-08,  avg # of iterations = 17.8

     negative rho (up, down):  2.449E-04 0.000E+00

     add environment contribution to local potential

     total cpu time spent up to now is      650.1 secs

     total energy              =    -300.76955552 Ry
     estimated scf accuracy    <       0.00000940 Ry

     total charge of GC-SCF    =      -3.82496824 e
     the Fermi energy          =      -2.00494169 eV
                        (error :       0.10094169 eV)
     electrostatic embedding   =      -2.97179630 Ry
     cavitation energy         =       0.02146371 Ry
     electrolyte free energy   =      -0.03578243 Ry
     correction to one-el term =     101.87265126 Ry

     iteration # 34     ecut=    80.00 Ry     beta= 0.20
     Davidson diagonalization with overlap

---- Real-time Memory Report at c_bands before calling an iterative solver
           367 MiB given to the printing process from OS
             0 MiB allocation reported by mallinfo(arena+hblkhd)
        216249 MiB available memory on the node where the printing process lives
------------------
     ethr =  1.47E-08,  avg # of iterations = 18.1

     negative rho (up, down):  2.443E-04 0.000E+00

     add environment contribution to local potential

     total cpu time spent up to now is      670.4 secs

     total energy              =    -300.76870592 Ry
     estimated scf accuracy    <       0.00000763 Ry

     total charge of GC-SCF    =      -3.81118040 e
     the Fermi energy          =      -1.95571397 eV
                        (error :       0.05171397 eV)
     electrostatic embedding   =      -3.26596200 Ry
     cavitation energy         =       0.02146371 Ry
     electrolyte free energy   =      -0.04163975 Ry
     correction to one-el term =     106.96180564 Ry

     iteration # 35     ecut=    80.00 Ry     beta= 0.20
     Davidson diagonalization with overlap

---- Real-time Memory Report at c_bands before calling an iterative solver
           367 MiB given to the printing process from OS
             0 MiB allocation reported by mallinfo(arena+hblkhd)
        216253 MiB available memory on the node where the printing process lives
------------------
     ethr =  1.19E-08,  avg # of iterations =  9.8

     negative rho (up, down):  2.424E-04 0.000E+00

     add environment contribution to local potential

     total cpu time spent up to now is      687.2 secs

     total energy              =    -300.78025384 Ry
     estimated scf accuracy    <       0.00000524 Ry

     total charge of GC-SCF    =      -4.10222162 e
     the Fermi energy          =      -1.96785803 eV
                        (error :       0.06385803 eV)
     electrostatic embedding   =      -3.23472476 Ry
     cavitation energy         =       0.02146371 Ry
     electrolyte free energy   =      -0.04110850 Ry
     correction to one-el term =     106.31462218 Ry

     iteration # 36     ecut=    80.00 Ry     beta= 0.20
     Davidson diagonalization with overlap

---- Real-time Memory Report at c_bands before calling an iterative solver
           367 MiB given to the printing process from OS
             0 MiB allocation reported by mallinfo(arena+hblkhd)
        216259 MiB available memory on the node where the printing process lives
------------------
     ethr =  8.17E-09,  avg # of iterations = 20.5

     negative rho (up, down):  2.408E-04 0.000E+00

     add environment contribution to local potential

     total cpu time spent up to now is      711.2 secs

     total energy              =    -300.77203936 Ry
     estimated scf accuracy    <       0.00001459 Ry

     total charge of GC-SCF    =      -3.95335442 e
     the Fermi energy          =      -1.88028877 eV
                        (error :       0.02371123 eV)
     electrostatic embedding   =      -3.71247295 Ry
     cavitation energy         =       0.02146371 Ry
     electrolyte free energy   =      -0.05123618 Ry
     correction to one-el term =     114.29782636 Ry

     iteration # 37     ecut=    80.00 Ry     beta= 0.20
     Davidson diagonalization with overlap

---- Real-time Memory Report at c_bands before calling an iterative solver
           367 MiB given to the printing process from OS
             0 MiB allocation reported by mallinfo(arena+hblkhd)
        216264 MiB available memory on the node where the printing process lives
------------------
     ethr =  8.17E-09,  avg # of iterations = 18.5

     negative rho (up, down):  2.389E-04 0.000E+00

     add environment contribution to local potential

     total cpu time spent up to now is      733.0 secs

     total energy              =    -300.76904311 Ry
     estimated scf accuracy    <       0.00000236 Ry

     total charge of GC-SCF    =      -4.01488795 e
     the Fermi energy          =      -1.93682416 eV
                        (error :       0.03282416 eV)
     electrostatic embedding   =      -3.44935800 Ry
     cavitation energy         =       0.02146371 Ry
     electrolyte free energy   =      -0.04574146 Ry
     correction to one-el term =     109.81782140 Ry

     iteration # 38     ecut=    80.00 Ry     beta= 0.20
     Davidson diagonalization with overlap

---- Real-time Memory Report at c_bands before calling an iterative solver
           367 MiB given to the printing process from OS
             0 MiB allocation reported by mallinfo(arena+hblkhd)
        216257 MiB available memory on the node where the printing process lives
------------------
     ethr =  3.69E-09,  avg # of iterations = 15.8

     negative rho (up, down):  2.362E-04 0.000E+00

     add environment contribution to local potential

     total cpu time spent up to now is      751.8 secs

     total energy              =    -300.76907538 Ry
     estimated scf accuracy    <       0.00000198 Ry

     total charge of GC-SCF    =      -4.05502200 e
     the Fermi energy          =      -1.91803695 eV
                        (error :       0.01403695 eV)
     electrostatic embedding   =      -3.55105833 Ry
     cavitation energy         =       0.02146371 Ry
     electrolyte free energy   =      -0.04791404 Ry
     correction to one-el term =     111.51762839 Ry

     iteration # 39     ecut=    80.00 Ry     beta= 0.20
     Davidson diagonalization with overlap

---- Real-time Memory Report at c_bands before calling an iterative solver
           367 MiB given to the printing process from OS
             0 MiB allocation reported by mallinfo(arena+hblkhd)
        216254 MiB available memory on the node where the printing process lives
------------------
     ethr =  3.10E-09,  avg # of iterations = 18.8

     negative rho (up, down):  2.356E-04 0.000E+00

     add environment contribution to local potential

     total cpu time spent up to now is      772.0 secs

     total energy              =    -300.76896076 Ry
     estimated scf accuracy    <       0.00000134 Ry

     total charge of GC-SCF    =      -4.05563554 e
     the Fermi energy          =      -1.90945345 eV
                        (error :       0.00545345 eV)
     electrostatic embedding   =      -3.61225422 Ry
     cavitation energy         =       0.02146371 Ry
     electrolyte free energy   =      -0.04932161 Ry
     correction to one-el term =     112.47558067 Ry

     iteration # 40     ecut=    80.00 Ry     beta= 0.20
     Davidson diagonalization with overlap

---- Real-time Memory Report at c_bands before calling an iterative solver
           367 MiB given to the printing process from OS
             0 MiB allocation reported by mallinfo(arena+hblkhd)
        216246 MiB available memory on the node where the printing process lives
------------------
     ethr =  2.09E-09,  avg # of iterations = 10.7

     negative rho (up, down):  2.369E-04 0.000E+00

     add environment contribution to local potential

     total cpu time spent up to now is      788.9 secs

     total energy              =    -300.76903402 Ry
     estimated scf accuracy    <       0.00000081 Ry

     total charge of GC-SCF    =      -4.04128885 e
     the Fermi energy          =      -1.91119650 eV
                        (error :       0.00719650 eV)
     electrostatic embedding   =      -3.60998015 Ry
     cavitation energy         =       0.02146371 Ry
     electrolyte free energy   =      -0.04932036 Ry
     correction to one-el term =     112.41120425 Ry

     iteration # 41     ecut=    80.00 Ry     beta= 0.20
     Davidson diagonalization with overlap

---- Real-time Memory Report at c_bands before calling an iterative solver
           367 MiB given to the printing process from OS
             0 MiB allocation reported by mallinfo(arena+hblkhd)
        216216 MiB available memory on the node where the printing process lives
------------------
     ethr =  1.26E-09,  avg # of iterations = 11.0

     negative rho (up, down):  2.372E-04 0.000E+00

     add environment contribution to local potential

     total cpu time spent up to now is      805.7 secs

     total energy              =    -300.76895159 Ry
     estimated scf accuracy    <       0.00000029 Ry

     total charge of GC-SCF    =      -4.05356756 e
     the Fermi energy          =      -1.91565417 eV
                        (error :       0.01165417 eV)
     electrostatic embedding   =      -3.58612303 Ry
     cavitation energy         =       0.02146371 Ry
     electrolyte free energy   =      -0.04880275 Ry
     correction to one-el term =     112.03081381 Ry

     iteration # 42     ecut=    80.00 Ry     beta= 0.20
     Davidson diagonalization with overlap

---- Real-time Memory Report at c_bands before calling an iterative solver
           367 MiB given to the printing process from OS
             0 MiB allocation reported by mallinfo(arena+hblkhd)
        216224 MiB available memory on the node where the printing process lives
------------------
     ethr =  4.52E-10,  avg # of iterations = 13.3

     negative rho (up, down):  2.373E-04 0.000E+00

     add environment contribution to local potential

     total cpu time spent up to now is      823.6 secs

     total energy              =    -300.76896184 Ry
     estimated scf accuracy    <       0.00000018 Ry

     total charge of GC-SCF    =      -4.05605780 e
     the Fermi energy          =      -1.91192075 eV
                        (error :       0.00792075 eV)
     electrostatic embedding   =      -3.60687445 Ry
     cavitation energy         =       0.02146371 Ry
     electrolyte free energy   =      -0.04925184 Ry
     correction to one-el term =     112.37560730 Ry

     iteration # 43     ecut=    80.00 Ry     beta= 0.20
     Davidson diagonalization with overlap

---- Real-time Memory Report at c_bands before calling an iterative solver
           367 MiB given to the printing process from OS
             0 MiB allocation reported by mallinfo(arena+hblkhd)
        216249 MiB available memory on the node where the printing process lives
------------------
     ethr =  2.78E-10,  avg # of iterations = 11.1

     negative rho (up, down):  2.369E-04 0.000E+00

     add environment contribution to local potential

     total cpu time spent up to now is      840.6 secs

     total energy              =    -300.76896319 Ry
     estimated scf accuracy    <       0.00000012 Ry

     total charge of GC-SCF    =      -4.05868477 e
     the Fermi energy          =      -1.91132797 eV
                        (error :       0.00732797 eV)
     electrostatic embedding   =      -3.61052865 Ry
     cavitation energy         =       0.02146371 Ry
     electrolyte free energy   =      -0.04933879 Ry
     correction to one-el term =     112.42872251 Ry

     iteration # 44     ecut=    80.00 Ry     beta= 0.20
     Davidson diagonalization with overlap

---- Real-time Memory Report at c_bands before calling an iterative solver
           367 MiB given to the printing process from OS
             0 MiB allocation reported by mallinfo(arena+hblkhd)
        216197 MiB available memory on the node where the printing process lives
------------------
     ethr =  1.81E-10,  avg # of iterations = 11.2

     negative rho (up, down):  2.364E-04 0.000E+00

     add environment contribution to local potential

     total cpu time spent up to now is      857.5 secs

     total energy              =    -300.76896933 Ry
     estimated scf accuracy    <       0.00000006 Ry

     total charge of GC-SCF    =      -4.06872112 e
     the Fermi energy          =      -1.91095354 eV
                        (error :       0.00695354 eV)
     electrostatic embedding   =      -3.61466045 Ry
     cavitation energy         =       0.02146371 Ry
     electrolyte free energy   =      -0.04943082 Ry
     correction to one-el term =     112.49194777 Ry

     iteration # 45     ecut=    80.00 Ry     beta= 0.20
     Davidson diagonalization with overlap

---- Real-time Memory Report at c_bands before calling an iterative solver
           367 MiB given to the printing process from OS
             0 MiB allocation reported by mallinfo(arena+hblkhd)
        216205 MiB available memory on the node where the printing process lives
------------------
     ethr =  9.55E-11,  avg # of iterations = 18.1

     negative rho (up, down):  2.364E-04 0.000E+00

     add environment contribution to local potential

     total cpu time spent up to now is      877.7 secs

     total energy              =    -300.76896917 Ry
     estimated scf accuracy    <       0.00000003 Ry

     total charge of GC-SCF    =      -4.07277740 e
     the Fermi energy          =      -1.90814746 eV
                        (error :       0.00414746 eV)
     electrostatic embedding   =      -3.63161017 Ry
     cavitation energy         =       0.02146371 Ry
     electrolyte free energy   =      -0.04979829 Ry
     correction to one-el term =     112.76783787 Ry

     iteration # 46     ecut=    80.00 Ry     beta= 0.20
     Davidson diagonalization with overlap

---- Real-time Memory Report at c_bands before calling an iterative solver
           367 MiB given to the printing process from OS
             0 MiB allocation reported by mallinfo(arena+hblkhd)
        216210 MiB available memory on the node where the printing process lives
------------------
     ethr =  4.52E-11,  avg # of iterations = 12.7

     negative rho (up, down):  2.363E-04 0.000E+00

     add environment contribution to local potential

     total cpu time spent up to now is      895.2 secs

     total energy              =    -300.76898355 Ry
     estimated scf accuracy    <       0.00000002 Ry

     total charge of GC-SCF    =      -4.08350777 e
     the Fermi energy          =      -1.90732166 eV
                        (error :       0.00332166 eV)
     electrostatic embedding   =      -3.63808195 Ry
     cavitation energy         =       0.02146371 Ry
     electrolyte free energy   =      -0.04994382 Ry
     correction to one-el term =     112.86807102 Ry

     iteration # 47     ecut=    80.00 Ry     beta= 0.20
     Davidson diagonalization with overlap

---- Real-time Memory Report at c_bands before calling an iterative solver
           367 MiB given to the printing process from OS
             0 MiB allocation reported by mallinfo(arena+hblkhd)
        216215 MiB available memory on the node where the printing process lives
------------------
     ethr =  2.51E-11,  avg # of iterations = 19.4

     negative rho (up, down):  2.362E-04 0.000E+00

     total cpu time spent up to now is      909.3 secs

     End of self-consistent calculation

          k = 0.0000 0.0000 0.0000 (203379 PWs)   bands (ev):

   -48.9299 -48.9299 -48.9284 -48.9284 -48.6798 -48.6797 -48.6776 -48.6775
   -48.6677 -48.6676 -48.6669 -48.6668 -48.4408 -48.4332 -48.4332 -48.4312
   -48.4283 -48.4246 -48.4246 -48.4211  -5.2022  -4.5119  -3.6526  -3.2803
    -3.2625  -2.7719  -2.7718  -2.7403  -2.5118  -2.4668  -2.0803  -2.0803
    -1.6491  -1.4807  -1.3527  -1.3527  -1.3290  -1.1772  -1.1772  -0.8915
    -0.8915  -0.7672  -0.4003  -0.3137  -0.1120

     occupation numbers 
     1.0000   1.0000   1.0000   1.0000   1.0000   1.0000   1.0000   1.0000
     1.0000   1.0000   1.0000   1.0000   1.0000   1.0000   1.0000   1.0000
     1.0000   1.0000   1.0000   1.0000   1.0000   1.0000   1.0000   1.0000
     1.0000   1.0000   1.0000   1.0000   1.0000   1.0000   1.0791   1.0791
     0.0006   0.0000   0.0000   0.0000   0.0000   0.0000   0.0000   0.0000
     0.0000   0.0000   0.0000   0.0000   0.0000

          k = 0.0000 0.0994 0.0000 (203275 PWs)   bands (ev):

   -48.9299 -48.9299 -48.9284 -48.9284 -48.6798 -48.6797 -48.6776 -48.6775
   -48.6677 -48.6676 -48.6669 -48.6668 -48.4407 -48.4332 -48.4332 -48.4315
   -48.4281 -48.4246 -48.4246 -48.4211  -5.1783  -4.4869  -3.6728  -3.6230
    -2.9017  -2.8326  -2.7504  -2.7504  -2.7125  -2.0655  -2.0655  -2.0653
    -1.8987  -1.5611  -1.5004  -1.5004  -1.1910  -1.1910  -0.9864  -0.8581
    -0.7867  -0.7867  -0.5317  -0.1703  -0.0502

     occupation numbers 
     1.0000   1.0000   1.0000   1.0000   1.0000   1.0000   1.0000   1.0000
     1.0000   1.0000   1.0000   1.0000   1.0000   1.0000   1.0000   1.0000
     1.0000   1.0000   1.0000   1.0000   1.0000   1.0000   1.0000   1.0000
     1.0000   1.0000   1.0000   1.0000   1.0000   1.0671   1.0671   1.0669
     0.3698   0.0000   0.0000   0.0000   0.0000   0.0000   0.0000   0.0000
     0.0000   0.0000   0.0000   0.0000   0.0000

          k = 0.0000 0.1988 0.0000 (203225 PWs)   bands (ev):

   -48.9299 -48.9299 -48.9284 -48.9284 -48.6798 -48.6797 -48.6776 -48.6775
   -48.6677 -48.6676 -48.6669 -48.6668 -48.4405 -48.4332 -48.4332 -48.4321
   -48.4276 -48.4246 -48.4246 -48.4211  -5.1067  -4.4130  -4.0248  -3.5466
    -3.2651  -2.6861  -2.6861  -2.6334  -2.3755  -2.3094  -2.0248  -2.0248
    -1.7529  -1.7529  -1.6377  -1.5700  -1.2481  -1.2481  -1.1117  -0.6465
    -0.6465  -0.5600  -0.3925  -0.1676   0.0235

     occupation numbers 
     1.0000   1.0000   1.0000   1.0000   1.0000   1.0000   1.0000   1.0000
     1.0000   1.0000   1.0000   1.0000   1.0000   1.0000   1.0000   1.0000
     1.0000   1.0000   1.0000   1.0000   1.0000   1.0000   1.0000   1.0000
     1.0000   1.0000   1.0000   1.0000   1.0002   1.0017   0.9842   0.9841
     0.0192   0.0192   0.0004   0.0000   0.0000   0.0000   0.0000   0.0000
     0.0000   0.0000   0.0000   0.0000   0.0000

          k = 0.0000 0.2981 0.0000 (203169 PWs)   bands (ev):

   -48.9299 -48.9299 -48.9284 -48.9284 -48.6798 -48.6797 -48.6776 -48.6775
   -48.6677 -48.6676 -48.6669 -48.6668 -48.4403 -48.4332 -48.4332 -48.4328
   -48.4272 -48.4246 -48.4246 -48.4211  -4.9875  -4.3588  -4.2627  -3.6057
    -3.3919  -2.6650  -2.5800  -2.5800  -2.4995  -2.0274  -2.0274  -1.9418
    -1.9418  -1.9226  -1.8085  -1.3331  -1.3331  -1.2417  -1.0683  -0.5511
    -0.5511  -0.4292  -0.3423  -0.0226   0.1582

     occupation numbers 
     1.0000   1.0000   1.0000   1.0000   1.0000   1.0000   1.0000   1.0000
     1.0000   1.0000   1.0000   1.0000   1.0000   1.0000   1.0000   1.0000
     1.0000   1.0000   1.0000   1.0000   1.0000   1.0000   1.0000   1.0000
     1.0000   1.0000   1.0000   1.0000   1.0000   0.9920   0.9920   0.5983
     0.5982   0.4931   0.0764   0.0000   0.0000   0.0000   0.0000   0.0000
     0.0000   0.0000   0.0000   0.0000   0.0000

          k = 0.0000 0.3975 0.0000 (203234 PWs)   bands (ev):

   -48.9299 -48.9299 -48.9284 -48.9284 -48.6798 -48.6797 -48.6776 -48.6775
   -48.6677 -48.6676 -48.6669 -48.6668 -48.4401 -48.4332 -48.4332 -48.4331
   -48.4270 -48.4246 -48.4246 -48.4211  -4.8218  -4.6034  -4.1062  -3.8717
    -3.2068  -2.9612  -2.4365  -2.4365  -2.3272  -2.2329  -2.2329  -2.0683
    -1.9056  -1.9056  -1.5493  -1.4027  -1.4027  -1.1304  -0.8770  -0.5555
    -0.4947  -0.4947  -0.2188   0.0668   0.1769

     occupation numbers 
     1.0000   1.0000   1.0000   1.0000   1.0000   1.0000   1.0000   1.0000
     1.0000   1.0000   1.0000   1.0000   1.0000   1.0000   1.0000   1.0000
     1.0000   1.0000   1.0000   1.0000   1.0000   1.0000   1.0000   1.0000
     1.0000   1.0000   1.0000   1.0000   1.0009   1.0139   1.0139   1.0701
     0.4039   0.4039   0.0000   0.0000   0.0000   0.0000   0.0000   0.0000
     0.0000   0.0000   0.0000   0.0000   0.0000

          k = 0.1000 0.0000 0.0000 (203333 PWs)   bands (ev):

   -48.9299 -48.9299 -48.9285 -48.9284 -48.6798 -48.6797 -48.6777 -48.6776
   -48.6677 -48.6676 -48.6669 -48.6668 -48.4406 -48.4340 -48.4325 -48.4312
   -48.4282 -48.4252 -48.4241 -48.4211  -5.1780  -4.4864  -3.6249  -3.2556
    -3.2383  -3.2339  -2.7112  -2.5102  -2.4859  -2.4421  -2.2624  -1.7530
    -1.6198  -1.5218  -1.5118  -1.4530  -1.3886  -1.3024  -1.0652  -0.8881
    -0.7887  -0.7362  -0.3712  -0.2853  -0.1703

     occupation numbers 
     1.0000   1.0000   1.0000   1.0000   1.0000   1.0000   1.0000   1.0000
     1.0000   1.0000   1.0000   1.0000   1.0000   1.0000   1.0000   1.0000
     1.0000   1.0000   1.0000   1.0000   1.0000   1.0000   1.0000   1.0000
     1.0000   1.0000   1.0000   1.0000   1.0000   1.0000   1.0067   0.0193
     0.0002   0.0000   0.0000   0.0000   0.0000   0.0000   0.0000   0.0000
     0.0000   0.0000   0.0000   0.0000   0.0000

          k = 0.1000 0.0994 0.0000 (203258 PWs)   bands (ev):

   -48.9299 -48.9299 -48.9285 -48.9284 -48.6798 -48.6797 -48.6777 -48.6776
   -48.6677 -48.6676 -48.6669 -48.6668 -48.4406 -48.4340 -48.4325 -48.4315
   -48.4280 -48.4252 -48.4241 -48.4211  -5.1541  -4.4615  -3.6485  -3.5954
    -3.2115  -2.8763  -2.8079  -2.6835  -2.4903  -2.2426  -2.0390  -1.8718
    -1.8404  -1.7316  -1.5318  -1.4409  -1.2925  -1.1156  -0.9589  -0.8744
    -0.8284  -0.7071  -0.5036  -0.1654  -0.1393

     occupation numbers 
     1.0000   1.0000   1.0000   1.0000   1.0000   1.0000   1.0000   1.0000
     1.0000   1.0000   1.0000   1.0000   1.0000   1.0000   1.0000   1.0000
     1.0000   1.0000   1.0000   1.0000   1.0000   1.0000   1.0000   1.0000
     1.0000   1.0000   1.0000   1.0000   1.0000   1.0111   1.0223   0.2511
     0.1463   0.0104   0.0000   0.0000   0.0000   0.0000   0.0000   0.0000
     0.0000   0.0000   0.0000   0.0000   0.0000

          k = 0.1000 0.1988 0.0000 (203264 PWs)   bands (ev):

   -48.9299 -48.9299 -48.9285 -48.9284 -48.6798 -48.6797 -48.6777 -48.6776
   -48.6677 -48.6676 -48.6669 -48.6668 -48.4404 -48.4340 -48.4325 -48.4321
   -48.4276 -48.4252 -48.4240 -48.4211  -5.0825  -4.3876  -4.0006  -3.5191
    -3.2396  -3.1444  -2.6044  -2.4330  -2.3497  -2.2821  -2.1837  -2.1426
    -1.7219  -1.6085  -1.5714  -1.5434  -1.3403  -1.1391  -1.0841  -0.7876
    -0.5293  -0.5276  -0.3654  -0.1381  -0.1329

     occupation numbers 
     1.0000   1.0000   1.0000   1.0000   1.0000   1.0000   1.0000   1.0000
     1.0000   1.0000   1.0000   1.0000   1.0000   1.0000   1.0000   1.0000
     1.0000   1.0000   1.0000   1.0000   1.0000   1.0000   1.0000   1.0000
     1.0000   1.0000   1.0000   1.0000   1.0004   1.0039   1.0371   1.0646
     0.0078   0.0001   0.0000   0.0000   0.0000   0.0000   0.0000   0.0000
     0.0000   0.0000   0.0000   0.0000   0.0000

          k = 0.1000 0.2981 0.0000 (203250 PWs)   bands (ev):

   -48.9299 -48.9299 -48.9285 -48.9284 -48.6798 -48.6797 -48.6777 -48.6776
   -48.6677 -48.6676 -48.6669 -48.6668 -48.4401 -48.4340 -48.4327 -48.4325
   -48.4272 -48.4253 -48.4240 -48.4211  -4.9633  -4.3346  -4.2374  -3.5806
    -3.3640  -3.0331  -2.6375  -2.4702  -2.4427  -2.3157  -2.0881  -1.8951
    -1.8113  -1.7795  -1.6592  -1.4911  -1.2141  -1.1000  -1.0412  -0.7741
    -0.3991  -0.3721  -0.3137  -0.0371   0.0049

     occupation numbers 
     1.0000   1.0000   1.0000   1.0000   1.0000   1.0000   1.0000   1.0000
     1.0000   1.0000   1.0000   1.0000   1.0000   1.0000   1.0000   1.0000
     1.0000   1.0000   1.0000   1.0000   1.0000   1.0000   1.0000   1.0000
     1.0000   1.0000   1.0000   1.0000   1.0000   1.0014   1.0821   0.3526
     0.0811   0.0386   0.0009   0.0000   0.0000   0.0000   0.0000   0.0000
     0.0000   0.0000   0.0000   0.0000   0.0000

          k = 0.1000 0.3975 0.0000 (203200 PWs)   bands (ev):

   -48.9299 -48.9299 -48.9285 -48.9284 -48.6798 -48.6797 -48.6777 -48.6776
   -48.6677 -48.6676 -48.6669 -48.6668 -48.4400 -48.4340 -48.4331 -48.4325
   -48.4270 -48.4253 -48.4240 -48.4211  -4.7977  -4.5793  -4.0809  -3.8463
    -3.1792  -2.9336  -2.8808  -2.6699  -2.2976  -2.2102  -2.0394  -1.9877
    -1.9454  -1.7756  -1.5299  -1.5196  -1.1025  -1.0709  -0.8498  -0.7917
    -0.5276  -0.3545  -0.1886   0.0946   0.1040

     occupation numbers 
     1.0000   1.0000   1.0000   1.0000   1.0000   1.0000   1.0000   1.0000
     1.0000   1.0000   1.0000   1.0000   1.0000   1.0000   1.0000   1.0000
     1.0000   1.0000   1.0000   1.0000   1.0000   1.0000   1.0000   1.0000
     1.0000   1.0000   1.0000   1.0000   1.0024   1.0227   1.0233   0.8392
     0.6183   0.0351   0.0000   0.0000   0.0000   0.0000   0.0000   0.0000
     0.0000   0.0000   0.0000   0.0000   0.0000

          k = 0.2000 0.0000 0.0000 (203263 PWs)   bands (ev):

   -48.9298 -48.9298 -48.9286 -48.9286 -48.6796 -48.6795 -48.6778 -48.6778
   -48.6676 -48.6676 -48.6669 -48.6669 -48.4403 -48.4350 -48.4319 -48.4312
   -48.4281 -48.4257 -48.4236 -48.4212  -5.1055  -4.4101  -3.6481  -3.5419
    -3.1818  -3.1659  -2.9146  -2.6242  -2.4086  -2.3682  -1.9850  -1.8207
    -1.8140  -1.7216  -1.5319  -1.3705  -1.2400  -1.2235  -1.1634  -0.9662
    -0.8602  -0.6434  -0.2847  -0.2013  -0.1927

     occupation numbers 
     1.0000   1.0000   1.0000   1.0000   1.0000   1.0000   1.0000   1.0000
     1.0000   1.0000   1.0000   1.0000   1.0000   1.0000   1.0000   1.0000
     1.0000   1.0000   1.0000   1.0000   1.0000   1.0000   1.0000   1.0000
     1.0000   1.0000   1.0000   1.0000   1.0000   1.0002   0.8267   0.0990
     0.0860   0.0077   0.0000   0.0000   0.0000   0.0000   0.0000   0.0000
     0.0000   0.0000   0.0000   0.0000   0.0000

          k = 0.2000 0.0994 0.0000 (203259 PWs)   bands (ev):

   -48.9298 -48.9298 -48.9286 -48.9286 -48.6796 -48.6795 -48.6778 -48.6778
   -48.6676 -48.6675 -48.6669 -48.6669 -48.4402 -48.4350 -48.4319 -48.4314
   -48.4279 -48.4257 -48.4235 -48.4212  -5.0816  -4.3852  -3.6251  -3.5756
    -3.5127  -2.8925  -2.8004  -2.7339  -2.5966  -2.1858  -1.9618  -1.9609
    -1.7916  -1.7077  -1.5069  -1.4441  -1.4384  -1.0058  -0.9445  -0.8773
    -0.7979  -0.7400  -0.4200  -0.2592  -0.0465

     occupation numbers 
[...]
     1.0000   1.0000   1.0000   1.0000   1.0000   1.0000   1.0000   1.0000
     1.0000   1.0000   1.0000   1.0000   1.0000   1.0000   1.0036   1.0036
     0.0001   0.0001   0.0000   0.0000   0.0000   0.0000   0.0000   0.0000
     0.0000   0.0000   0.0000   0.0000   0.0000

     the Fermi energy is    -1.9040 ev

!    total energy              =    -300.76971374 Ry
     total all-electron energy =      -300.769876 Ry
     estimated scf accuracy    <          5.9E-13 Ry

!    total charge of GC-SCF    =      -4.10070090 e
     smearing contrib. (-TS)   =      -0.00008866 Ry
     internal energy E=F+TS    =    -300.76962507 Ry

     The total energy is F=E-TS. E is the sum of the following terms:
     one-electron contribution =   -2924.64105974 Ry
     hartree contribution      =    1431.85074220 Ry
     xc contribution           =     -72.72548706 Ry
     ewald contribution        =    1152.36839317 Ry
     one-center paw contrib.   =       1.76500718 Ry
      -> PAW hartree energy AE =       7.41288056 Ry
      -> PAW hartree energy PS =      -7.18993048 Ry
      -> PAW xc energy AE      =      -3.48168206 Ry
      -> PAW xc energy PS      =       3.34705750 Ry
      -> total E_H with PAW    =    1432.07369228 Ry
      -> total E_XC with PAW   =     -72.86011162 Ry
     pot.stat. contrib. (-muN) =       0.57385790 Ry
     electrostatic embedding   =      -3.69115835 Ry
     cavitation energy         =       0.02127563 Ry
     electrolyte free energy   =      -0.05087942 Ry
     correction to one-el term =     113.75968343 Ry

     WARNING: you are using the parabolic pbc correction;
              the potential shift above must be added to 
              band and Fermi energies.

     convergence has been achieved in  11 iterations
     The dielectric solvent contribution to forces
     atom    1 type  1   force =     0.00000000   -0.00884099   -0.09412282
     atom    2 type  1   force =     0.00000000    0.00367265    0.00034387
     atom    3 type  1   force =     0.00000000    0.00828751    0.02994407
     atom    4 type  1   force =     0.00000000   -0.03385428    0.07963972
     atom    5 type  1   force =    -0.00000000   -0.01376880   -0.01831710
     atom    6 type  1   force =     0.00000010   -0.00367783   -0.00044188
     atom    7 type  1   force =    -0.00000032    0.00882650    0.09404308
     atom    8 type  1   force =    -0.00000042    0.01385916    0.01826908
     atom    9 type  1   force =     0.00000038    0.03383906   -0.07977645
     atom   10 type  1   force =     0.00000003   -0.00825366   -0.02998156
     atom   11 type  1   force =    -0.00000000   -0.00884126   -0.09412248
     atom   12 type  1   force =    -0.00000000    0.00367244    0.00034440
     atom   13 type  1   force =    -0.00000000    0.00828792    0.02994480
     atom   14 type  1   force =    -0.00000000   -0.03385448    0.07963898
     atom   15 type  1   force =    -0.00000000   -0.01376860   -0.01831255
     atom   16 type  1   force =    -0.00000010   -0.00367783   -0.00044188
     atom   17 type  1   force =     0.00000032    0.00882650    0.09404309
     atom   18 type  1   force =     0.00000041    0.01385916    0.01826909
     atom   19 type  1   force =    -0.00000038    0.03383907   -0.07977645
     atom   20 type  1   force =    -0.00000003   -0.00825367   -0.02998156


     Forces acting on atoms (cartesian axes, Ry/au):

     atom    1 type  1   force =     0.00000000   -0.00003209   -0.00009715
     atom    2 type  1   force =     0.00000000    0.00023529   -0.00000957
     atom    3 type  1   force =     0.00000000    0.00010833    0.00004286
     atom    4 type  1   force =     0.00000000    0.00033946    0.00028442
     atom    5 type  1   force =     0.00000000   -0.00015047   -0.00000455
     atom    6 type  1   force =    -0.00000062   -0.00023750    0.00002227
     atom    7 type  1   force =     0.00000033    0.00004330    0.00010121
     atom    8 type  1   force =    -0.00000013    0.00018798   -0.00012185
     atom    9 type  1   force =     0.00000004   -0.00031890   -0.00029501
     atom   10 type  1   force =     0.00000105   -0.00017545    0.00007737
     atom   11 type  1   force =     0.00000000   -0.00003244   -0.00009687
     atom   12 type  1   force =     0.00000000    0.00023624   -0.00000941
     atom   13 type  1   force =     0.00000000    0.00010693    0.00004379
     atom   14 type  1   force =     0.00000000    0.00034008    0.00028431
     atom   15 type  1   force =     0.00000000   -0.00015022   -0.00000580
     atom   16 type  1   force =     0.00000062   -0.00023750    0.00002227
     atom   17 type  1   force =    -0.00000033    0.00004330    0.00010121
     atom   18 type  1   force =     0.00000013    0.00018798   -0.00012185
     atom   19 type  1   force =    -0.00000004   -0.00031890   -0.00029501
     atom   20 type  1   force =    -0.00000105   -0.00017545    0.00007737
     The non-local contrib.  to forces
     atom    1 type  1   force =     0.00000000    0.00066506    0.02821890
     atom    2 type  1   force =     0.00000000   -0.00048178   -0.00104730
     atom    3 type  1   force =     0.00000000   -0.00186125    0.00382769
     atom    4 type  1   force =     0.00000000    0.01067929   -0.02368598
     atom    5 type  1   force =     0.00000000    0.00949349    0.03724350
     atom    6 type  1   force =    -0.00000089    0.00052690    0.00109044
     atom    7 type  1   force =     0.00000077   -0.00071615   -0.02819385
     atom    8 type  1   force =    -0.00000010   -0.00951074   -0.03733684
     atom    9 type  1   force =     0.00000002   -0.01059944    0.02365775
     atom   10 type  1   force =     0.00000152    0.00182521   -0.00377350
     atom   11 type  1   force =     0.00000000    0.00066361    0.02821895
     atom   12 type  1   force =     0.00000000   -0.00047986   -0.00104721
     atom   13 type  1   force =     0.00000000   -0.00186251    0.00382741
     atom   14 type  1   force =     0.00000000    0.01068059   -0.02368717
     atom   15 type  1   force =     0.00000000    0.00949379    0.03724353
     atom   16 type  1   force =     0.00000089    0.00052690    0.00109044
     atom   17 type  1   force =    -0.00000077   -0.00071615   -0.02819385
     atom   18 type  1   force =     0.00000010   -0.00951074   -0.03733684
     atom   19 type  1   force =    -0.00000002   -0.01059944    0.02365775
     atom   20 type  1   force =    -0.00000152    0.00182521   -0.00377350
     The ionic contribution  to forces
     atom    1 type  1   force =    -0.00000002    0.10686065    5.75111780
     atom    2 type  1   force =    -0.00000002   -0.06484997    0.43461262
     atom    3 type  1   force =    -0.00000003   -0.08162342   -2.81155182
     atom    4 type  1   force =    -0.00000002    0.31682186   -6.50154950
     atom    5 type  1   force =    -0.00000001    0.15409360    8.05734231
     atom    6 type  1   force =    -0.00001390    0.06571980   -0.43163813
     atom    7 type  1   force =     0.00001232   -0.10790237   -5.74881247
     atom    8 type  1   force =    -0.00000099   -0.15377006   -8.05845343
     atom    9 type  1   force =    -0.00000031   -0.31507694    6.50120885
     atom   10 type  1   force =     0.00002545    0.07972455    2.80775810
     atom   11 type  1   force =     0.00000001    0.10684559    5.75112293
     atom   12 type  1   force =     0.00000001   -0.06481972    0.43458274
     atom   13 type  1   force =     0.00000002   -0.08165464   -2.81159087
     atom   14 type  1   force =     0.00000001    0.31683739   -6.50158679
     atom   15 type  1   force =     0.00000001    0.15409871    8.05737477
     atom   16 type  1   force =     0.00001391    0.06571980   -0.43163815
     atom   17 type  1   force =    -0.00001232   -0.10790237   -5.74881244
     atom   18 type  1   force =     0.00000099   -0.15377006   -8.05845339
     atom   19 type  1   force =     0.00000031   -0.31507695    6.50120882
     atom   20 type  1   force =    -0.00002544    0.07972455    2.80775805
     The local contribution  to forces
     atom    1 type  1   force =     0.00000349   -0.09871698   -5.68531188
     atom    2 type  1   force =     0.00000349    0.06189439   -0.43391902
     atom    3 type  1   force =     0.00000290    0.07530517    2.77782330
     atom    4 type  1   force =     0.00000407   -0.29330609    6.44588098
     atom    5 type  1   force =     0.00000408   -0.14996911   -8.07627254
     atom    6 type  1   force =     0.00001876   -0.06280661    0.43101158
     atom    7 type  1   force =    -0.00000802    0.09983532    5.68306507
     atom    8 type  1   force =     0.00000608    0.14960949    8.07740080
     atom    9 type  1   force =     0.00000408    0.29151733   -6.44538692
     atom   10 type  1   force =    -0.00002154   -0.07347169   -2.77392667
     atom   11 type  1   force =     0.00000442   -0.09870056   -5.68531713
     atom   12 type  1   force =     0.00000441    0.06186338   -0.43388960
     atom   13 type  1   force =     0.00000557    0.07533583    2.77786284
     atom   14 type  1   force =     0.00000500   -0.29332208    6.44592008
     atom   15 type  1   force =     0.00000384   -0.14997448   -8.07631086
     atom   16 type  1   force =    -0.00000936   -0.06280603    0.43101219
     atom   17 type  1   force =     0.00001685    0.09983532    5.68306446
     atom   18 type  1   force =     0.00000333    0.14961008    8.07739961
     atom   19 type  1   force =     0.00000417    0.29151732   -6.44538632
     atom   20 type  1   force =     0.00003035   -0.07347169   -2.77392546
     The core correction contribution to forces
     atom    1 type  1   force =     0.00000000    0.00000000    0.00000000
     atom    2 type  1   force =     0.00000000    0.00000000    0.00000000
     atom    3 type  1   force =     0.00000000    0.00000000    0.00000000
     atom    4 type  1   force =     0.00000000    0.00000000    0.00000000
     atom    5 type  1   force =     0.00000000    0.00000000    0.00000000
     atom    6 type  1   force =     0.00000000    0.00000000    0.00000000
     atom    7 type  1   force =     0.00000000    0.00000000    0.00000000
     atom    8 type  1   force =     0.00000000    0.00000000    0.00000000
     atom    9 type  1   force =     0.00000000    0.00000000    0.00000000
     atom   10 type  1   force =     0.00000000    0.00000000    0.00000000
     atom   11 type  1   force =     0.00000000    0.00000000    0.00000000
     atom   12 type  1   force =     0.00000000    0.00000000    0.00000000
     atom   13 type  1   force =     0.00000000    0.00000000    0.00000000
     atom   14 type  1   force =     0.00000000    0.00000000    0.00000000
     atom   15 type  1   force =     0.00000000    0.00000000    0.00000000
     atom   16 type  1   force =     0.00000000    0.00000000    0.00000000
     atom   17 type  1   force =     0.00000000    0.00000000    0.00000000
     atom   18 type  1   force =     0.00000000    0.00000000    0.00000000
     atom   19 type  1   force =     0.00000000    0.00000000    0.00000000
     atom   20 type  1   force =     0.00000000    0.00000000    0.00000000
     The Hubbard contrib.    to forces
     atom    1 type  1   force =     0.00000000    0.00000000    0.00000000
     atom    2 type  1   force =     0.00000000    0.00000000    0.00000000
     atom    3 type  1   force =     0.00000000    0.00000000    0.00000000
     atom    4 type  1   force =     0.00000000    0.00000000    0.00000000
     atom    5 type  1   force =     0.00000000    0.00000000    0.00000000
     atom    6 type  1   force =     0.00000000    0.00000000    0.00000000
     atom    7 type  1   force =     0.00000000    0.00000000    0.00000000
     atom    8 type  1   force =     0.00000000    0.00000000    0.00000000
     atom    9 type  1   force =     0.00000000    0.00000000    0.00000000
     atom   10 type  1   force =     0.00000000    0.00000000    0.00000000
     atom   11 type  1   force =     0.00000000    0.00000000    0.00000000
     atom   12 type  1   force =     0.00000000    0.00000000    0.00000000
     atom   13 type  1   force =     0.00000000    0.00000000    0.00000000
     atom   14 type  1   force =     0.00000000    0.00000000    0.00000000
     atom   15 type  1   force =     0.00000000    0.00000000    0.00000000
     atom   16 type  1   force =     0.00000000    0.00000000    0.00000000
     atom   17 type  1   force =     0.00000000    0.00000000    0.00000000
     atom   18 type  1   force =     0.00000000    0.00000000    0.00000000
     atom   19 type  1   force =     0.00000000    0.00000000    0.00000000
     atom   20 type  1   force =     0.00000000    0.00000000    0.00000000
     The SCF correction term to forces
     atom    1 type  1   force =     0.00000000    0.00000010    0.00000073
     atom    2 type  1   force =    -0.00000000   -0.00000007    0.00000015
     atom    3 type  1   force =    -0.00000000    0.00000025   -0.00000051
     atom    4 type  1   force =    -0.00000000   -0.00000140   -0.00000092
     atom    5 type  1   force =     0.00000000    0.00000028   -0.00000084
     atom    6 type  1   force =     0.00000001   -0.00000013   -0.00000016
     atom    7 type  1   force =    -0.00000000   -0.00000007   -0.00000046
     atom    8 type  1   force =     0.00000000   -0.00000024   -0.00000101
     atom    9 type  1   force =    -0.00000000    0.00000102    0.00000136
     atom   10 type  1   force =     0.00000001    0.00000007    0.00000030
     atom   11 type  1   force =    -0.00000000    0.00000011    0.00000074
     atom   12 type  1   force =    -0.00000000   -0.00000007    0.00000014
     atom   13 type  1   force =     0.00000000    0.00000025   -0.00000051
     atom   14 type  1   force =    -0.00000000   -0.00000140   -0.00000092
     atom   15 type  1   force =    -0.00000000    0.00000029   -0.00000082
     atom   16 type  1   force =    -0.00000001   -0.00000013   -0.00000016
     atom   17 type  1   force =     0.00000000   -0.00000007   -0.00000046
     atom   18 type  1   force =    -0.00000000   -0.00000024   -0.00000101
     atom   19 type  1   force =     0.00000000    0.00000102    0.00000136
     atom   20 type  1   force =    -0.00000001    0.00000007    0.00000030

     Total force =     0.001134     Total SCF correction =     0.000004
     Energy error            =      1.7E-06 Ry
     Gradient error          =      3.4E-04 Ry/Bohr

     bfgs converged in  26 scf cycles and  25 bfgs steps
     (criteria: energy <  1.0E-05 Ry, force <  3.9E-04 Ry/Bohr)

     End of BFGS Geometry Optimization

     Final energy             =    -300.7697137357 Ry

     File ./Li/Lithium.bfgs deleted, as requested
Begin final coordinates

ATOMIC_POSITIONS (angstrom)
Li              -0.0000000600        3.0638023869       25.8067729781
Li              -0.0000000600        6.1909614274       23.8105413090
Li              -0.0000000500        1.5218492773       22.4926324630
Li              -0.0000000700        4.4127541937       21.0107666602
Li              -0.0000000700        0.2385934710       27.0593594375
Li               1.7175900327        3.7955188988       23.4060974192
Li               1.7175688475        6.9212004943       21.4102638776
Li               1.7175729222        2.0642580532       20.1581193745
Li               1.7175833033        5.5719636196       26.2056181693
Li               1.7175716046        0.7846840430       24.7205840519
Li               3.4351561700        3.0637995621       25.8067740624
Li               3.4351561700        6.1909578328       23.8105288783
Li               3.4351561500        1.5218655134       22.4926101319
Li               3.4351561600        4.4127503924       21.0107521864
Li               3.4351561800        0.2385954379       27.0593979708
Li               5.1527222973        3.7955188888       23.4060974092
Li               5.1527434925        6.9212004943       21.4102638876
Li               5.1527394078        2.0642580432       20.1581193944
Li               5.1527290467        5.5719636196       26.2056181593
Li               5.1527407354        0.7846840430       24.7205840319
End final coordinates



     Writing all to output data dir ./Li/Lithium.save/ :
     XML data file
     init_run     :     14.31s CPU     20.97s WALL (       1 calls)
     electrons    :   5633.07s CPU   7340.81s WALL (      26 calls)
     update_pot   :      2.61s CPU      3.19s WALL (      25 calls)
     forces       :    125.13s CPU    128.19s WALL (      26 calls)

     Called by init_run:
     wfcinit      :      1.09s CPU      1.44s WALL (       1 calls)
     wfcinit:wfcr :      1.02s CPU      1.36s WALL (      15 calls)
     potinit      :      0.51s CPU      0.56s WALL (       1 calls)
     hinit0       :      1.97s CPU      2.17s WALL (       1 calls)

     Called by electrons:
     c_bands      :   2925.66s CPU   3958.16s WALL (     425 calls)
     sum_band     :    216.14s CPU    294.48s WALL (     425 calls)
     v_of_rho     :     32.67s CPU     40.28s WALL (     426 calls)
     v_h          :      2.99s CPU      3.79s WALL (     426 calls)
     v_xc         :     29.68s CPU     36.47s WALL (     426 calls)
     newd         :     14.34s CPU     19.44s WALL (     426 calls)
     PAW_pot      :      3.74s CPU      5.09s WALL (     451 calls)
     mix_rho      :     78.51s CPU    103.20s WALL (     425 calls)

     Called by c_bands:
     init_us_2    :     24.99s CPU     27.27s WALL (   13530 calls)
     cegterg      :   2673.70s CPU   3318.99s WALL (    7227 calls)

     Called by sum_band:
     sum_band:wei :      0.46s CPU      0.56s WALL (     425 calls)
     sum_band:loo :    194.66s CPU    263.96s WALL (     425 calls)
     sum_band:buf :      2.96s CPU      3.26s WALL (    6375 calls)
     sum_band:ini :     10.48s CPU     11.03s WALL (    6375 calls)
     sum_band:cal :     29.15s CPU     35.08s WALL (    6750 calls)
     sum_band:bec :      0.41s CPU      0.45s WALL (    6750 calls)
     addusdens    :     11.65s CPU     12.19s WALL (     425 calls)
                                        0.00s GPU  (     425 calls)
     addusd:skk   :      1.93s CPU      1.96s WALL (     425 calls)
                                        0.00s GPU  (     425 calls)

     Called by *egterg:
     cdiaghg      :    553.80s CPU    577.81s WALL (   91051 calls)
     cegterg:over :    191.62s CPU    210.82s WALL (   84694 calls)
     cegterg:upda :    175.87s CPU    181.84s WALL (   84694 calls)
     cegterg:last :     35.32s CPU     35.86s WALL (    8847 calls)
     h_psi        :   1538.13s CPU   2122.56s WALL (   91936 calls)
     s_psi        :    106.92s CPU    110.88s WALL (   91936 calls)
     g_psi        :      2.53s CPU      2.68s WALL (   84694 calls)

     Called by h_psi:
     h_psi:calbec :    184.09s CPU    226.24s WALL (   91936 calls)
     vloc_psi     :   1219.45s CPU   1749.97s WALL (   91936 calls)
                                        0.00s GPU  (   91936 calls)
     add_vuspsi   :    123.83s CPU    134.93s WALL (   91936 calls)

     General routines
     calbec       :    218.56s CPU    267.13s WALL (  100246 calls)
     fft          :     23.33s CPU     34.34s WALL (    5588 calls)
     ffts         :     52.23s CPU     69.71s WALL (   46853 calls)
     fftw         :   1301.89s CPU   1871.46s WALL ( 2608729 calls)
     interpolate  :      2.98s CPU      3.93s WALL (     426 calls)

     Parallel routines

     PAW routines
     PAW_pot      :      3.74s CPU      5.09s WALL (     451 calls)
     PAW_symme    :      0.13s CPU      0.17s WALL (     876 calls)

     Environ routines

     PWSCF        :      1h39m CPU      2h 8m WALL


   This run was terminated on:  18: 9:46   3Jan2025            

=------------------------------------------------------------------------------=
   JOB DONE.
=------------------------------------------------------------------------------=
