
     Program PWSCF v.7.4 starts on 21Jan2025 at 10:58:19 

     This program is part of the open-source Quantum ESPRESSO suite
     for quantum simulation of materials; please cite
         "P. Giannozzi et al., J. Phys.:Condens. Matter 21 395502 (2009);
         "P. Giannozzi et al., J. Phys.:Condens. Matter 29 465901 (2017);
         "P. Giannozzi et al., J. Chem. Phys. 152 154105 (2020);
          URL http://www.quantum-espresso.org", 
     in publications or presentations arising from this work. More details at
     http://www.quantum-espresso.org/quote

     Parallel version (MPI & OpenMP), running on     512 processor cores
     Number of MPI processes:               512
     Threads/MPI process:                     1

     MPI processes distributed on     4 nodes
     233183 MiB available memory on the printing compute node when the environment starts

     Reading input from espresso.pwi
Warning: card &CELL ignored
Warning: card    PRESS_CONV_THR   = 0.1 ignored
Warning: card    CELL_DOFREE      = 'ALL' ignored
Warning: card / ignored
Warning: card &FCP ignored
Warning: card / ignored
Warning: card &RISM ignored
Warning: card / ignored

     Current dimensions of program PWSCF are:
     Max number of different atomic species (ntypx) = 10
     Max number of k-points (npk) =  40000
     Max angular momentum in pseudopotentials (lmaxx) =  4

     IMPORTANT: XC functional enforced from input :
     Exchange-correlation= PBE
                           (   1   4   3   4   0   0   0)
     Any further DFT definition will be discarded
     Please, verify this is what you really want


     Reading input from environ.in:
     * using ionic solvent mode
     * setting boundary derivatives method to SSCS default
     * setting electrolyte-boundary derivatives method to SSCS default

Environ Warning (1001): card EOF ignored

     

     K-points division:     npool     =       2
     R & G space division:  proc/nbgrp/npool/nimage =     256
     Subspace diagonalization in iterative solution of the eigenvalue problem:
     a serial algorithm will be used


     Parallelization info
     --------------------
     sticks:   dense  smooth     PW     G-vecs:    dense   smooth      PW
     Min          49      19      5                30863     7773    1061
     Max          50      20      6                30904     7852    1116
     Sum       12597    5037   1349              7904519  1999739  278317

     Using Slab Decomposition



     bravais-lattice index     =            8
     lattice parameter (alat)  =      18.3607  a.u.
     unit-cell volume          =   20684.8735 (a.u.)^3
     number of atoms/cell      =           44
     number of atomic types    =            1
     number of electrons       =       132.00
     number of Kohn-Sham states=           99
     kinetic-energy cutoff     =      80.0000  Ry
     charge density cutoff     =     800.0000  Ry
     scf convergence threshold =      1.0E-16
     mixing beta               =       0.2000
     number of iterations used =            8  local-TF  mixing
     Exchange-correlation= PBE
                           (   1   4   3   4   0   0   0)

     ================================================================================

                                  Environ Setup Summary

     ================================================================================

     Please cite

          O. Andreussi, I. Dabo and N. Marzari, J. Chem. Phys. 136, 064102 (2012)
          F. Nattino, M. Truscott, N. Marzari, and O. Andreussi, J. Chem. Phys. 150, 041722 (2019)

     in publications or presentations arising from this work.

     ================================================================================

     Parameters
     ==========

     compensation onset threshold      =               0.1000E+00
     static permittivity               =                    89.90
     surface tension in input (dyn/cm) =                    37.30
     surface tension in internal units =               0.4792E-04

     Solvent Boundary
     ================

     solvent mode                      =                    ionic
     derivatives method                =                   lowmem
     electrolyte derivatives method    =                   lowmem
     numerical core for derivatives    =                      fft
     switching function adopted        =                     SCCS
     density limit for vacuum region   =               0.5000E-02
     density limit for bulk solvent    =               0.1000E-03
     soft-sphere radius mode           =                    bondi
     soft-sphere softness              =                     0.50
     alpha                             =                     1.32

     Electrostatic Setup
     ===================

     electrostatic problem to solve    =                    modpb
     numerical solver adopted          =                   newton
     type of auxiliary density adopted =                     none
     numerical core for poisson        =                      fft
     adopting a nested solver scheme
     inner solver                      =                       cg
     inner core                        =                      fft
     type of pbc corrections           =                parabolic
     numerical core for corrections    =                      1da

     ================================================================================


     >>>>> Grand-Canonical SCF is activated <<<<<
     Initial Total Charge  =     0.000000 e
     Target Fermi Energy   =    -5.404000 eV
     Thr. of Fermi Energy  =     0.001000 eV
     Wave-shift of Kerker  =     0.400000 bohr^-1
     Wave-shift of Hartree =     1.500000 bohr^-1
     Mixing Rate of Fermi  =     0.050000

     celldm(1)=  18.360747  celldm(2)=   0.586302  celldm(3)=   5.699811
     celldm(4)=   0.000000  celldm(5)=   0.000000  celldm(6)=   0.000000

     crystal axes: (cart. coord. in units of alat)
               a(1) = (   1.000000   0.000000   0.000000 )  
               a(2) = (   0.000000   0.586302   0.000000 )  
               a(3) = (   0.000000   0.000000   5.699811 )  

     reciprocal axes: (cart. coord. in units 2 pi/alat)
               b(1) = (  1.000000  0.000000  0.000000 )  
               b(2) = (  0.000000  1.705606  0.000000 )  
               b(3) = (  0.000000  0.000000  0.175444 )  


     PseudoPot. # 1 for Li read from file:
     /work/e89/e89/ba3g18/Repos/Pseudopotentials/Pslibrary/Li.pbe-sl-kjpaw_psl.1.0.0.UPF
     MD5 check sum: 3f4d2cafebb47c6c3aa8ed472e6f074d
     Pseudo is Projector augmented-wave, Zval =  3.0
     Generated using 'atomic' code by A. Dal Corso  v.7.4
     Shape of augmentation charge: PSQ
     Using radial grid of 1017 points,  4 beta functions with: 
                l(1) =   0
                l(2) =   0
                l(3) =   1
                l(4) =   1
     Q(r) pseudized with 0 coefficients 


     atomic species   valence    mass     pseudopotential
     Li                3.00     6.94000     Li( 1.00)

      2 Sym. Ops. (no inversion) found


                                    s                        frac. trans.

      isym =  1     identity                                     

 cryst.   s( 1) = (     1          0          0      )
                  (     0          1          0      )
                  (     0          0          1      )

 cart.    s( 1) = (  1.0000000  0.0000000  0.0000000 )
                  (  0.0000000  1.0000000  0.0000000 )
                  (  0.0000000  0.0000000  1.0000000 )


      isym =  2     inv. 180 deg rotation - cart. axis [1,0,0]   

 cryst.   s( 2) = (    -1          0          0      )
                  (     0          1          0      )
                  (     0          0          1      )

 cart.    s( 2) = ( -1.0000000  0.0000000  0.0000000 )
                  (  0.0000000  1.0000000  0.0000000 )
                  (  0.0000000  0.0000000  1.0000000 )


     point group C_s (m)    
     there are  2 classes
     the character table:

       E     s    
A'     1.00  1.00
A''    1.00 -1.00

     the symmetry operations in each class and the name of the first element:

     E        1
          identity                                               
     s        2
          inv. 180 deg rotation - cart. axis [1,0,0]             

   Cartesian axes

     site n.     atom                  positions (alat units)
         1        Li     tau(   1) = (   0.5000000   0.5316186   3.7167662  )
         2        Li     tau(   2) = (   0.2500053   0.4809396   1.9830272  )
         3        Li     tau(   3) = (   0.2500043   0.0962070   2.2567782  )
         4        Li     tau(   4) = (   0.5000000   0.2219521   2.0940360  )
         5        Li     tau(   5) = (  -0.0000000   0.5056859   2.2600577  )
         6        Li     tau(   6) = (   0.5000000   0.1942794   2.4182425  )
         7        Li     tau(   7) = (   0.2500060   0.3214925   2.6539933  )
         8        Li     tau(   8) = (   0.2499980   0.5870728   2.8368915  )
         9        Li     tau(   9) = (   0.2500016   0.3767268   2.3425177  )
        10        Li     tau(  10) = (   0.2499973   0.0439185   2.5373008  )
        11        Li     tau(  11) = (  -0.0000000   0.4676910   2.5622375  )
        12        Li     tau(  12) = (   0.5000000   0.1485497   2.7332640  )
        13        Li     tau(  13) = (   0.5000000   0.4256394   2.8628856  )
        14        Li     tau(  14) = (   0.5000000   0.1049076   3.0458327  )
        15        Li     tau(  15) = (   0.2499974   0.5450072   3.1375948  )
        16        Li     tau(  16) = (   0.2500004   0.2321188   3.2815712  )
        17        Li     tau(  17) = (   0.2500060   0.2778476   2.9665573  )
        18        Li     tau(  18) = (  -0.0000000   0.3824652   3.1625556  )
        19        Li     tau(  19) = (   0.5000000   0.0497122   3.3573274  )
        20        Li     tau(  20) = (   0.5000000   0.3302614   3.4429500  )
        21        Li     tau(  21) = (   0.2499901   0.5070219   3.4397669  )
        22        Li     tau(  22) = (   0.2501597   0.2044533   3.6057548  )
        23        Li     tau(  23) = (   1.0000000   0.5318881   3.7167475  )
        24        Li     tau(  24) = (   0.7499947   0.4809396   1.9830272  )
        25        Li     tau(  25) = (   0.7499957   0.0962070   2.2567782  )
        26        Li     tau(  26) = (   1.0000000   0.2219532   2.0940401  )
        27        Li     tau(  27) = (   0.5000000   0.5056776   2.2600354  )
        28        Li     tau(  28) = (   1.0000000   0.1942870   2.4182334  )
        29        Li     tau(  29) = (   0.7499940   0.3214925   2.6539933  )
        30        Li     tau(  30) = (   0.7500020   0.5870728   2.8368915  )
        31        Li     tau(  31) = (   0.7499984   0.3767268   2.3425177  )
        32        Li     tau(  32) = (   0.7500027   0.0439185   2.5373008  )
        33        Li     tau(  33) = (   0.5000000   0.4677004   2.5622022  )
        34        Li     tau(  34) = (   1.0000000   0.1485588   2.7332425  )
        35        Li     tau(  35) = (   1.0000000   0.4256205   2.8629570  )
        36        Li     tau(  36) = (   1.0000000   0.1049090   3.0458022  )
        37        Li     tau(  37) = (   0.7500026   0.5450072   3.1375948  )
        38        Li     tau(  38) = (   0.7499996   0.2321188   3.2815712  )
        39        Li     tau(  39) = (   0.7499940   0.2778476   2.9665573  )
        40        Li     tau(  40) = (   0.5000000   0.3825038   3.1624376  )
        41        Li     tau(  41) = (   1.0000000   0.0496550   3.3572632  )
        42        Li     tau(  42) = (   1.0000000   0.3301199   3.4431454  )
        43        Li     tau(  43) = (   0.7500099   0.5070219   3.4397669  )
        44        Li     tau(  44) = (   0.7498403   0.2044533   3.6057548  )

   Crystallographic axes

     site n.     atom                  positions (cryst. coord.)
         1        Li     tau(   1) = (  0.5000000  0.9067317  0.6520859  )
         2        Li     tau(   2) = (  0.2500053  0.8202933  0.3479110  )
         3        Li     tau(   3) = (  0.2500043  0.1640913  0.3959391  )
         4        Li     tau(   4) = (  0.5000000  0.3785627  0.3673869  )
         5        Li     tau(   5) = (  0.0000000  0.8625007  0.3965145  )
         6        Li     tau(   6) = (  0.5000000  0.3313640  0.4242671  )
         7        Li     tau(   7) = (  0.2500060  0.5483394  0.4656283  )
         8        Li     tau(   8) = (  0.2499980  1.0013148  0.4977168  )
         9        Li     tau(   9) = (  0.2500016  0.6425473  0.4109816  )
        10        Li     tau(  10) = (  0.2499973  0.0749077  0.4451553  )
        11        Li     tau(  11) = (  0.0000000  0.7976965  0.4495302  )
        12        Li     tau(  12) = (  0.5000000  0.2533672  0.4795359  )
        13        Li     tau(  13) = (  0.5000000  0.7259730  0.5022773  )
        14        Li     tau(  14) = (  0.5000000  0.1789310  0.5343743  )
        15        Li     tau(  15) = (  0.2499974  0.9295673  0.5504735  )
        16        Li     tau(  16) = (  0.2500004  0.3959032  0.5757333  )
        17        Li     tau(  17) = (  0.2500060  0.4738984  0.5204659  )
        18        Li     tau(  18) = (  0.0000000  0.6523348  0.5548527  )
        19        Li     tau(  19) = (  0.5000000  0.0847894  0.5890243  )
        20        Li     tau(  20) = (  0.5000000  0.5632956  0.6040463  )
        21        Li     tau(  21) = (  0.2499901  0.8647795  0.6034879  )
        22        Li     tau(  22) = (  0.2501597  0.3487167  0.6326095  )
        23        Li     tau(  23) = (  1.0000000  0.9071914  0.6520826  )
        24        Li     tau(  24) = (  0.7499947  0.8202933  0.3479110  )
        25        Li     tau(  25) = (  0.7499957  0.1640913  0.3959391  )
        26        Li     tau(  26) = (  1.0000000  0.3785646  0.3673876  )
        27        Li     tau(  27) = (  0.5000000  0.8624865  0.3965106  )
        28        Li     tau(  28) = (  1.0000000  0.3313769  0.4242655  )
        29        Li     tau(  29) = (  0.7499940  0.5483394  0.4656283  )
        30        Li     tau(  30) = (  0.7500020  1.0013148  0.4977168  )
        31        Li     tau(  31) = (  0.7499984  0.6425473  0.4109816  )
        32        Li     tau(  32) = (  0.7500027  0.0749077  0.4451553  )
        33        Li     tau(  33) = (  0.5000000  0.7977124  0.4495241  )
        34        Li     tau(  34) = (  1.0000000  0.2533828  0.4795321  )
        35        Li     tau(  35) = (  1.0000000  0.7259407  0.5022898  )
        36        Li     tau(  36) = (  1.0000000  0.1789334  0.5343690  )
        37        Li     tau(  37) = (  0.7500026  0.9295673  0.5504735  )
        38        Li     tau(  38) = (  0.7499996  0.3959032  0.5757333  )
        39        Li     tau(  39) = (  0.7499940  0.4738984  0.5204659  )
        40        Li     tau(  40) = (  0.5000000  0.6524007  0.5548320  )
        41        Li     tau(  41) = (  1.0000000  0.0846919  0.5890131  )
        42        Li     tau(  42) = (  1.0000000  0.5630544  0.6040806  )
        43        Li     tau(  43) = (  0.7500099  0.8647795  0.6034879  )
        44        Li     tau(  44) = (  0.7498403  0.3487167  0.6326095  )

     number of k points=    28  Marzari-Vanderbilt smearing, width (Ry)=  0.0100
                       cart. coord. in units 2pi/alat
        k(    1) = (   0.0000000   0.0000000   0.0000000), wk =   0.0238095
        k(    2) = (   0.0000000   0.1421338   0.0000000), wk =   0.0476190
        k(    3) = (   0.0000000   0.2842676   0.0000000), wk =   0.0476190
        k(    4) = (   0.0000000   0.4264014   0.0000000), wk =   0.0476190
        k(    5) = (   0.0000000   0.5685352   0.0000000), wk =   0.0476190
        k(    6) = (   0.0000000   0.7106690   0.0000000), wk =   0.0476190
        k(    7) = (   0.0000000  -0.8528028   0.0000000), wk =   0.0238095
        k(    8) = (   0.1428571   0.0000000   0.0000000), wk =   0.0476190
        k(    9) = (   0.1428571   0.1421338   0.0000000), wk =   0.0952381
        k(   10) = (   0.1428571   0.2842676   0.0000000), wk =   0.0952381
        k(   11) = (   0.1428571   0.4264014   0.0000000), wk =   0.0952381
        k(   12) = (   0.1428571   0.5685352   0.0000000), wk =   0.0952381
        k(   13) = (   0.1428571   0.7106690   0.0000000), wk =   0.0952381
        k(   14) = (   0.1428571  -0.8528028   0.0000000), wk =   0.0476190
        k(   15) = (   0.2857143   0.0000000   0.0000000), wk =   0.0476190
        k(   16) = (   0.2857143   0.1421338   0.0000000), wk =   0.0952381
        k(   17) = (   0.2857143   0.2842676   0.0000000), wk =   0.0952381
        k(   18) = (   0.2857143   0.4264014   0.0000000), wk =   0.0952381
        k(   19) = (   0.2857143   0.5685352   0.0000000), wk =   0.0952381
        k(   20) = (   0.2857143   0.7106690   0.0000000), wk =   0.0952381
        k(   21) = (   0.2857143  -0.8528028   0.0000000), wk =   0.0476190
        k(   22) = (   0.4285714   0.0000000   0.0000000), wk =   0.0476190
        k(   23) = (   0.4285714   0.1421338   0.0000000), wk =   0.0952381
        k(   24) = (   0.4285714   0.2842676   0.0000000), wk =   0.0952381
        k(   25) = (   0.4285714   0.4264014   0.0000000), wk =   0.0952381
        k(   26) = (   0.4285714   0.5685352   0.0000000), wk =   0.0952381
        k(   27) = (   0.4285714   0.7106690   0.0000000), wk =   0.0952381
        k(   28) = (   0.4285714  -0.8528028   0.0000000), wk =   0.0476190

                       cryst. coord.
        k(    1) = (   0.0000000   0.0000000   0.0000000), wk =   0.0238095
        k(    2) = (   0.0000000   0.0833333   0.0000000), wk =   0.0476190
        k(    3) = (   0.0000000   0.1666667   0.0000000), wk =   0.0476190
        k(    4) = (   0.0000000   0.2500000   0.0000000), wk =   0.0476190
        k(    5) = (   0.0000000   0.3333333   0.0000000), wk =   0.0476190
        k(    6) = (   0.0000000   0.4166667   0.0000000), wk =   0.0476190
        k(    7) = (   0.0000000  -0.5000000   0.0000000), wk =   0.0238095
        k(    8) = (   0.1428571   0.0000000   0.0000000), wk =   0.0476190
        k(    9) = (   0.1428571   0.0833333   0.0000000), wk =   0.0952381
        k(   10) = (   0.1428571   0.1666667   0.0000000), wk =   0.0952381
        k(   11) = (   0.1428571   0.2500000   0.0000000), wk =   0.0952381
        k(   12) = (   0.1428571   0.3333333   0.0000000), wk =   0.0952381
        k(   13) = (   0.1428571   0.4166667   0.0000000), wk =   0.0952381
        k(   14) = (   0.1428571  -0.5000000   0.0000000), wk =   0.0476190
        k(   15) = (   0.2857143   0.0000000   0.0000000), wk =   0.0476190
        k(   16) = (   0.2857143   0.0833333   0.0000000), wk =   0.0952381
        k(   17) = (   0.2857143   0.1666667   0.0000000), wk =   0.0952381
        k(   18) = (   0.2857143   0.2500000   0.0000000), wk =   0.0952381
        k(   19) = (   0.2857143   0.3333333   0.0000000), wk =   0.0952381
        k(   20) = (   0.2857143   0.4166667   0.0000000), wk =   0.0952381
        k(   21) = (   0.2857143  -0.5000000   0.0000000), wk =   0.0476190
        k(   22) = (   0.4285714   0.0000000   0.0000000), wk =   0.0476190
        k(   23) = (   0.4285714   0.0833333   0.0000000), wk =   0.0952381
        k(   24) = (   0.4285714   0.1666667   0.0000000), wk =   0.0952381
        k(   25) = (   0.4285714   0.2500000   0.0000000), wk =   0.0952381
        k(   26) = (   0.4285714   0.3333333   0.0000000), wk =   0.0952381
        k(   27) = (   0.4285714   0.4166667   0.0000000), wk =   0.0952381
        k(   28) = (   0.4285714  -0.5000000   0.0000000), wk =   0.0476190

     Dense  grid:  7904519 G-vectors     FFT dimensions: ( 180, 100, 960)

     Smooth grid:  1999739 G-vectors     FFT dimensions: ( 108,  64, 600)

     Dynamical RAM for                 wfc:       1.47 MB

     Dynamical RAM for     wfc (w. buffer):      22.12 MB

     Dynamical RAM for           str. fact:       0.47 MB

     Dynamical RAM for           local pot:       0.00 MB

     Dynamical RAM for          nlocal pot:       5.24 MB

     Dynamical RAM for                qrad:       0.65 MB

     Dynamical RAM for          rho,v,vnew:       3.06 MB

     Dynamical RAM for               rhoin:       1.02 MB

     Dynamical RAM for            rho*nmix:       7.54 MB

     Dynamical RAM for           G-vectors:       1.83 MB

     Dynamical RAM for          h,s,v(r/c):       7.18 MB

     Dynamical RAM for          <psi|beta>:       0.53 MB

     Dynamical RAM for                 psi:       5.90 MB

     Dynamical RAM for                hpsi:       5.90 MB

     Dynamical RAM for                spsi:       5.90 MB

     Dynamical RAM for      wfcinit/wfcrot:       3.17 MB

     Dynamical RAM for           addusdens:      20.73 MB

     Dynamical RAM for          addusforce:      41.02 MB

     Estimated static dynamical RAM per process >      38.07 MB

     Estimated max dynamical RAM per process >     120.61 MB

     Estimated total dynamical RAM >      41.43 GB

     Initial potential from superposition of free atoms

     starting charge     131.7972, renormalised to     132.0000

     negative rho (up, down):  3.208E-03 0.000E+00
     Starting wfcs are random
     Checking if some PAW data can be deallocated... 

     total cpu time spent up to now is       27.7 secs

     Self-consistent Calculation

     iteration #  1     ecut=    80.00 Ry     beta= 0.20
     Davidson diagonalization with overlap

---- Real-time Memory Report at c_bands before calling an iterative solver
           540 MiB given to the printing process from OS
             0 MiB allocation reported by mallinfo(arena+hblkhd)
        219738 MiB available memory on the node where the printing process lives
------------------
     c_bands:  1 eigenvalues not converged
     c_bands:  1 eigenvalues not converged
     c_bands:  1 eigenvalues not converged
     c_bands:  1 eigenvalues not converged
     c_bands:  1 eigenvalues not converged
     ethr =  1.00E-12,  avg # of iterations =121.3

     negative rho (up, down):  2.388E-03 0.000E+00

     total cpu time spent up to now is      279.1 secs

     total energy              =    -661.54627548 Ry
     estimated scf accuracy    <       0.12456016 Ry

     total charge of GC-SCF    =       0.16255367 e
     the Fermi energy          =      -4.13631180 eV
                        (error :       1.26768820 eV)
     electrostatic embedding   =       0.00000000 Ry
     cavitation energy         =       0.02702467 Ry
     electrolyte free energy   =       0.00890302 Ry
     correction to one-el term =      -0.00000000 Ry

     iteration #  2     ecut=    80.00 Ry     beta= 0.20
     Davidson diagonalization with overlap

---- Real-time Memory Report at c_bands before calling an iterative solver
           540 MiB given to the printing process from OS
             0 MiB allocation reported by mallinfo(arena+hblkhd)
        218244 MiB available memory on the node where the printing process lives
------------------
     ethr =  1.00E-05,  avg # of iterations = 11.9

     negative rho (up, down):  1.876E-03 0.000E+00

     add environment contribution to local potential

     total cpu time spent up to now is      312.7 secs

     total energy              =    -661.94858868 Ry
     estimated scf accuracy    <       0.07815078 Ry

     total charge of GC-SCF    =       0.24701007 e
     the Fermi energy          =      -3.57108119 eV
                        (error :       1.83291881 eV)
     electrostatic embedding   =       0.00162944 Ry
     cavitation energy         =       0.02702467 Ry
     electrolyte free energy   =       0.00890302 Ry
     correction to one-el term =      -0.00000000 Ry

     iteration #  3     ecut=    80.00 Ry     beta= 0.20
     Davidson diagonalization with overlap

---- Real-time Memory Report at c_bands before calling an iterative solver
           540 MiB given to the printing process from OS
             0 MiB allocation reported by mallinfo(arena+hblkhd)
        218053 MiB available memory on the node where the printing process lives
------------------
     ethr =  1.00E-05,  avg # of iterations = 25.6

     negative rho (up, down):  1.443E-03 0.000E+00

     add environment contribution to local potential

     total cpu time spent up to now is      362.1 secs

     total energy              =    -661.87280542 Ry
     estimated scf accuracy    <       0.02965759 Ry

     total charge of GC-SCF    =       0.49357907 e
     the Fermi energy          =      -3.25963988 eV
                        (error :       2.14436012 eV)
     electrostatic embedding   =      -0.02340721 Ry
     cavitation energy         =       0.02702467 Ry
     electrolyte free energy   =      -0.00620794 Ry
     correction to one-el term =      -6.66879642 Ry

     iteration #  4     ecut=    80.00 Ry     beta= 0.20
     Davidson diagonalization with overlap

---- Real-time Memory Report at c_bands before calling an iterative solver
           540 MiB given to the printing process from OS
             0 MiB allocation reported by mallinfo(arena+hblkhd)
        218081 MiB available memory on the node where the printing process lives
------------------
     ethr =  1.00E-05,  avg # of iterations = 16.5

     negative rho (up, down):  1.143E-03 0.000E+00

     add environment contribution to local potential

     total cpu time spent up to now is      404.2 secs

     total energy              =    -661.86556341 Ry
     estimated scf accuracy    <       0.03255362 Ry

     total charge of GC-SCF    =       0.70897489 e
     the Fermi energy          =      -3.78554180 eV
                        (error :       1.61845820 eV)
     electrostatic embedding   =      -0.02938044 Ry
     cavitation energy         =       0.02702467 Ry
     electrolyte free energy   =      -0.00827703 Ry
     correction to one-el term =     -12.05027991 Ry

     iteration #  5     ecut=    80.00 Ry     beta= 0.20
     Davidson diagonalization with overlap

---- Real-time Memory Report at c_bands before calling an iterative solver
           540 MiB given to the printing process from OS
             0 MiB allocation reported by mallinfo(arena+hblkhd)
        218030 MiB available memory on the node where the printing process lives
------------------
     ethr =  1.00E-05,  avg # of iterations = 11.5

     negative rho (up, down):  9.117E-04 0.000E+00

     add environment contribution to local potential

     total cpu time spent up to now is      433.6 secs

     total energy              =    -661.67629450 Ry
     estimated scf accuracy    <       0.01764527 Ry

     total charge of GC-SCF    =       1.45903266 e
     the Fermi energy          =      -3.56875641 eV
                        (error :       1.83524359 eV)
     electrostatic embedding   =      -0.05580216 Ry
     cavitation energy         =       0.02702467 Ry
     electrolyte free energy   =      -0.00797623 Ry
     correction to one-el term =     -18.43845611 Ry

     iteration #  6     ecut=    80.00 Ry     beta= 0.20
     Davidson diagonalization with overlap

---- Real-time Memory Report at c_bands before calling an iterative solver
           540 MiB given to the printing process from OS
             0 MiB allocation reported by mallinfo(arena+hblkhd)
        217988 MiB available memory on the node where the printing process lives
------------------
     ethr =  1.00E-05,  avg # of iterations =  9.9

     negative rho (up, down):  5.161E-03 0.000E+00

     add environment contribution to local potential

     total cpu time spent up to now is      462.9 secs

     total energy              =    -661.72774016 Ry
     estimated scf accuracy    <       0.00791779 Ry

     total charge of GC-SCF    =       2.49590699 e
     the Fermi energy          =      -3.58942046 eV
                        (error :       1.81457954 eV)
     electrostatic embedding   =      -0.25483084 Ry
     cavitation energy         =       0.02702467 Ry
     electrolyte free energy   =      -0.01109227 Ry
     correction to one-el term =     -39.45490755 Ry

     iteration #  7     ecut=    80.00 Ry     beta= 0.20
     Davidson diagonalization with overlap

---- Real-time Memory Report at c_bands before calling an iterative solver
           540 MiB given to the printing process from OS
             0 MiB allocation reported by mallinfo(arena+hblkhd)
        217979 MiB available memory on the node where the printing process lives
------------------
     ethr =  6.11E-06,  avg # of iterations = 18.0

     negative rho (up, down):  1.432E-02 0.000E+00

     add environment contribution to local potential

     total cpu time spent up to now is      506.4 secs

     total energy              =    -662.03387509 Ry
     estimated scf accuracy    <       0.03682955 Ry

     total charge of GC-SCF    =       2.76850334 e
     the Fermi energy          =      -4.58207112 eV
                        (error :       0.82192888 eV)
     electrostatic embedding   =      -0.76738880 Ry
     cavitation energy         =       0.02702467 Ry
     electrolyte free energy   =      -0.02285302 Ry
     correction to one-el term =     -66.84656737 Ry

     iteration #  8     ecut=    80.00 Ry     beta= 0.20
     Davidson diagonalization with overlap

---- Real-time Memory Report at c_bands before calling an iterative solver
           540 MiB given to the printing process from OS
             0 MiB allocation reported by mallinfo(arena+hblkhd)
        217896 MiB available memory on the node where the printing process lives
------------------
     ethr =  6.11E-06,  avg # of iterations = 10.6

     negative rho (up, down):  6.617E-03 0.000E+00

     add environment contribution to local potential

     total cpu time spent up to now is      537.8 secs

     total energy              =    -662.30794602 Ry
     estimated scf accuracy    <       0.01153499 Ry

     total charge of GC-SCF    =       2.55704159 e
     the Fermi energy          =      -4.43713682 eV
                        (error :       0.96686318 eV)
     electrostatic embedding   =      -0.97615230 Ry
     cavitation energy         =       0.02702467 Ry
     electrolyte free energy   =      -0.02668018 Ry
     correction to one-el term =     -75.17246551 Ry

     iteration #  9     ecut=    80.00 Ry     beta= 0.20
     Davidson diagonalization with overlap

---- Real-time Memory Report at c_bands before calling an iterative solver
           540 MiB given to the printing process from OS
             0 MiB allocation reported by mallinfo(arena+hblkhd)
        217879 MiB available memory on the node where the printing process lives
------------------
     ethr =  6.11E-06,  avg # of iterations = 10.7

     negative rho (up, down):  1.072E-02 0.000E+00

     add environment contribution to local potential

     total cpu time spent up to now is      569.0 secs

     total energy              =    -661.92603673 Ry
     estimated scf accuracy    <       0.01436884 Ry

     total charge of GC-SCF    =       3.38871514 e
     the Fermi energy          =      -4.34446018 eV
                        (error :       1.05953982 eV)
     electrostatic embedding   =      -0.82373640 Ry
     cavitation energy         =       0.02702467 Ry
     electrolyte free energy   =      -0.02356762 Ry
     correction to one-el term =     -69.22961715 Ry

     iteration # 10     ecut=    80.00 Ry     beta= 0.20
     Davidson diagonalization with overlap

---- Real-time Memory Report at c_bands before calling an iterative solver
           540 MiB given to the printing process from OS
             0 MiB allocation reported by mallinfo(arena+hblkhd)
        217834 MiB available memory on the node where the printing process lives
------------------
     ethr =  6.11E-06,  avg # of iterations = 14.4

     negative rho (up, down):  4.091E-02 0.000E+00

     add environment contribution to local potential

     total cpu time spent up to now is      610.8 secs

     total energy              =    -662.07684171 Ry
     estimated scf accuracy    <       0.01017378 Ry

     total charge of GC-SCF    =       3.90486932 e
     the Fermi energy          =      -4.98957073 eV
                        (error :       0.41442927 eV)
     electrostatic embedding   =      -1.48590606 Ry
     cavitation energy         =       0.02702467 Ry
     electrolyte free energy   =      -0.03800461 Ry
     correction to one-el term =     -93.04830420 Ry

     iteration # 11     ecut=    80.00 Ry     beta= 0.20
     Davidson diagonalization with overlap

---- Real-time Memory Report at c_bands before calling an iterative solver
           540 MiB given to the printing process from OS
             0 MiB allocation reported by mallinfo(arena+hblkhd)
        217768 MiB available memory on the node where the printing process lives
------------------
     ethr =  6.11E-06,  avg # of iterations =  9.6

     negative rho (up, down):  1.076E-02 0.000E+00

     add environment contribution to local potential

     total cpu time spent up to now is      643.2 secs

     total energy              =    -662.18023495 Ry
     estimated scf accuracy    <       0.00060468 Ry

     total charge of GC-SCF    =       3.84837187 e
     the Fermi energy          =      -5.24498503 eV
                        (error :       0.15901497 eV)
     electrostatic embedding   =      -2.02523624 Ry
     cavitation energy         =       0.02702467 Ry
     electrolyte free energy   =      -0.05013096 Ry
     correction to one-el term =    -109.18440097 Ry

     iteration # 12     ecut=    80.00 Ry     beta= 0.20
     Davidson diagonalization with overlap

---- Real-time Memory Report at c_bands before calling an iterative solver
           540 MiB given to the printing process from OS
             0 MiB allocation reported by mallinfo(arena+hblkhd)
        217772 MiB available memory on the node where the printing process lives
------------------
     ethr =  4.72E-07,  avg # of iterations = 12.9

     negative rho (up, down):  1.045E-02 0.000E+00

     add environment contribution to local potential

     total cpu time spent up to now is      683.4 secs

     total energy              =    -662.17170912 Ry
     estimated scf accuracy    <       0.00032305 Ry

     total charge of GC-SCF    =       4.23682772 e
     the Fermi energy          =      -5.13436361 eV
                        (error :       0.26963639 eV)
     electrostatic embedding   =      -1.98899391 Ry
     cavitation energy         =       0.02702467 Ry
     electrolyte free energy   =      -0.04875191 Ry
     correction to one-el term =    -108.62767985 Ry

     iteration # 13     ecut=    80.00 Ry     beta= 0.20
     Davidson diagonalization with overlap

---- Real-time Memory Report at c_bands before calling an iterative solver
           540 MiB given to the printing process from OS
             0 MiB allocation reported by mallinfo(arena+hblkhd)
        217786 MiB available memory on the node where the printing process lives
------------------
     ethr =  2.53E-07,  avg # of iterations = 26.9

     negative rho (up, down):  2.168E-03 0.000E+00

     add environment contribution to local potential

     total cpu time spent up to now is      738.7 secs

     total energy              =    -662.17571233 Ry
     estimated scf accuracy    <       0.00012744 Ry

     total charge of GC-SCF    =       4.12137689 e
     the Fermi energy          =      -5.45128897 eV
                        (error :       0.04728897 eV)
     electrostatic embedding   =      -2.43635499 Ry
     cavitation energy         =       0.02702467 Ry
     electrolyte free energy   =      -0.05961854 Ry
     correction to one-el term =    -119.49309267 Ry

     iteration # 14     ecut=    80.00 Ry     beta= 0.20
     Davidson diagonalization with overlap

---- Real-time Memory Report at c_bands before calling an iterative solver
           540 MiB given to the printing process from OS
             0 MiB allocation reported by mallinfo(arena+hblkhd)
        217770 MiB available memory on the node where the printing process lives
------------------
     ethr =  9.97E-08,  avg # of iterations = 15.0

     negative rho (up, down):  1.979E-03 0.000E+00

     add environment contribution to local potential

     total cpu time spent up to now is      777.2 secs

     total energy              =    -662.17600754 Ry
     estimated scf accuracy    <       0.00010022 Ry

     total charge of GC-SCF    =       4.12780535 e
     the Fermi energy          =      -5.38266653 eV
                        (error :       0.02133347 eV)
     electrostatic embedding   =      -2.30678642 Ry
     cavitation energy         =       0.02702467 Ry
     electrolyte free energy   =      -0.05621817 Ry
     correction to one-el term =    -116.66738559 Ry

     iteration # 15     ecut=    80.00 Ry     beta= 0.20
     Davidson diagonalization with overlap

---- Real-time Memory Report at c_bands before calling an iterative solver
           540 MiB given to the printing process from OS
             0 MiB allocation reported by mallinfo(arena+hblkhd)
        217790 MiB available memory on the node where the printing process lives
------------------
     ethr =  7.84E-08,  avg # of iterations =  7.0

     negative rho (up, down):  1.278E-03 0.000E+00

     add environment contribution to local potential

     total cpu time spent up to now is      801.3 secs

     total energy              =    -662.17599436 Ry
     estimated scf accuracy    <       0.00009711 Ry

     total charge of GC-SCF    =       4.11839681 e
     the Fermi energy          =      -5.38831408 eV
                        (error :       0.01568592 eV)
     electrostatic embedding   =      -2.31372945 Ry
     cavitation energy         =       0.02702467 Ry
     electrolyte free energy   =      -0.05640295 Ry
     correction to one-el term =    -116.81360914 Ry

     iteration # 16     ecut=    80.00 Ry     beta= 0.20
     Davidson diagonalization with overlap

---- Real-time Memory Report at c_bands before calling an iterative solver
           540 MiB given to the printing process from OS
             0 MiB allocation reported by mallinfo(arena+hblkhd)
        217728 MiB available memory on the node where the printing process lives
------------------
     ethr =  7.59E-08,  avg # of iterations = 12.1

     negative rho (up, down):  7.145E-04 0.000E+00

     add environment contribution to local potential

     total cpu time spent up to now is      838.9 secs

     total energy              =    -662.17617927 Ry
     estimated scf accuracy    <       0.00003309 Ry

     total charge of GC-SCF    =       4.17546347 e
     the Fermi energy          =      -5.35309799 eV
                        (error :       0.05090201 eV)
     electrostatic embedding   =      -2.30551990 Ry
     cavitation energy         =       0.02702467 Ry
     electrolyte free energy   =      -0.05613686 Ry
     correction to one-el term =    -116.49642990 Ry

     iteration # 17     ecut=    80.00 Ry     beta= 0.20
     Davidson diagonalization with overlap

---- Real-time Memory Report at c_bands before calling an iterative solver
           540 MiB given to the printing process from OS
             0 MiB allocation reported by mallinfo(arena+hblkhd)
        217703 MiB available memory on the node where the printing process lives
------------------
     ethr =  2.59E-08,  avg # of iterations = 18.9

     negative rho (up, down):  2.518E-03 0.000E+00

     add environment contribution to local potential

     total cpu time spent up to now is      885.6 secs

     total energy              =    -662.17617308 Ry
     estimated scf accuracy    <       0.00002438 Ry

     total charge of GC-SCF    =       4.13813873 e
     the Fermi energy          =      -5.39592140 eV
                        (error :       0.00807860 eV)
     electrostatic embedding   =      -2.37246817 Ry
     cavitation energy         =       0.02702467 Ry
     electrolyte free energy   =      -0.05780509 Ry
     correction to one-el term =    -118.10778271 Ry

     iteration # 18     ecut=    80.00 Ry     beta= 0.20
     Davidson diagonalization with overlap

---- Real-time Memory Report at c_bands before calling an iterative solver
           540 MiB given to the printing process from OS
             0 MiB allocation reported by mallinfo(arena+hblkhd)
        217706 MiB available memory on the node where the printing process lives
------------------
     ethr =  1.91E-08,  avg # of iterations = 16.9

     negative rho (up, down):  3.879E-03 0.000E+00

     add environment contribution to local potential

     total cpu time spent up to now is      927.2 secs

     total energy              =    -662.17607820 Ry
     estimated scf accuracy    <       0.00000573 Ry

     total charge of GC-SCF    =       4.16077660 e
     the Fermi energy          =      -5.37804168 eV
                        (error :       0.02595832 eV)
     electrostatic embedding   =      -2.32445690 Ry
     cavitation energy         =       0.02702467 Ry
     electrolyte free energy   =      -0.05669551 Ry
     correction to one-el term =    -116.98922828 Ry

     iteration # 19     ecut=    80.00 Ry     beta= 0.20
     Davidson diagonalization with overlap

---- Real-time Memory Report at c_bands before calling an iterative solver
           540 MiB given to the printing process from OS
             0 MiB allocation reported by mallinfo(arena+hblkhd)
        217714 MiB available memory on the node where the printing process lives
------------------
     ethr =  4.48E-09,  avg # of iterations = 15.8

     negative rho (up, down):  1.218E-03 0.000E+00

     add environment contribution to local potential

     total cpu time spent up to now is      967.3 secs

     total energy              =    -662.17595788 Ry
     estimated scf accuracy    <       0.00000388 Ry

     total charge of GC-SCF    =       4.16202661 e
     the Fermi energy          =      -5.39591637 eV
                        (error :       0.00808363 eV)
     electrostatic embedding   =      -2.34952894 Ry
     cavitation energy         =       0.02702467 Ry
     electrolyte free energy   =      -0.05735358 Ry
     correction to one-el term =    -117.54744953 Ry

     iteration # 20     ecut=    80.00 Ry     beta= 0.20
     Davidson diagonalization with overlap

---- Real-time Memory Report at c_bands before calling an iterative solver
           540 MiB given to the printing process from OS
             0 MiB allocation reported by mallinfo(arena+hblkhd)
        217702 MiB available memory on the node where the printing process lives
------------------
     ethr =  3.04E-09,  avg # of iterations = 13.5

     negative rho (up, down):  4.486E-04 0.000E+00

     add environment contribution to local potential

     total cpu time spent up to now is     1005.5 secs

     total energy              =    -662.17593479 Ry
     estimated scf accuracy    <       0.00000206 Ry

     total charge of GC-SCF    =       4.16320942 e
     the Fermi energy          =      -5.39665109 eV
                        (error :       0.00734891 eV)
     electrostatic embedding   =      -2.35301058 Ry
     cavitation energy         =       0.02702467 Ry
     electrolyte free energy   =      -0.05739745 Ry
     correction to one-el term =    -117.64318222 Ry

     iteration # 21     ecut=    80.00 Ry     beta= 0.20
     Davidson diagonalization with overlap

---- Real-time Memory Report at c_bands before calling an iterative solver
           540 MiB given to the printing process from OS
             0 MiB allocation reported by mallinfo(arena+hblkhd)
        217710 MiB available memory on the node where the printing process lives
------------------
     ethr =  1.61E-09,  avg # of iterations = 12.3

     negative rho (up, down):  4.039E-04 0.000E+00

     add environment contribution to local potential

     total cpu time spent up to now is     1042.2 secs

     total energy              =    -662.17587972 Ry
     estimated scf accuracy    <       0.00000098 Ry

     total charge of GC-SCF    =       4.17058084 e
     the Fermi energy          =      -5.40021634 eV
                        (error :       0.00378366 eV)
     electrostatic embedding   =      -2.35556430 Ry
     cavitation energy         =       0.02702467 Ry
     electrolyte free energy   =      -0.05743754 Ry
     correction to one-el term =    -117.71634834 Ry

     iteration # 22     ecut=    80.00 Ry     beta= 0.20
     Davidson diagonalization with overlap

---- Real-time Memory Report at c_bands before calling an iterative solver
           540 MiB given to the printing process from OS
             0 MiB allocation reported by mallinfo(arena+hblkhd)
        217731 MiB available memory on the node where the printing process lives
------------------
     ethr =  7.66E-10,  avg # of iterations = 16.4

     negative rho (up, down):  3.906E-04 0.000E+00

     add environment contribution to local potential

     total cpu time spent up to now is     1082.5 secs

     total energy              =    -662.17579477 Ry
     estimated scf accuracy    <       0.00000060 Ry

     total charge of GC-SCF    =       4.16872903 e
     the Fermi energy          =      -5.40575972 eV
                        (error :       0.00175972 eV)
     electrostatic embedding   =      -2.36455943 Ry
     cavitation energy         =       0.02702467 Ry
     electrolyte free energy   =      -0.05765645 Ry
     correction to one-el term =    -117.92990796 Ry

     iteration # 23     ecut=    80.00 Ry     beta= 0.20
     Davidson diagonalization with overlap

---- Real-time Memory Report at c_bands before calling an iterative solver
           540 MiB given to the printing process from OS
             0 MiB allocation reported by mallinfo(arena+hblkhd)
        217726 MiB available memory on the node where the printing process lives
------------------
     ethr =  4.69E-10,  avg # of iterations = 11.6

     negative rho (up, down):  3.986E-04 0.000E+00

     add environment contribution to local potential

     total cpu time spent up to now is     1117.0 secs

     total energy              =    -662.17582753 Ry
     estimated scf accuracy    <       0.00000040 Ry

     total charge of GC-SCF    =       4.16878411 e
     the Fermi energy          =      -5.40408457 eV
                        (error :       0.00008457 eV)
     electrostatic embedding   =      -2.36221517 Ry
     cavitation energy         =       0.02702467 Ry
     electrolyte free energy   =      -0.05760126 Ry
     correction to one-el term =    -117.86943138 Ry

     iteration # 24     ecut=    80.00 Ry     beta= 0.20
     Davidson diagonalization with overlap

---- Real-time Memory Report at c_bands before calling an iterative solver
           540 MiB given to the printing process from OS
             0 MiB allocation reported by mallinfo(arena+hblkhd)
        217695 MiB available memory on the node where the printing process lives
------------------
     ethr =  3.10E-10,  avg # of iterations = 12.7

     negative rho (up, down):  6.355E-04 0.000E+00

     add environment contribution to local potential

     total cpu time spent up to now is     1152.8 secs

     total energy              =    -662.17583199 Ry
     estimated scf accuracy    <       0.00000028 Ry

     total charge of GC-SCF    =       4.17216543 e
     the Fermi energy          =      -5.40358980 eV
                        (error :       0.00041020 eV)
     electrostatic embedding   =      -2.36221735 Ry
     cavitation energy         =       0.02702467 Ry
     electrolyte free energy   =      -0.05760252 Ry
     correction to one-el term =    -117.86973805 Ry

     iteration # 25     ecut=    80.00 Ry     beta= 0.20
     Davidson diagonalization with overlap

---- Real-time Memory Report at c_bands before calling an iterative solver
           540 MiB given to the printing process from OS
             0 MiB allocation reported by mallinfo(arena+hblkhd)
        217693 MiB available memory on the node where the printing process lives
------------------
     ethr =  2.18E-10,  avg # of iterations = 15.4

     negative rho (up, down):  7.026E-04 0.000E+00

     add environment contribution to local potential

     total cpu time spent up to now is     1194.5 secs

     total energy              =    -662.17579029 Ry
     estimated scf accuracy    <       0.00000014 Ry

     total charge of GC-SCF    =       4.17165860 e
     the Fermi energy          =      -5.40595277 eV
                        (error :       0.00195277 eV)
     electrostatic embedding   =      -2.36556052 Ry
     cavitation energy         =       0.02702467 Ry
     electrolyte free energy   =      -0.05770011 Ry
     correction to one-el term =    -117.94499206 Ry

     iteration # 26     ecut=    80.00 Ry     beta= 0.20
     Davidson diagonalization with overlap

---- Real-time Memory Report at c_bands before calling an iterative solver
           540 MiB given to the printing process from OS
             0 MiB allocation reported by mallinfo(arena+hblkhd)
        217668 MiB available memory on the node where the printing process lives
------------------
     ethr =  1.09E-10,  avg # of iterations =  8.0

     negative rho (up, down):  5.597E-04 0.000E+00

     add environment contribution to local potential

     total cpu time spent up to now is     1222.4 secs

     total energy              =    -662.17580296 Ry
     estimated scf accuracy    <       0.00000011 Ry

     total charge of GC-SCF    =       4.17141158 e
     the Fermi energy          =      -5.40528504 eV
                        (error :       0.00128504 eV)
     electrostatic embedding   =      -2.36479767 Ry
     cavitation energy         =       0.02702467 Ry
     electrolyte free energy   =      -0.05768448 Ry
     correction to one-el term =    -117.92352014 Ry

     iteration # 27     ecut=    80.00 Ry     beta= 0.20
     Davidson diagonalization with overlap

---- Real-time Memory Report at c_bands before calling an iterative solver
           540 MiB given to the printing process from OS
             0 MiB allocation reported by mallinfo(arena+hblkhd)
        217684 MiB available memory on the node where the printing process lives
------------------
     ethr =  8.39E-11,  avg # of iterations = 15.2

     negative rho (up, down):  5.085E-04 0.000E+00

     add environment contribution to local potential

     total cpu time spent up to now is     1262.4 secs

     total energy              =    -662.17582142 Ry
     estimated scf accuracy    <       0.00000006 Ry

     total charge of GC-SCF    =       4.17178169 e
     the Fermi energy          =      -5.40406860 eV
                        (error :       0.00006860 eV)
     electrostatic embedding   =      -2.36457007 Ry
     cavitation energy         =       0.02702467 Ry
     electrolyte free energy   =      -0.05767714 Ry
     correction to one-el term =    -117.91304087 Ry

     iteration # 28     ecut=    80.00 Ry     beta= 0.20
     Davidson diagonalization with overlap

---- Real-time Memory Report at c_bands before calling an iterative solver
           540 MiB given to the printing process from OS
             0 MiB allocation reported by mallinfo(arena+hblkhd)
        217689 MiB available memory on the node where the printing process lives
------------------
     ethr =  4.46E-11,  avg # of iterations = 11.7

     negative rho (up, down):  4.947E-04 0.000E+00

     add environment contribution to local potential

     total cpu time spent up to now is     1295.4 secs

     total energy              =    -662.17581423 Ry
     estimated scf accuracy    <       0.00000005 Ry

     total charge of GC-SCF    =       4.17231023 e
     the Fermi energy          =      -5.40452509 eV
                        (error :       0.00052509 eV)
     electrostatic embedding   =      -2.36510726 Ry
     cavitation energy         =       0.02702467 Ry
     electrolyte free energy   =      -0.05768848 Ry
     correction to one-el term =    -117.92739678 Ry

     iteration # 29     ecut=    80.00 Ry     beta= 0.20
     Davidson diagonalization with overlap

---- Real-time Memory Report at c_bands before calling an iterative solver
           540 MiB given to the printing process from OS
             0 MiB allocation reported by mallinfo(arena+hblkhd)
        217697 MiB available memory on the node where the printing process lives
------------------
     ethr =  3.53E-11,  avg # of iterations = 14.4

     negative rho (up, down):  5.034E-04 0.000E+00

     add environment contribution to local potential

     total cpu time spent up to now is     1337.2 secs

     total energy              =    -662.17579749 Ry
     estimated scf accuracy    <       0.00000002 Ry

     total charge of GC-SCF    =       4.17178489 e
     the Fermi energy          =      -5.40553535 eV
                        (error :       0.00153535 eV)
     electrostatic embedding   =      -2.36583753 Ry
     cavitation energy         =       0.02702467 Ry
     electrolyte free energy   =      -0.05770457 Ry
     correction to one-el term =    -117.94954209 Ry

     iteration # 30     ecut=    80.00 Ry     beta= 0.20
     Davidson diagonalization with overlap

---- Real-time Memory Report at c_bands before calling an iterative solver
           540 MiB given to the printing process from OS
             0 MiB allocation reported by mallinfo(arena+hblkhd)
        217687 MiB available memory on the node where the printing process lives
------------------
     ethr =  1.61E-11,  avg # of iterations = 12.6

     negative rho (up, down):  4.965E-04 0.000E+00

     add environment contribution to local potential

     total cpu time spent up to now is     1373.7 secs

     total energy              =    -662.17580544 Ry
     estimated scf accuracy    <       0.00000001 Ry

     total charge of GC-SCF    =       4.17140819 e
     the Fermi energy          =      -5.40504385 eV
                        (error :       0.00104385 eV)
     electrostatic embedding   =      -2.36519426 Ry
     cavitation energy         =       0.02702467 Ry
     electrolyte free energy   =      -0.05768892 Ry
     correction to one-el term =    -117.93385818 Ry

     iteration # 31     ecut=    80.00 Ry     beta= 0.20
     Davidson diagonalization with overlap

---- Real-time Memory Report at c_bands before calling an iterative solver
           540 MiB given to the printing process from OS
             0 MiB allocation reported by mallinfo(arena+hblkhd)
        217687 MiB available memory on the node where the printing process lives
------------------
     ethr =  1.02E-11,  avg # of iterations = 11.2

     negative rho (up, down):  4.930E-04 0.000E+00

     add environment contribution to local potential

     total cpu time spent up to now is     1409.0 secs

     total energy              =    -662.17581071 Ry
     estimated scf accuracy    <          5.2E-09 Ry

     total charge of GC-SCF    =       4.17128794 e
     the Fermi energy          =      -5.40476192 eV
                        (error :       0.00076192 eV)
     electrostatic embedding   =      -2.36474953 Ry
     cavitation energy         =       0.02702467 Ry
     electrolyte free energy   =      -0.05767782 Ry
     correction to one-el term =    -117.92292608 Ry

     iteration # 32     ecut=    80.00 Ry     beta= 0.20
     Davidson diagonalization with overlap

---- Real-time Memory Report at c_bands before calling an iterative solver
           540 MiB given to the printing process from OS
             0 MiB allocation reported by mallinfo(arena+hblkhd)
        217606 MiB available memory on the node where the printing process lives
------------------
     ethr =  4.04E-12,  avg # of iterations = 14.2

     negative rho (up, down):  4.750E-04 0.000E+00

     add environment contribution to local potential

     total cpu time spent up to now is     1445.2 secs

     total energy              =    -662.17581224 Ry
     estimated scf accuracy    <          4.6E-09 Ry

     total charge of GC-SCF    =       4.17070272 e
     the Fermi energy          =      -5.40466984 eV
                        (error :       0.00066984 eV)
     electrostatic embedding   =      -2.36461152 Ry
     cavitation energy         =       0.02702467 Ry
     electrolyte free energy   =      -0.05767428 Ry
     correction to one-el term =    -117.91964806 Ry

     iteration # 33     ecut=    80.00 Ry     beta= 0.20
     Davidson diagonalization with overlap

---- Real-time Memory Report at c_bands before calling an iterative solver
           540 MiB given to the printing process from OS
             0 MiB allocation reported by mallinfo(arena+hblkhd)
        217598 MiB available memory on the node where the printing process lives
------------------
     ethr =  3.57E-12,  avg # of iterations = 18.9

     negative rho (up, down):  4.635E-04 0.000E+00

     add environment contribution to local potential

     total cpu time spent up to now is     1489.4 secs

     total energy              =    -662.17581920 Ry
     estimated scf accuracy    <          2.7E-09 Ry

     total charge of GC-SCF    =       4.17040243 e
     the Fermi energy          =      -5.40422192 eV
                        (error :       0.00022192 eV)
     electrostatic embedding   =      -2.36397302 Ry
     cavitation energy         =       0.02702467 Ry
     electrolyte free energy   =      -0.05765715 Ry
     correction to one-el term =    -117.90524863 Ry

     iteration # 34     ecut=    80.00 Ry     beta= 0.20
     Davidson diagonalization with overlap

---- Real-time Memory Report at c_bands before calling an iterative solver
           540 MiB given to the printing process from OS
             0 MiB allocation reported by mallinfo(arena+hblkhd)
        217598 MiB available memory on the node where the printing process lives
------------------
     ethr =  2.13E-12,  avg # of iterations = 15.7

     negative rho (up, down):  4.607E-04 0.000E+00

     add environment contribution to local potential

     total cpu time spent up to now is     1532.0 secs

     total energy              =    -662.17582189 Ry
     estimated scf accuracy    <          1.9E-09 Ry

     total charge of GC-SCF    =       4.17030166 e
     the Fermi energy          =      -5.40404516 eV
                        (error :       0.00004516 eV)
     electrostatic embedding   =      -2.36365470 Ry
     cavitation energy         =       0.02702467 Ry
     electrolyte free energy   =      -0.05764841 Ry
     correction to one-el term =    -117.89848570 Ry

     iteration # 35     ecut=    80.00 Ry     beta= 0.20
     Davidson diagonalization with overlap

---- Real-time Memory Report at c_bands before calling an iterative solver
           540 MiB given to the printing process from OS
             0 MiB allocation reported by mallinfo(arena+hblkhd)
        217604 MiB available memory on the node where the printing process lives
------------------
     c_bands:  1 eigenvalues not converged
     ethr =  1.48E-12,  avg # of iterations = 15.0

     negative rho (up, down):  4.706E-04 0.000E+00

     add environment contribution to local potential

     total cpu time spent up to now is     1572.9 secs

     total energy              =    -662.17582272 Ry
     estimated scf accuracy    <          1.2E-09 Ry

     total charge of GC-SCF    =       4.17033949 e
     the Fermi energy          =      -5.40400604 eV
                        (error :       0.00000604 eV)
     electrostatic embedding   =      -2.36353381 Ry
     cavitation energy         =       0.02702467 Ry
     electrolyte free energy   =      -0.05764543 Ry
     correction to one-el term =    -117.89576005 Ry

     iteration # 36     ecut=    80.00 Ry     beta= 0.20
     Davidson diagonalization with overlap

---- Real-time Memory Report at c_bands before calling an iterative solver
           540 MiB given to the printing process from OS
             0 MiB allocation reported by mallinfo(arena+hblkhd)
        217601 MiB available memory on the node where the printing process lives
------------------
     c_bands:  1 eigenvalues not converged
     ethr =  9.60E-13,  avg # of iterations = 19.8

     negative rho (up, down):  4.741E-04 0.000E+00

     add environment contribution to local potential

     total cpu time spent up to now is     1621.9 secs

     total energy              =    -662.17582309 Ry
     estimated scf accuracy    <          6.4E-10 Ry

     total charge of GC-SCF    =       4.17037984 e
     the Fermi energy          =      -5.40400795 eV
                        (error :       0.00000795 eV)
     electrostatic embedding   =      -2.36353752 Ry
     cavitation energy         =       0.02702467 Ry
     electrolyte free energy   =      -0.05764640 Ry
     correction to one-el term =    -117.89521458 Ry

     iteration # 37     ecut=    80.00 Ry     beta= 0.20
     Davidson diagonalization with overlap

---- Real-time Memory Report at c_bands before calling an iterative solver
           540 MiB given to the printing process from OS
             0 MiB allocation reported by mallinfo(arena+hblkhd)
        217572 MiB available memory on the node where the printing process lives
------------------
     c_bands:  1 eigenvalues not converged
     ethr =  4.99E-13,  avg # of iterations = 17.7

     negative rho (up, down):  4.729E-04 0.000E+00

     add environment contribution to local potential

     total cpu time spent up to now is     1665.9 secs

     total energy              =    -662.17582278 Ry
     estimated scf accuracy    <          4.6E-10 Ry

     total charge of GC-SCF    =       4.17035043 e
     the Fermi energy          =      -5.40403362 eV
                        (error :       0.00003362 eV)
     electrostatic embedding   =      -2.36357137 Ry
     cavitation energy         =       0.02702467 Ry
     electrolyte free energy   =      -0.05764755 Ry
     correction to one-el term =    -117.89583032 Ry

     iteration # 38     ecut=    80.00 Ry     beta= 0.20
     Davidson diagonalization with overlap

---- Real-time Memory Report at c_bands before calling an iterative solver
           540 MiB given to the printing process from OS
             0 MiB allocation reported by mallinfo(arena+hblkhd)
        217557 MiB available memory on the node where the printing process lives
------------------
     c_bands:  1 eigenvalues not converged
     ethr =  3.60E-13,  avg # of iterations = 18.4

     negative rho (up, down):  4.637E-04 0.000E+00

     add environment contribution to local potential

     total cpu time spent up to now is     1709.3 secs

     total energy              =    -662.17582293 Ry
     estimated scf accuracy    <          3.3E-10 Ry

     total charge of GC-SCF    =       4.17036661 e
     the Fermi energy          =      -5.40402484 eV
                        (error :       0.00002484 eV)
     electrostatic embedding   =      -2.36354180 Ry
     cavitation energy         =       0.02702467 Ry
     electrolyte free energy   =      -0.05764669 Ry
     correction to one-el term =    -117.89525677 Ry

     iteration # 39     ecut=    80.00 Ry     beta= 0.20
     Davidson diagonalization with overlap

---- Real-time Memory Report at c_bands before calling an iterative solver
           540 MiB given to the printing process from OS
             0 MiB allocation reported by mallinfo(arena+hblkhd)
        217528 MiB available memory on the node where the printing process lives
------------------
     ethr =  2.59E-13,  avg # of iterations = 14.1

     negative rho (up, down):  4.617E-04 0.000E+00

     add environment contribution to local potential

     total cpu time spent up to now is     1751.6 secs

     total energy              =    -662.17582220 Ry
     estimated scf accuracy    <          2.0E-10 Ry

     total charge of GC-SCF    =       4.17039333 e
     the Fermi energy          =      -5.40407717 eV
                        (error :       0.00007717 eV)
     electrostatic embedding   =      -2.36358526 Ry
     cavitation energy         =       0.02702467 Ry
     electrolyte free energy   =      -0.05764727 Ry
     correction to one-el term =    -117.89653161 Ry

     iteration # 40     ecut=    80.00 Ry     beta= 0.20
     Davidson diagonalization with overlap

---- Real-time Memory Report at c_bands before calling an iterative solver
           540 MiB given to the printing process from OS
             0 MiB allocation reported by mallinfo(arena+hblkhd)
        217533 MiB available memory on the node where the printing process lives
------------------
     c_bands:  1 eigenvalues not converged
     ethr =  1.59E-13,  avg # of iterations = 19.0

     negative rho (up, down):  4.624E-04 0.000E+00

     add environment contribution to local potential

     total cpu time spent up to now is     1798.2 secs

     total energy              =    -662.17582190 Ry
     estimated scf accuracy    <          1.5E-10 Ry

     total charge of GC-SCF    =       4.17035164 e
     the Fermi energy          =      -5.40409826 eV
                        (error :       0.00009826 eV)
     electrostatic embedding   =      -2.36362099 Ry
     cavitation energy         =       0.02702467 Ry
     electrolyte free energy   =      -0.05764808 Ry
     correction to one-el term =    -117.89734287 Ry

     iteration # 41     ecut=    80.00 Ry     beta= 0.20
     Davidson diagonalization with overlap

---- Real-time Memory Report at c_bands before calling an iterative solver
           540 MiB given to the printing process from OS
             0 MiB allocation reported by mallinfo(arena+hblkhd)
        217507 MiB available memory on the node where the printing process lives
------------------
     c_bands:  1 eigenvalues not converged
     ethr =  1.18E-13,  avg # of iterations = 16.0

     negative rho (up, down):  4.640E-04 0.000E+00

     add environment contribution to local potential

     total cpu time spent up to now is     1842.5 secs

     total energy              =    -662.17582270 Ry
     estimated scf accuracy    <          6.5E-11 Ry

     total charge of GC-SCF    =       4.17033700 e
     the Fermi energy          =      -5.40405175 eV
                        (error :       0.00005175 eV)
     electrostatic embedding   =      -2.36356790 Ry
     cavitation energy         =       0.02702467 Ry
     electrolyte free energy   =      -0.05764683 Ry
     correction to one-el term =    -117.89592525 Ry

     iteration # 42     ecut=    80.00 Ry     beta= 0.20
     Davidson diagonalization with overlap

---- Real-time Memory Report at c_bands before calling an iterative solver
           540 MiB given to the printing process from OS
             0 MiB allocation reported by mallinfo(arena+hblkhd)
        217492 MiB available memory on the node where the printing process lives
------------------
     c_bands:  1 eigenvalues not converged
     ethr =  1.00E-13,  avg # of iterations = 15.9

     negative rho (up, down):  4.655E-04 0.000E+00

     add environment contribution to local potential

     total cpu time spent up to now is     1884.1 secs

     total energy              =    -662.17582301 Ry
     estimated scf accuracy    <          4.6E-11 Ry

     total charge of GC-SCF    =       4.17029588 e
     the Fermi energy          =      -5.40403523 eV
                        (error :       0.00003523 eV)
     electrostatic embedding   =      -2.36354482 Ry
     cavitation energy         =       0.02702467 Ry
     electrolyte free energy   =      -0.05764638 Ry
     correction to one-el term =    -117.89528767 Ry

     iteration # 43     ecut=    80.00 Ry     beta= 0.20
     Davidson diagonalization with overlap

---- Real-time Memory Report at c_bands before calling an iterative solver
           540 MiB given to the printing process from OS
             0 MiB allocation reported by mallinfo(arena+hblkhd)
        217503 MiB available memory on the node where the printing process lives
------------------
     c_bands:  1 eigenvalues not converged
     ethr =  1.00E-13,  avg # of iterations = 18.2

     negative rho (up, down):  4.660E-04 0.000E+00

     add environment contribution to local potential

     total cpu time spent up to now is     1930.6 secs

     total energy              =    -662.17582355 Ry
     estimated scf accuracy    <          1.9E-11 Ry

     total charge of GC-SCF    =       4.17029097 e
     the Fermi energy          =      -5.40400522 eV
                        (error :       0.00000522 eV)
     electrostatic embedding   =      -2.36349129 Ry
     cavitation energy         =       0.02702467 Ry
     electrolyte free energy   =      -0.05764515 Ry
     correction to one-el term =    -117.89397370 Ry

     iteration # 44     ecut=    80.00 Ry     beta= 0.20
     Davidson diagonalization with overlap

---- Real-time Memory Report at c_bands before calling an iterative solver
           540 MiB given to the printing process from OS
             0 MiB allocation reported by mallinfo(arena+hblkhd)
        217508 MiB available memory on the node where the printing process lives
------------------
     ethr =  1.00E-13,  avg # of iterations =  8.8

     negative rho (up, down):  4.659E-04 0.000E+00

     add environment contribution to local potential

     total cpu time spent up to now is     1959.4 secs

     total energy              =    -662.17582366 Ry
     estimated scf accuracy    <          1.6E-11 Ry

     total charge of GC-SCF    =       4.17028810 e
     the Fermi energy          =      -5.40399811 eV
                        (error :       0.00000189 eV)
     electrostatic embedding   =      -2.36348351 Ry
     cavitation energy         =       0.02702467 Ry
     electrolyte free energy   =      -0.05764499 Ry
     correction to one-el term =    -117.89376586 Ry

     iteration # 45     ecut=    80.00 Ry     beta= 0.20
     Davidson diagonalization with overlap

---- Real-time Memory Report at c_bands before calling an iterative solver
           540 MiB given to the printing process from OS
             0 MiB allocation reported by mallinfo(arena+hblkhd)
        217508 MiB available memory on the node where the printing process lives
------------------
     ethr =  1.00E-13,  avg # of iterations = 13.7

     negative rho (up, down):  4.658E-04 0.000E+00

     add environment contribution to local potential

     total cpu time spent up to now is     1994.0 secs

     total energy              =    -662.17582378 Ry
     estimated scf accuracy    <          1.0E-11 Ry

     total charge of GC-SCF    =       4.17029336 e
     the Fermi energy          =      -5.40399061 eV
                        (error :       0.00000939 eV)
     electrostatic embedding   =      -2.36347869 Ry
     cavitation energy         =       0.02702467 Ry
     electrolyte free energy   =      -0.05764490 Ry
     correction to one-el term =    -117.89361502 Ry

     iteration # 46     ecut=    80.00 Ry     beta= 0.20
     Davidson diagonalization with overlap

---- Real-time Memory Report at c_bands before calling an iterative solver
           540 MiB given to the printing process from OS
             0 MiB allocation reported by mallinfo(arena+hblkhd)
        217438 MiB available memory on the node where the printing process lives
------------------
     c_bands:  1 eigenvalues not converged
     ethr =  1.00E-13,  avg # of iterations = 15.5

     negative rho (up, down):  4.655E-04 0.000E+00

     add environment contribution to local potential

     total cpu time spent up to now is     2031.7 secs

     total energy              =    -662.17582376 Ry
     estimated scf accuracy    <          7.0E-12 Ry

     total charge of GC-SCF    =       4.17029179 e
     the Fermi energy          =      -5.40399186 eV
                        (error :       0.00000814 eV)
     electrostatic embedding   =      -2.36348495 Ry
     cavitation energy         =       0.02702467 Ry
     electrolyte free energy   =      -0.05764506 Ry
     correction to one-el term =    -117.89374850 Ry

     iteration # 47     ecut=    80.00 Ry     beta= 0.20
     Davidson diagonalization with overlap

---- Real-time Memory Report at c_bands before calling an iterative solver
           540 MiB given to the printing process from OS
             0 MiB allocation reported by mallinfo(arena+hblkhd)
        217468 MiB available memory on the node where the printing process lives
------------------
     c_bands:  1 eigenvalues not converged
     ethr =  1.00E-13,  avg # of iterations = 12.1

     negative rho (up, down):  4.653E-04 0.000E+00

     add environment contribution to local potential

     total cpu time spent up to now is     2065.8 secs

     total energy              =    -662.17582379 Ry
     estimated scf accuracy    <          5.0E-12 Ry

     total charge of GC-SCF    =       4.17029213 e
     the Fermi energy          =      -5.40398917 eV
                        (error :       0.00001083 eV)
     electrostatic embedding   =      -2.36348358 Ry
     cavitation energy         =       0.02702467 Ry
     electrolyte free energy   =      -0.05764501 Ry
     correction to one-el term =    -117.89371413 Ry

     iteration # 48     ecut=    80.00 Ry     beta= 0.20
     Davidson diagonalization with overlap

---- Real-time Memory Report at c_bands before calling an iterative solver
           540 MiB given to the printing process from OS
             0 MiB allocation reported by mallinfo(arena+hblkhd)
        217488 MiB available memory on the node where the printing process lives
------------------
     c_bands:  1 eigenvalues not converged
     ethr =  1.00E-13,  avg # of iterations = 11.8

     negative rho (up, down):  4.649E-04 0.000E+00

     add environment contribution to local potential

     total cpu time spent up to now is     2099.4 secs

     total energy              =    -662.17582377 Ry
     estimated scf accuracy    <          3.7E-12 Ry

     total charge of GC-SCF    =       4.17029847 e
     the Fermi energy          =      -5.40398890 eV
                        (error :       0.00001110 eV)
     electrostatic embedding   =      -2.36348511 Ry
     cavitation energy         =       0.02702467 Ry
     electrolyte free energy   =      -0.05764503 Ry
     correction to one-el term =    -117.89376825 Ry

     iteration # 49     ecut=    80.00 Ry     beta= 0.20
     Davidson diagonalization with overlap

---- Real-time Memory Report at c_bands before calling an iterative solver
           540 MiB given to the printing process from OS
             0 MiB allocation reported by mallinfo(arena+hblkhd)
        217485 MiB available memory on the node where the printing process lives
------------------
     c_bands:  1 eigenvalues not converged
     ethr =  1.00E-13,  avg # of iterations = 12.9

     negative rho (up, down):  4.651E-04 0.000E+00

     add environment contribution to local potential

     total cpu time spent up to now is     2134.2 secs

     total energy              =    -662.17582367 Ry
     estimated scf accuracy    <          2.4E-12 Ry

     total charge of GC-SCF    =       4.17030477 e
     the Fermi energy          =      -5.40399451 eV
                        (error :       0.00000549 eV)
     electrostatic embedding   =      -2.36349435 Ry
     cavitation energy         =       0.02702467 Ry
     electrolyte free energy   =      -0.05764522 Ry
     correction to one-el term =    -117.89400950 Ry

     iteration # 50     ecut=    80.00 Ry     beta= 0.20
     Davidson diagonalization with overlap

---- Real-time Memory Report at c_bands before calling an iterative solver
           540 MiB given to the printing process from OS
             0 MiB allocation reported by mallinfo(arena+hblkhd)
        217487 MiB available memory on the node where the printing process lives
------------------
     c_bands:  1 eigenvalues not converged
     ethr =  1.00E-13,  avg # of iterations = 11.3

     negative rho (up, down):  4.652E-04 0.000E+00

     add environment contribution to local potential

     total cpu time spent up to now is     2167.2 secs

     total energy              =    -662.17582359 Ry
     estimated scf accuracy    <          1.5E-12 Ry

     total charge of GC-SCF    =       4.17030627 e
     the Fermi energy          =      -5.40399950 eV
                        (error :       0.00000050 eV)
     electrostatic embedding   =      -2.36350134 Ry
     cavitation energy         =       0.02702467 Ry
     electrolyte free energy   =      -0.05764540 Ry
     correction to one-el term =    -117.89417124 Ry

     iteration # 51     ecut=    80.00 Ry     beta= 0.20
     Davidson diagonalization with overlap

---- Real-time Memory Report at c_bands before calling an iterative solver
           540 MiB given to the printing process from OS
             0 MiB allocation reported by mallinfo(arena+hblkhd)
        217444 MiB available memory on the node where the printing process lives
------------------
     c_bands:  1 eigenvalues not converged
     ethr =  1.00E-13,  avg # of iterations =  9.0

     negative rho (up, down):  4.653E-04 0.000E+00

     add environment contribution to local potential

     total cpu time spent up to now is     2198.1 secs

     total energy              =    -662.17582355 Ry
     estimated scf accuracy    <          6.6E-13 Ry

     total charge of GC-SCF    =       4.17030508 e
     the Fermi energy          =      -5.40400134 eV
                        (error :       0.00000134 eV)
     electrostatic embedding   =      -2.36350299 Ry
     cavitation energy         =       0.02702467 Ry
     electrolyte free energy   =      -0.05764545 Ry
     correction to one-el term =    -117.89422166 Ry

     iteration # 52     ecut=    80.00 Ry     beta= 0.20
     Davidson diagonalization with overlap

---- Real-time Memory Report at c_bands before calling an iterative solver
           540 MiB given to the printing process from OS
             0 MiB allocation reported by mallinfo(arena+hblkhd)
        217444 MiB available memory on the node where the printing process lives
------------------
     c_bands:  1 eigenvalues not converged
     ethr =  1.00E-13,  avg # of iterations =  9.9

     negative rho (up, down):  4.651E-04 0.000E+00

     add environment contribution to local potential

     total cpu time spent up to now is     2229.7 secs

     total energy              =    -662.17582356 Ry
     estimated scf accuracy    <          3.3E-13 Ry

     total charge of GC-SCF    =       4.17030401 e
     the Fermi energy          =      -5.40400144 eV
                        (error :       0.00000144 eV)
     electrostatic embedding   =      -2.36350106 Ry
     cavitation energy         =       0.02702467 Ry
     electrolyte free energy   =      -0.05764541 Ry
     correction to one-el term =    -117.89417604 Ry

     iteration # 53     ecut=    80.00 Ry     beta= 0.20
     Davidson diagonalization with overlap

---- Real-time Memory Report at c_bands before calling an iterative solver
           540 MiB given to the printing process from OS
             0 MiB allocation reported by mallinfo(arena+hblkhd)
        217424 MiB available memory on the node where the printing process lives
------------------
     c_bands:  1 eigenvalues not converged
     ethr =  1.00E-13,  avg # of iterations = 10.1

     negative rho (up, down):  4.649E-04 0.000E+00

     add environment contribution to local potential

     total cpu time spent up to now is     2261.3 secs

     total energy              =    -662.17582355 Ry
     estimated scf accuracy    <          2.3E-13 Ry

     total charge of GC-SCF    =       4.17030161 e
     the Fermi energy          =      -5.40400149 eV
                        (error :       0.00000149 eV)
     electrostatic embedding   =      -2.36350036 Ry
     cavitation energy         =       0.02702467 Ry
[...]
     atom   10 type  1   force =    -0.00008031    0.03429468   -6.54663401
     atom   11 type  1   force =    -0.00000001   -0.03846684   -6.07191991
     atom   12 type  1   force =    -0.00000001    0.04371970   -2.45552100
     atom   13 type  1   force =    -0.00000001   -0.03573530    0.27235025
     atom   14 type  1   force =    -0.00000001    0.03945179    4.11906468
     atom   15 type  1   force =    -0.00021150    0.03846619    6.07244484
     atom   16 type  1   force =    -0.00039511   -0.06689408    9.09582299
     atom   17 type  1   force =    -0.00017033   -0.04373111    2.45566373
     atom   18 type  1   force =     0.00000000   -0.03433154    6.54789973
     atom   19 type  1   force =    -0.00000001    0.07069841   10.79456533
     atom   20 type  1   force =    -0.00000001   -0.06685414   12.66149244
     atom   21 type  1   force =    -0.00061010    0.05036217   12.55688377
     atom   22 type  1   force =    -0.00064902   -0.00797027   15.13063419
     atom   23 type  1   force =     0.00000002    0.00231351   15.80354023
     atom   24 type  1   force =     0.00008736   -0.00229359  -15.80364917
     atom   25 type  1   force =     0.00007202    0.06697052  -12.66362242
     atom   26 type  1   force =     0.00000001    0.00791044  -15.13058071
     atom   27 type  1   force =    -0.00000000   -0.05035517  -12.55713202
     atom   28 type  1   force =     0.00000002    0.06695186   -9.09601506
     atom   29 type  1   force =     0.00011109   -0.03946933   -4.11878871
     atom   30 type  1   force =     0.00015813    0.03574098   -0.27314945
     atom   31 type  1   force =     0.00008174   -0.07085743  -10.79419288
     atom   32 type  1   force =     0.00008031    0.03429466   -6.54663401
     atom   33 type  1   force =    -0.00000000   -0.03846124   -6.07276253
     atom   34 type  1   force =     0.00000003    0.04369188   -2.45587505
     atom   35 type  1   force =     0.00000003   -0.03570748    0.27387362
     atom   36 type  1   force =     0.00000003    0.03947547    4.11850872
     atom   37 type  1   force =     0.00021149    0.03846617    6.07244484
     atom   38 type  1   force =     0.00039510   -0.06689407    9.09582298
     atom   39 type  1   force =     0.00017031   -0.04373110    2.45566374
     atom   40 type  1   force =    -0.00000001   -0.03425916    6.54519696
     atom   41 type  1   force =     0.00000004    0.07078085   10.79371347
     atom   42 type  1   force =     0.00000003   -0.06692838   12.66588011
     atom   43 type  1   force =     0.00061008    0.05036216   12.55688376
     atom   44 type  1   force =     0.00064901   -0.00797027   15.13063420
     The local contribution  to forces
     atom    1 type  1   force =     0.00000136   -0.00166992  -15.81672283
     atom    2 type  1   force =     0.00009879    0.00152686   15.81622156
     atom    3 type  1   force =     0.00007703   -0.09288590   12.84577101
     atom    4 type  1   force =     0.00000136   -0.00121193   15.32998675
     atom    5 type  1   force =     0.00000000    0.05682222   12.73326848
     atom    6 type  1   force =     0.00000136   -0.06752879    9.19847760
     atom    7 type  1   force =     0.00011852    0.04269195    4.17105769
     atom    8 type  1   force =     0.00016212   -0.03953700    0.27274030
     atom    9 type  1   force =     0.00008836    0.08072843   10.93152884
     atom   10 type  1   force =     0.00008324   -0.03636285    6.62721512
     atom   11 type  1   force =    -0.00000000    0.04180404    6.14533705
     atom   12 type  1   force =     0.00000136   -0.04491182    2.48560585
     atom   13 type  1   force =     0.00000136    0.03953019   -0.27178285
     atom   14 type  1   force =     0.00000136   -0.04267597   -4.17121033
     atom   15 type  1   force =     0.00021410   -0.04180383   -6.14573518
     atom   16 type  1   force =     0.00042952    0.06747109   -9.19832949
     atom   17 type  1   force =     0.00018052    0.04492526   -2.48561655
     atom   18 type  1   force =     0.00000000    0.03639818   -6.62835245
     atom   19 type  1   force =     0.00000136   -0.08055862  -10.93174891
     atom   20 type  1   force =     0.00000136    0.09274410  -12.84328095
     atom   21 type  1   force =     0.00066971   -0.05680395  -12.73328687
     atom   22 type  1   force =     0.00075380    0.00132128  -15.32992631
     atom   23 type  1   force =     0.00000274   -0.00152757  -15.81607909
     atom   24 type  1   force =    -0.00009606    0.00152686   15.81622156
     atom   25 type  1   force =    -0.00007431   -0.09288590   12.84577101
     atom   26 type  1   force =     0.00000273   -0.00125253   15.32995802
     atom   27 type  1   force =     0.00000136    0.05678929   12.73367234
     atom   28 type  1   force =     0.00000272   -0.06753137    9.19866949
     atom   29 type  1   force =    -0.00011581    0.04269195    4.17105769
     atom   30 type  1   force =    -0.00015941   -0.03953700    0.27274030
     atom   31 type  1   force =    -0.00008564    0.08072843   10.93152884
     atom   32 type  1   force =    -0.00008052   -0.03636285    6.62721512
     atom   33 type  1   force =     0.00000136    0.04180135    6.14619951
     atom   34 type  1   force =     0.00000272   -0.04488318    2.48598131
     atom   35 type  1   force =     0.00000272    0.03950185   -0.27334261
     atom   36 type  1   force =     0.00000272   -0.04269938   -4.17062505
     atom   37 type  1   force =    -0.00021138   -0.04180383   -6.14573518
     atom   38 type  1   force =    -0.00042681    0.06747109   -9.19832949
     atom   39 type  1   force =    -0.00017781    0.04492526   -2.48561655
     atom   40 type  1   force =     0.00000136    0.03632375   -6.62560529
     atom   41 type  1   force =     0.00000272   -0.08065417  -10.93091006
     atom   42 type  1   force =     0.00000272    0.09285993  -12.84809102
     atom   43 type  1   force =    -0.00066700   -0.05680395  -12.73328687
     atom   44 type  1   force =    -0.00075107    0.00132128  -15.32992631
     The core correction contribution to forces
     atom    1 type  1   force =     0.00000000    0.00000000    0.00000000
     atom    2 type  1   force =     0.00000000    0.00000000    0.00000000
     atom    3 type  1   force =     0.00000000    0.00000000    0.00000000
     atom    4 type  1   force =     0.00000000    0.00000000    0.00000000
     atom    5 type  1   force =     0.00000000    0.00000000    0.00000000
     atom    6 type  1   force =     0.00000000    0.00000000    0.00000000
     atom    7 type  1   force =     0.00000000    0.00000000    0.00000000
     atom    8 type  1   force =     0.00000000    0.00000000    0.00000000
     atom    9 type  1   force =     0.00000000    0.00000000    0.00000000
     atom   10 type  1   force =     0.00000000    0.00000000    0.00000000
     atom   11 type  1   force =     0.00000000    0.00000000    0.00000000
     atom   12 type  1   force =     0.00000000    0.00000000    0.00000000
     atom   13 type  1   force =     0.00000000    0.00000000    0.00000000
     atom   14 type  1   force =     0.00000000    0.00000000    0.00000000
     atom   15 type  1   force =     0.00000000    0.00000000    0.00000000
     atom   16 type  1   force =     0.00000000    0.00000000    0.00000000
     atom   17 type  1   force =     0.00000000    0.00000000    0.00000000
     atom   18 type  1   force =     0.00000000    0.00000000    0.00000000
     atom   19 type  1   force =     0.00000000    0.00000000    0.00000000
     atom   20 type  1   force =     0.00000000    0.00000000    0.00000000
     atom   21 type  1   force =     0.00000000    0.00000000    0.00000000
     atom   22 type  1   force =     0.00000000    0.00000000    0.00000000
     atom   23 type  1   force =     0.00000000    0.00000000    0.00000000
     atom   24 type  1   force =     0.00000000    0.00000000    0.00000000
     atom   25 type  1   force =     0.00000000    0.00000000    0.00000000
     atom   26 type  1   force =     0.00000000    0.00000000    0.00000000
     atom   27 type  1   force =     0.00000000    0.00000000    0.00000000
     atom   28 type  1   force =     0.00000000    0.00000000    0.00000000
     atom   29 type  1   force =     0.00000000    0.00000000    0.00000000
     atom   30 type  1   force =     0.00000000    0.00000000    0.00000000
     atom   31 type  1   force =     0.00000000    0.00000000    0.00000000
     atom   32 type  1   force =     0.00000000    0.00000000    0.00000000
     atom   33 type  1   force =     0.00000000    0.00000000    0.00000000
     atom   34 type  1   force =     0.00000000    0.00000000    0.00000000
     atom   35 type  1   force =     0.00000000    0.00000000    0.00000000
     atom   36 type  1   force =     0.00000000    0.00000000    0.00000000
     atom   37 type  1   force =     0.00000000    0.00000000    0.00000000
     atom   38 type  1   force =     0.00000000    0.00000000    0.00000000
     atom   39 type  1   force =     0.00000000    0.00000000    0.00000000
     atom   40 type  1   force =     0.00000000    0.00000000    0.00000000
     atom   41 type  1   force =     0.00000000    0.00000000    0.00000000
     atom   42 type  1   force =     0.00000000    0.00000000    0.00000000
     atom   43 type  1   force =     0.00000000    0.00000000    0.00000000
     atom   44 type  1   force =     0.00000000    0.00000000    0.00000000
     The Hubbard contrib.    to forces
     atom    1 type  1   force =     0.00000000    0.00000000    0.00000000
     atom    2 type  1   force =     0.00000000    0.00000000    0.00000000
     atom    3 type  1   force =     0.00000000    0.00000000    0.00000000
     atom    4 type  1   force =     0.00000000    0.00000000    0.00000000
     atom    5 type  1   force =     0.00000000    0.00000000    0.00000000
     atom    6 type  1   force =     0.00000000    0.00000000    0.00000000
     atom    7 type  1   force =     0.00000000    0.00000000    0.00000000
     atom    8 type  1   force =     0.00000000    0.00000000    0.00000000
     atom    9 type  1   force =     0.00000000    0.00000000    0.00000000
     atom   10 type  1   force =     0.00000000    0.00000000    0.00000000
     atom   11 type  1   force =     0.00000000    0.00000000    0.00000000
     atom   12 type  1   force =     0.00000000    0.00000000    0.00000000
     atom   13 type  1   force =     0.00000000    0.00000000    0.00000000
     atom   14 type  1   force =     0.00000000    0.00000000    0.00000000
     atom   15 type  1   force =     0.00000000    0.00000000    0.00000000
     atom   16 type  1   force =     0.00000000    0.00000000    0.00000000
     atom   17 type  1   force =     0.00000000    0.00000000    0.00000000
     atom   18 type  1   force =     0.00000000    0.00000000    0.00000000
     atom   19 type  1   force =     0.00000000    0.00000000    0.00000000
     atom   20 type  1   force =     0.00000000    0.00000000    0.00000000
     atom   21 type  1   force =     0.00000000    0.00000000    0.00000000
     atom   22 type  1   force =     0.00000000    0.00000000    0.00000000
     atom   23 type  1   force =     0.00000000    0.00000000    0.00000000
     atom   24 type  1   force =     0.00000000    0.00000000    0.00000000
     atom   25 type  1   force =     0.00000000    0.00000000    0.00000000
     atom   26 type  1   force =     0.00000000    0.00000000    0.00000000
     atom   27 type  1   force =     0.00000000    0.00000000    0.00000000
     atom   28 type  1   force =     0.00000000    0.00000000    0.00000000
     atom   29 type  1   force =     0.00000000    0.00000000    0.00000000
     atom   30 type  1   force =     0.00000000    0.00000000    0.00000000
     atom   31 type  1   force =     0.00000000    0.00000000    0.00000000
     atom   32 type  1   force =     0.00000000    0.00000000    0.00000000
     atom   33 type  1   force =     0.00000000    0.00000000    0.00000000
     atom   34 type  1   force =     0.00000000    0.00000000    0.00000000
     atom   35 type  1   force =     0.00000000    0.00000000    0.00000000
     atom   36 type  1   force =     0.00000000    0.00000000    0.00000000
     atom   37 type  1   force =     0.00000000    0.00000000    0.00000000
     atom   38 type  1   force =     0.00000000    0.00000000    0.00000000
     atom   39 type  1   force =     0.00000000    0.00000000    0.00000000
     atom   40 type  1   force =     0.00000000    0.00000000    0.00000000
     atom   41 type  1   force =     0.00000000    0.00000000    0.00000000
     atom   42 type  1   force =     0.00000000    0.00000000    0.00000000
     atom   43 type  1   force =     0.00000000    0.00000000    0.00000000
     atom   44 type  1   force =     0.00000000    0.00000000    0.00000000
     The SCF correction term to forces
     atom    1 type  1   force =    -0.00000000    0.00000000    0.00000000
     atom    2 type  1   force =    -0.00000000   -0.00000000   -0.00000000
     atom    3 type  1   force =     0.00000000   -0.00000000    0.00000000
     atom    4 type  1   force =     0.00000000    0.00000000    0.00000000
     atom    5 type  1   force =     0.00000000   -0.00000000    0.00000000
     atom    6 type  1   force =     0.00000000    0.00000000    0.00000000
     atom    7 type  1   force =    -0.00000000   -0.00000000    0.00000000
     atom    8 type  1   force =    -0.00000000    0.00000000    0.00000000
     atom    9 type  1   force =     0.00000000    0.00000000    0.00000000
     atom   10 type  1   force =    -0.00000000   -0.00000000    0.00000000
     atom   11 type  1   force =    -0.00000000   -0.00000000    0.00000000
     atom   12 type  1   force =    -0.00000000    0.00000000    0.00000000
     atom   13 type  1   force =     0.00000000   -0.00000000   -0.00000000
     atom   14 type  1   force =     0.00000000    0.00000000    0.00000000
     atom   15 type  1   force =    -0.00000000    0.00000000   -0.00000000
     atom   16 type  1   force =    -0.00000000   -0.00000000   -0.00000000
     atom   17 type  1   force =    -0.00000000   -0.00000000    0.00000000
     atom   18 type  1   force =    -0.00000000   -0.00000000   -0.00000000
     atom   19 type  1   force =    -0.00000000   -0.00000000   -0.00000000
     atom   20 type  1   force =     0.00000000    0.00000000   -0.00000000
     atom   21 type  1   force =    -0.00000000    0.00000000   -0.00000000
     atom   22 type  1   force =    -0.00000000   -0.00000000   -0.00000000
     atom   23 type  1   force =    -0.00000000    0.00000000   -0.00000000
     atom   24 type  1   force =     0.00000000   -0.00000000   -0.00000000
     atom   25 type  1   force =    -0.00000000   -0.00000000    0.00000000
     atom   26 type  1   force =    -0.00000000    0.00000000    0.00000000
     atom   27 type  1   force =     0.00000000   -0.00000000    0.00000000
     atom   28 type  1   force =     0.00000000    0.00000000    0.00000000
     atom   29 type  1   force =     0.00000000   -0.00000000    0.00000000
     atom   30 type  1   force =     0.00000000    0.00000000    0.00000000
     atom   31 type  1   force =    -0.00000000    0.00000000    0.00000000
     atom   32 type  1   force =     0.00000000   -0.00000000    0.00000000
     atom   33 type  1   force =    -0.00000000   -0.00000000    0.00000000
     atom   34 type  1   force =     0.00000000    0.00000000    0.00000000
     atom   35 type  1   force =    -0.00000000   -0.00000000    0.00000000
     atom   36 type  1   force =     0.00000000    0.00000000    0.00000000
     atom   37 type  1   force =     0.00000000    0.00000000   -0.00000000
     atom   38 type  1   force =     0.00000000   -0.00000000   -0.00000000
     atom   39 type  1   force =     0.00000000   -0.00000000    0.00000000
     atom   40 type  1   force =    -0.00000000   -0.00000000   -0.00000000
     atom   41 type  1   force =    -0.00000000   -0.00000000   -0.00000000
     atom   42 type  1   force =    -0.00000000    0.00000000   -0.00000000
     atom   43 type  1   force =     0.00000000    0.00000000   -0.00000000
     atom   44 type  1   force =     0.00000000   -0.00000000   -0.00000000

     Total force =     0.013231     Total SCF correction =     0.000000

     Writing all to output data dir ./Li/Lithium.save/ :
     XML data file
     init_run     :     17.81s CPU     27.49s WALL (       1 calls)
     electrons    :   2663.18s CPU   3326.63s WALL (       1 calls)
     forces       :     20.28s CPU     21.93s WALL (       1 calls)

     Called by init_run:
     wfcinit      :      2.81s CPU      3.87s WALL (       1 calls)
     wfcinit:wfcr :      2.58s CPU      3.64s WALL (      14 calls)
     potinit      :      0.95s CPU      1.00s WALL (       1 calls)
     hinit0       :      3.89s CPU      4.33s WALL (       1 calls)

     Called by electrons:
     c_bands      :   1879.74s CPU   2375.07s WALL (      92 calls)
     sum_band     :    118.14s CPU    165.97s WALL (      92 calls)
     v_of_rho     :      6.03s CPU      7.26s WALL (      93 calls)
     v_h          :      0.56s CPU      0.68s WALL (      93 calls)
     v_xc         :      5.46s CPU      6.58s WALL (      93 calls)
     newd         :      3.69s CPU      4.94s WALL (      93 calls)
     PAW_pot      :      0.78s CPU      1.03s WALL (      93 calls)
     mix_rho      :     17.89s CPU     22.60s WALL (      92 calls)

     Called by c_bands:
     init_us_2    :     24.02s CPU     24.37s WALL (    2604 calls)
     cegterg      :   1803.46s CPU   2208.61s WALL (    1835 calls)

     Called by sum_band:
     sum_band:wei :      0.15s CPU      0.18s WALL (      92 calls)
     sum_band:loo :    113.37s CPU    160.24s WALL (      92 calls)
     sum_band:buf :      2.04s CPU      2.21s WALL (    1288 calls)
     sum_band:ini :     11.90s CPU     11.97s WALL (    1288 calls)
     sum_band:cal :     20.43s CPU     22.78s WALL (    1288 calls)
     sum_band:bec :      0.26s CPU      0.29s WALL (    1288 calls)
     addusdens    :      3.28s CPU      3.40s WALL (      92 calls)
                                        0.00s GPU  (      92 calls)
     addusd:skk   :      0.87s CPU      0.87s WALL (      92 calls)
                                        0.00s GPU  (      92 calls)

     Called by *egterg:
     cdiaghg      :    603.15s CPU    628.30s WALL (   21558 calls)
     cegterg:over :    102.90s CPU    112.03s WALL (   19799 calls)
     cegterg:upda :     77.79s CPU     80.06s WALL (   19799 calls)
     cegterg:last :     25.37s CPU     25.62s WALL (    2101 calls)
     h_psi        :    857.06s CPU   1220.29s WALL (   21648 calls)
     s_psi        :     95.04s CPU     95.68s WALL (   21648 calls)
     g_psi        :      1.02s CPU      1.09s WALL (   19799 calls)

     Called by h_psi:
     h_psi:calbec :    122.66s CPU    140.57s WALL (   21648 calls)
     vloc_psi     :    627.88s CPU    970.61s WALL (   21648 calls)
                                        0.00s GPU  (   21648 calls)
     add_vuspsi   :    103.16s CPU    105.41s WALL (   21648 calls)

     General routines
     calbec       :    143.76s CPU    164.11s WALL (   22992 calls)
     fft          :      5.58s CPU      7.25s WALL (    1209 calls)
     ffts         :     12.84s CPU     16.16s WALL (   11378 calls)
     fftw         :    680.01s CPU   1054.46s WALL ( 1149104 calls)
     interpolate  :      1.35s CPU      1.49s WALL (      93 calls)

     Parallel routines

     PAW routines
     PAW_pot      :      0.78s CPU      1.03s WALL (      93 calls)
     PAW_symme    :      0.03s CPU      0.04s WALL (     185 calls)

     Environ routines

     PWSCF        :  45m 1.39s CPU  56m16.38s WALL


   This run was terminated on:  11:54:35  21Jan2025            

=------------------------------------------------------------------------------=
   JOB DONE.
=------------------------------------------------------------------------------=
