
     Program PWSCF v.7.4 starts on  4Jan2025 at 23:12:40 
        Git branch: develop
        Last git commit: e877ff360aceba4b8d76ffc2fb1c70545fc5dd57
        Last git commit date: Sat Jan 4 12:56:15 2025 +0000
        Last git commit subject: Merge branch 'orthoU' into 'develop'

     This program is part of the open-source Quantum ESPRESSO suite
     for quantum simulation of materials; please cite
         "P. Giannozzi et al., J. Phys.:Condens. Matter 21 395502 (2009);
         "P. Giannozzi et al., J. Phys.:Condens. Matter 29 465901 (2017);
         "P. Giannozzi et al., J. Chem. Phys. 152 154105 (2020);
          URL http://www.quantum-espresso.org", 
     in publications or presentations arising from this work. More details at
     http://www.quantum-espresso.org/quote

     Parallel version (MPI), running on   360 processors

     MPI processes distributed on     9 nodes
     177120 MiB available memory on the printing compute node when the environment starts
 
     Reading input from espresso.pwi
Warning: card &CELL ignored
Warning: card    PRESS_CONV_THR   = 0.1 ignored
Warning: card    CELL_DOFREE      = 'ALL' ignored
Warning: card / ignored
Warning: card &FCP ignored
Warning: card / ignored
Warning: card &RISM ignored
Warning: card / ignored

     Current dimensions of program PWSCF are:
     Max number of different atomic species (ntypx) = 10
     Max number of k-points (npk) =  40000
     Max angular momentum in pseudopotentials (lmaxx) =  4

     IMPORTANT: XC functional enforced from input :
     Exchange-correlation= PBE
                           (   1   4   3   4   0   0   0)
     Any further DFT definition will be discarded
     Please, verify this is what you really want

 
     Reading input from environ.in:
     * using ionic solvent mode
     * setting boundary derivatives method to SSCS default
     * setting electrolyte-boundary derivatives method to SSCS default

Environ Warning (1001): card EOF ignored

     
 
     K-points division:     npool     =       2
     R & G space division:  proc/nbgrp/npool/nimage =     180
     Subspace diagonalization in iterative solution of the eigenvalue problem:
     a serial algorithm will be used

 
     Parallelization info
     --------------------
     sticks:   dense  smooth     PW     G-vecs:    dense   smooth      PW
     Min          42      16      4                22522     5644     786
     Max          43      17      5                22559     5733     865
     Sum        7593    3025    841              4056641  1025567  148303
 
     Using Slab Decomposition
 


     bravais-lattice index     =           14
     lattice parameter (alat)  =      11.2436  a.u.
     unit-cell volume          =   10615.2838 (a.u.)^3
     number of atoms/cell      =           16
     number of atomic types    =            1
     number of electrons       =        48.00
     number of Kohn-Sham states=           36
     kinetic-energy cutoff     =      80.0000  Ry
     charge density cutoff     =     800.0000  Ry
     scf convergence threshold =      1.0E-06
     mixing beta               =       0.2000
     number of iterations used =            8  local-TF  mixing
     energy convergence thresh.=      1.0E-05
     force convergence thresh. =      3.9E-04
     Exchange-correlation= PBE
                           (   1   4   3   4   0   0   0)
     nstep                     =          999


     ================================================================================
 
                                  Environ Setup Summary

     ================================================================================
 
     Please cite

          O. Andreussi, I. Dabo and N. Marzari, J. Chem. Phys. 136, 064102 (2012)
          F. Nattino, M. Truscott, N. Marzari, and O. Andreussi, J. Chem. Phys. 150, 041722 (2019)

     in publications or presentations arising from this work.

     ================================================================================
 
     Parameters
     ==========

     compensation onset threshold      =               0.1000E+00
     static permittivity               =                    89.90
     surface tension in input (dyn/cm) =                    37.30
     surface tension in internal units =               0.4792E-04

     Solvent Boundary
     ================

     solvent mode                      =                    ionic
     derivatives method                =                   lowmem
     electrolyte derivatives method    =                   lowmem
     numerical core for derivatives    =                      fft
     switching function adopted        =                     SCCS
     density limit for vacuum region   =               0.5000E-02
     density limit for bulk solvent    =               0.1000E-03
     soft-sphere radius mode           =                    bondi
     soft-sphere softness              =                     0.50
     alpha                             =                     1.32

     Electrostatic Setup
     ===================

     electrostatic problem to solve    =                    modpb
     numerical solver adopted          =                   newton
     type of auxiliary density adopted =                     none
     numerical core for poisson        =                      fft
     adopting a nested solver scheme
     inner solver                      =                       cg
     inner core                        =                      fft
     type of pbc corrections           =                parabolic
     numerical core for corrections    =                      1da

     ================================================================================
 

     >>>>> Grand-Canonical SCF is activated <<<<<
     Initial Total Charge  =     0.000000 e
     Target Fermi Energy   =    -3.904000 eV
     Thr. of Fermi Energy  =     0.001000 eV
     Wave-shift of Kerker  =     0.400000 bohr^-1
     Wave-shift of Hartree =     1.500000 bohr^-1
     Mixing Rate of Fermi  =     0.050000

     celldm(1)=  11.243615  celldm(2)=   1.000000  celldm(3)=   7.921182
     celldm(4)=   0.000000  celldm(5)=   0.000000  celldm(6)=  -0.333333

     crystal axes: (cart. coord. in units of alat)
               a(1) = (   1.000000   0.000000   0.000000 )  
               a(2) = (  -0.333333   0.942809   0.000000 )  
               a(3) = (   0.000000   0.000000   7.921182 )  

     reciprocal axes: (cart. coord. in units 2 pi/alat)
               b(1) = (  1.000000  0.353553  0.000000 )  
               b(2) = (  0.000000  1.060660  0.000000 )  
               b(3) = (  0.000000  0.000000  0.126244 )  


     PseudoPot. # 1 for Li read from file:
     /home/mmm1182/Repos/Pseudopotentials/pslibrary/Li.pbe-sl-kjpaw_psl.1.0.0.UPF
     MD5 check sum: f40bb4162937df3f7c561f1969c76545
     Pseudo is Projector augmented-wave, Zval =  3.0
     Generated using 'atomic' code by A. Dal Corso  v.7.3.1
     Shape of augmentation charge: PSQ
     Using radial grid of 1017 points,  4 beta functions with: 
                l(1) =   0
                l(2) =   0
                l(3) =   1
                l(4) =   1
     Q(r) pseudized with 0 coefficients 


     atomic species   valence    mass     pseudopotential
     Li                3.00     6.94000     Li( 1.00)

      2 Sym. Ops. (no inversion) found


                                    s                        frac. trans.

      isym =  1     identity                                     

 cryst.   s( 1) = (     1          0          0      )
                  (     0          1          0      )
                  (     0          0          1      )

 cart.    s( 1) = (  1.0000000 -0.0000000  0.0000000 )
                  (  0.0000000  1.0000000  0.0000000 )
                  (  0.0000000  0.0000000  1.0000000 )


      isym =  2     180 deg rotation - cart. axis [0,0,1]        

 cryst.   s( 2) = (    -1          0          0      )
                  (     0         -1          0      )
                  (     0          0          1      )

 cart.    s( 2) = ( -1.0000000  0.0000000  0.0000000 )
                  (  0.0000000 -1.0000000  0.0000000 )
                  (  0.0000000  0.0000000  1.0000000 )


     point group C_2  (2)   
     there are  2 classes
     the character table:

       E     C2   
A      1.00  1.00
B      1.00 -1.00

     the symmetry operations in each class and the name of the first element:

     E        1
          identity                                               
     C2       2
          180 deg rotation - cart. axis [0,0,1]                  

   Cartesian axes

     site n.     atom                  positions (alat units)
         1        Li     tau(   1) = (   0.1666604   0.2357049   3.3648285  )
         2        Li     tau(   2) = (   0.3333333   0.4714046   3.7546210  )
         3        Li     tau(   3) = (   0.1666696   0.2356965   4.1665696  )
         4        Li     tau(   4) = (   0.3333333   0.4714046   4.5563165  )
         5        Li     tau(   5) = (   0.0000054   0.7071093   3.3648588  )
         6        Li     tau(   6) = (   0.1666667   0.9428090   3.7546314  )
         7        Li     tau(   7) = (  -0.0000046   0.7071021   4.1665811  )
         8        Li     tau(   8) = (   0.1666667   0.9428090   4.5563362  )
         9        Li     tau(   9) = (   0.6666613   0.2356998   3.3648588  )
        10        Li     tau(  10) = (   0.8333333   0.4714046   3.7546253  )
        11        Li     tau(  11) = (   0.6666713   0.2357070   4.1665811  )
        12        Li     tau(  12) = (   0.8333333   0.4714046   4.5563341  )
        13        Li     tau(  13) = (   0.5000063   0.7071042   3.3648285  )
        14        Li     tau(  14) = (   0.6666667   0.9428090   3.7546245  )
        15        Li     tau(  15) = (   0.4999970   0.7071125   4.1665696  )
        16        Li     tau(  16) = (   0.6666667   0.9428090   4.5563323  )

   Crystallographic axes

     site n.     atom                  positions (cryst. coord.)
         1        Li     tau(   1) = (  0.2499946  0.2500028  0.4247887  )
         2        Li     tau(   2) = (  0.4999999  0.5000001  0.4739976  )
         3        Li     tau(   3) = (  0.2500009  0.2499939  0.5260035  )
         4        Li     tau(   4) = (  0.4999999  0.5000001  0.5752066  )
         5        Li     tau(   5) = (  0.2500061  0.7500027  0.4247925  )
         6        Li     tau(   6) = (  0.4999997  1.0000001  0.4739989  )
         7        Li     tau(   7) = (  0.2499935  0.7499950  0.5260050  )
         8        Li     tau(   8) = (  0.4999997  1.0000000  0.5752091  )
         9        Li     tau(   9) = (  0.7499936  0.2499974  0.4247925  )
        10        Li     tau(  10) = (  0.9999999  0.5000001  0.4739981  )
        11        Li     tau(  11) = (  0.7500062  0.2500050  0.5260050  )
        12        Li     tau(  12) = (  0.9999999  0.5000001  0.5752089  )
        13        Li     tau(  13) = (  0.7500051  0.7499973  0.4247887  )
        14        Li     tau(  14) = (  0.9999997  1.0000000  0.4739980  )
        15        Li     tau(  15) = (  0.7499988  0.7500062  0.5260035  )
        16        Li     tau(  16) = (  0.9999997  1.0000000  0.5752086  )

     number of k points=    61  Marzari-Vanderbilt smearing, width (Ry)=  0.0100
                       cart. coord. in units 2pi/alat
        k(    1) = (   0.0000000   0.0000000   0.0000000), wk =   0.0165289
        k(    2) = (   0.0000000   0.0964237   0.0000000), wk =   0.0330579
        k(    3) = (   0.0000000   0.1928473   0.0000000), wk =   0.0330579
        k(    4) = (   0.0000000   0.2892710   0.0000000), wk =   0.0330579
        k(    5) = (   0.0000000   0.3856946   0.0000000), wk =   0.0330579
        k(    6) = (   0.0000000   0.4821183   0.0000000), wk =   0.0330579
        k(    7) = (   0.0909091   0.0321412   0.0000000), wk =   0.0330579
        k(    8) = (   0.0909091   0.1285648   0.0000000), wk =   0.0330579
        k(    9) = (   0.0909091   0.2249885   0.0000000), wk =   0.0330579
        k(   10) = (   0.0909091   0.3214122   0.0000000), wk =   0.0330579
        k(   11) = (   0.0909091   0.4178358   0.0000000), wk =   0.0330579
        k(   12) = (   0.0909091   0.5142595   0.0000000), wk =   0.0330579
        k(   13) = (   0.0909091  -0.4499771   0.0000000), wk =   0.0330579
        k(   14) = (   0.0909091  -0.3535534   0.0000000), wk =   0.0330579
        k(   15) = (   0.0909091  -0.2571298   0.0000000), wk =   0.0330579
        k(   16) = (   0.0909091  -0.1607061   0.0000000), wk =   0.0330579
        k(   17) = (   0.0909091  -0.0642825   0.0000000), wk =   0.0330579
        k(   18) = (   0.1818182   0.0642824   0.0000000), wk =   0.0330579
        k(   19) = (   0.1818182   0.1607060   0.0000000), wk =   0.0330579
        k(   20) = (   0.1818182   0.2571297   0.0000000), wk =   0.0330579
        k(   21) = (   0.1818182   0.3535533   0.0000000), wk =   0.0330579
        k(   22) = (   0.1818182   0.4499770   0.0000000), wk =   0.0330579
        k(   23) = (   0.1818182   0.5464007   0.0000000), wk =   0.0330579
        k(   24) = (   0.1818182  -0.4178359   0.0000000), wk =   0.0330579
        k(   25) = (   0.1818182  -0.3214123   0.0000000), wk =   0.0330579
        k(   26) = (   0.1818182  -0.2249886   0.0000000), wk =   0.0330579
        k(   27) = (   0.1818182  -0.1285649   0.0000000), wk =   0.0330579
        k(   28) = (   0.1818182  -0.0321413   0.0000000), wk =   0.0330579
        k(   29) = (   0.2727273   0.0964236   0.0000000), wk =   0.0330579
        k(   30) = (   0.2727273   0.1928472   0.0000000), wk =   0.0330579
        k(   31) = (   0.2727273   0.2892709   0.0000000), wk =   0.0330579
        k(   32) = (   0.2727273   0.3856945   0.0000000), wk =   0.0330579
        k(   33) = (   0.2727273   0.4821182   0.0000000), wk =   0.0330579
        k(   34) = (   0.2727273   0.5785418   0.0000000), wk =   0.0330579
        k(   35) = (   0.2727273  -0.3856947   0.0000000), wk =   0.0330579
        k(   36) = (   0.2727273  -0.2892711   0.0000000), wk =   0.0330579
        k(   37) = (   0.2727273  -0.1928474   0.0000000), wk =   0.0330579
        k(   38) = (   0.2727273  -0.0964238   0.0000000), wk =   0.0330579
        k(   39) = (   0.2727273  -0.0000001   0.0000000), wk =   0.0330579
        k(   40) = (   0.3636364   0.1285647   0.0000000), wk =   0.0330579
        k(   41) = (   0.3636364   0.2249884   0.0000000), wk =   0.0330579
        k(   42) = (   0.3636364   0.3214121   0.0000000), wk =   0.0330579
        k(   43) = (   0.3636364   0.4178357   0.0000000), wk =   0.0330579
        k(   44) = (   0.3636364   0.5142594   0.0000000), wk =   0.0330579
        k(   45) = (   0.3636364   0.6106830   0.0000000), wk =   0.0330579
        k(   46) = (   0.3636364  -0.3535535   0.0000000), wk =   0.0330579
        k(   47) = (   0.3636364  -0.2571299   0.0000000), wk =   0.0330579
        k(   48) = (   0.3636364  -0.1607062   0.0000000), wk =   0.0330579
        k(   49) = (   0.3636364  -0.0642826   0.0000000), wk =   0.0330579
        k(   50) = (   0.3636364   0.0321411   0.0000000), wk =   0.0330579
        k(   51) = (   0.4545455   0.1607059   0.0000000), wk =   0.0330579
        k(   52) = (   0.4545455   0.2571296   0.0000000), wk =   0.0330579
        k(   53) = (   0.4545455   0.3535532   0.0000000), wk =   0.0330579
        k(   54) = (   0.4545455   0.4499769   0.0000000), wk =   0.0330579
        k(   55) = (   0.4545455   0.5464006   0.0000000), wk =   0.0330579
        k(   56) = (   0.4545455   0.6428242   0.0000000), wk =   0.0330579
        k(   57) = (   0.4545455  -0.3214123   0.0000000), wk =   0.0330579
        k(   58) = (   0.4545455  -0.2249887   0.0000000), wk =   0.0330579
        k(   59) = (   0.4545455  -0.1285650   0.0000000), wk =   0.0330579
        k(   60) = (   0.4545455  -0.0321414   0.0000000), wk =   0.0330579
        k(   61) = (   0.4545455   0.0642823   0.0000000), wk =   0.0330579

                       cryst. coord.
        k(    1) = (   0.0000000   0.0000000   0.0000000), wk =   0.0165289
        k(    2) = (   0.0000000   0.0909091   0.0000000), wk =   0.0330579
        k(    3) = (   0.0000000   0.1818182   0.0000000), wk =   0.0330579
        k(    4) = (   0.0000000   0.2727273   0.0000000), wk =   0.0330579
        k(    5) = (   0.0000000   0.3636364   0.0000000), wk =   0.0330579
        k(    6) = (   0.0000000   0.4545455   0.0000000), wk =   0.0330579
        k(    7) = (   0.0909091  -0.0000000   0.0000000), wk =   0.0330579
        k(    8) = (   0.0909091   0.0909091   0.0000000), wk =   0.0330579
        k(    9) = (   0.0909091   0.1818182   0.0000000), wk =   0.0330579
        k(   10) = (   0.0909091   0.2727273   0.0000000), wk =   0.0330579
        k(   11) = (   0.0909091   0.3636364   0.0000000), wk =   0.0330579
        k(   12) = (   0.0909091   0.4545455   0.0000000), wk =   0.0330579
        k(   13) = (   0.0909091  -0.4545455   0.0000000), wk =   0.0330579
        k(   14) = (   0.0909091  -0.3636364   0.0000000), wk =   0.0330579
        k(   15) = (   0.0909091  -0.2727273   0.0000000), wk =   0.0330579
        k(   16) = (   0.0909091  -0.1818182   0.0000000), wk =   0.0330579
        k(   17) = (   0.0909091  -0.0909091   0.0000000), wk =   0.0330579
        k(   18) = (   0.1818182  -0.0000000   0.0000000), wk =   0.0330579
        k(   19) = (   0.1818182   0.0909091   0.0000000), wk =   0.0330579
        k(   20) = (   0.1818182   0.1818182   0.0000000), wk =   0.0330579
        k(   21) = (   0.1818182   0.2727273   0.0000000), wk =   0.0330579
        k(   22) = (   0.1818182   0.3636364   0.0000000), wk =   0.0330579
        k(   23) = (   0.1818182   0.4545455   0.0000000), wk =   0.0330579
        k(   24) = (   0.1818182  -0.4545455   0.0000000), wk =   0.0330579
        k(   25) = (   0.1818182  -0.3636364   0.0000000), wk =   0.0330579
        k(   26) = (   0.1818182  -0.2727273   0.0000000), wk =   0.0330579
        k(   27) = (   0.1818182  -0.1818182   0.0000000), wk =   0.0330579
        k(   28) = (   0.1818182  -0.0909091   0.0000000), wk =   0.0330579
        k(   29) = (   0.2727273  -0.0000000   0.0000000), wk =   0.0330579
        k(   30) = (   0.2727273   0.0909091   0.0000000), wk =   0.0330579
        k(   31) = (   0.2727273   0.1818182   0.0000000), wk =   0.0330579
        k(   32) = (   0.2727273   0.2727273   0.0000000), wk =   0.0330579
        k(   33) = (   0.2727273   0.3636364   0.0000000), wk =   0.0330579
        k(   34) = (   0.2727273   0.4545455   0.0000000), wk =   0.0330579
        k(   35) = (   0.2727273  -0.4545455   0.0000000), wk =   0.0330579
        k(   36) = (   0.2727273  -0.3636364   0.0000000), wk =   0.0330579
        k(   37) = (   0.2727273  -0.2727273   0.0000000), wk =   0.0330579
        k(   38) = (   0.2727273  -0.1818182   0.0000000), wk =   0.0330579
        k(   39) = (   0.2727273  -0.0909091   0.0000000), wk =   0.0330579
        k(   40) = (   0.3636364  -0.0000000   0.0000000), wk =   0.0330579
        k(   41) = (   0.3636364   0.0909091   0.0000000), wk =   0.0330579
        k(   42) = (   0.3636364   0.1818182   0.0000000), wk =   0.0330579
        k(   43) = (   0.3636364   0.2727273   0.0000000), wk =   0.0330579
        k(   44) = (   0.3636364   0.3636364   0.0000000), wk =   0.0330579
        k(   45) = (   0.3636364   0.4545455   0.0000000), wk =   0.0330579
        k(   46) = (   0.3636364  -0.4545455   0.0000000), wk =   0.0330579
        k(   47) = (   0.3636364  -0.3636364   0.0000000), wk =   0.0330579
        k(   48) = (   0.3636364  -0.2727273   0.0000000), wk =   0.0330579
        k(   49) = (   0.3636364  -0.1818182   0.0000000), wk =   0.0330579
        k(   50) = (   0.3636364  -0.0909091   0.0000000), wk =   0.0330579
        k(   51) = (   0.4545455  -0.0000000   0.0000000), wk =   0.0330579
        k(   52) = (   0.4545455   0.0909091   0.0000000), wk =   0.0330579
        k(   53) = (   0.4545455   0.1818182   0.0000000), wk =   0.0330579
        k(   54) = (   0.4545455   0.2727273   0.0000000), wk =   0.0330579
        k(   55) = (   0.4545455   0.3636364   0.0000000), wk =   0.0330579
        k(   56) = (   0.4545455   0.4545455   0.0000000), wk =   0.0330579
        k(   57) = (   0.4545455  -0.4545455   0.0000000), wk =   0.0330579
        k(   58) = (   0.4545455  -0.3636364   0.0000000), wk =   0.0330579
        k(   59) = (   0.4545455  -0.2727273   0.0000000), wk =   0.0330579
        k(   60) = (   0.4545455  -0.1818182   0.0000000), wk =   0.0330579
        k(   61) = (   0.4545455  -0.0909091   0.0000000), wk =   0.0330579

     Dense  grid:  4056641 G-vectors     FFT dimensions: ( 108, 108, 810)

     Smooth grid:  1025567 G-vectors     FFT dimensions: (  72,  72, 512)

     Dynamical RAM for                 wfc:       0.39 MB

     Dynamical RAM for     wfc (w. buffer):      12.52 MB

     Dynamical RAM for           str. fact:       0.34 MB

     Dynamical RAM for           local pot:       0.00 MB

     Dynamical RAM for          nlocal pot:       1.39 MB

     Dynamical RAM for                qrad:       0.65 MB

     Dynamical RAM for          rho,v,vnew:       2.37 MB

     Dynamical RAM for               rhoin:       0.79 MB

     Dynamical RAM for            rho*nmix:       5.50 MB

     Dynamical RAM for           G-vectors:       1.33 MB

     Dynamical RAM for          h,s,v(r/c):       0.95 MB

     Dynamical RAM for          <psi|beta>:       0.07 MB

     Dynamical RAM for                 psi:       1.56 MB

     Dynamical RAM for                hpsi:       1.56 MB

     Dynamical RAM for                spsi:       1.56 MB

     Dynamical RAM for      wfcinit/wfcrot:       0.81 MB

     Dynamical RAM for           addusdens:      10.31 MB

     Dynamical RAM for          addusforce:      15.48 MB

     Estimated static dynamical RAM per process >      22.30 MB

     Estimated max dynamical RAM per process >      61.90 MB

     Estimated total dynamical RAM >      14.25 GB

     Initial potential from superposition of free atoms

     starting charge      47.9263, renormalised to      48.0000

     negative rho (up, down):  1.965E-03 0.000E+00
     Starting wfcs are random
     Checking if some PAW data can be deallocated... 

     total cpu time spent up to now is        5.3 secs

     per-process dynamical memory:   113.3 Mb

     Self-consistent Calculation

     iteration #  1     ecut=    80.00 Ry     beta= 0.20
     Davidson diagonalization with overlap

---- Real-time Memory Report at c_bands before calling an iterative solver
           252 MiB given to the printing process from OS
           110 MiB allocation reported by mallinfo(arena+hblkhd)
        173368 MiB available memory on the node where the printing process lives
------------------
     c_bands:  3 eigenvalues not converged
     c_bands:  1 eigenvalues not converged
     c_bands:  1 eigenvalues not converged
     c_bands:  1 eigenvalues not converged
     ethr =  1.00E-12,  avg # of iterations = 95.5

     negative rho (up, down):  1.475E-03 0.000E+00

     add environment contribution to local potential

     total cpu time spent up to now is       79.7 secs

     total energy              =    -240.61260125 Ry
     estimated scf accuracy    <       0.06616265 Ry

     total charge of GC-SCF    =       0.02628230 e
     the Fermi energy          =      -4.75668833 eV
                        (error :       0.85268833 eV)
     electrostatic embedding   =       0.00000000 Ry
     cavitation energy         =       0.01235683 Ry
     electrolyte free energy   =       0.00456895 Ry
     correction to one-el term =       0.00000000 Ry

     iteration #  2     ecut=    80.00 Ry     beta= 0.20
     Davidson diagonalization with overlap

---- Real-time Memory Report at c_bands before calling an iterative solver
           252 MiB given to the printing process from OS
           122 MiB allocation reported by mallinfo(arena+hblkhd)
        173131 MiB available memory on the node where the printing process lives
------------------
     ethr =  1.00E-05,  avg # of iterations = 10.0

     negative rho (up, down):  1.091E-03 0.000E+00

     add environment contribution to local potential

     total cpu time spent up to now is       90.7 secs

     total energy              =    -240.54044461 Ry
     estimated scf accuracy    <       0.02436193 Ry

     total charge of GC-SCF    =       0.06329559 e
     the Fermi energy          =      -4.05241511 eV
                        (error :       0.14841511 eV)
     electrostatic embedding   =      -0.01834197 Ry
     cavitation energy         =       0.01235683 Ry
     electrolyte free energy   =      -0.00216194 Ry
     correction to one-el term =      -0.80767963 Ry

     iteration #  3     ecut=    80.00 Ry     beta= 0.20
     Davidson diagonalization with overlap

---- Real-time Memory Report at c_bands before calling an iterative solver
           252 MiB given to the printing process from OS
           122 MiB allocation reported by mallinfo(arena+hblkhd)
        173144 MiB available memory on the node where the printing process lives
------------------
     ethr =  1.00E-05,  avg # of iterations = 11.7

     negative rho (up, down):  8.694E-04 0.000E+00

     add environment contribution to local potential

     total cpu time spent up to now is      102.6 secs

     total energy              =    -240.56143859 Ry
     estimated scf accuracy    <       0.00922873 Ry

     total charge of GC-SCF    =       0.11279564 e
     the Fermi energy          =      -3.44423606 eV
                        (error :       0.45976394 eV)
     electrostatic embedding   =      -0.01683452 Ry
     cavitation energy         =       0.01235683 Ry
     electrolyte free energy   =      -0.00196993 Ry
     correction to one-el term =      -2.28280042 Ry

     iteration #  4     ecut=    80.00 Ry     beta= 0.20
     Davidson diagonalization with overlap

---- Real-time Memory Report at c_bands before calling an iterative solver
           252 MiB given to the printing process from OS
           122 MiB allocation reported by mallinfo(arena+hblkhd)
        173146 MiB available memory on the node where the printing process lives
------------------
     ethr =  1.00E-05,  avg # of iterations =  7.2

     negative rho (up, down):  7.019E-04 0.000E+00

     add environment contribution to local potential

     total cpu time spent up to now is      111.3 secs

     total energy              =    -240.56171471 Ry
     estimated scf accuracy    <       0.00435098 Ry

     total charge of GC-SCF    =       0.17156995 e
     the Fermi energy          =      -3.43435142 eV
                        (error :       0.46964858 eV)
     electrostatic embedding   =      -0.01614713 Ry
     cavitation energy         =       0.01235683 Ry
     electrolyte free energy   =      -0.00200424 Ry
     correction to one-el term =      -3.54963412 Ry

     iteration #  5     ecut=    80.00 Ry     beta= 0.20
     Davidson diagonalization with overlap

---- Real-time Memory Report at c_bands before calling an iterative solver
           252 MiB given to the printing process from OS
           122 MiB allocation reported by mallinfo(arena+hblkhd)
        173144 MiB available memory on the node where the printing process lives
------------------
     ethr =  9.10E-06,  avg # of iterations =  8.4

     negative rho (up, down):  5.702E-04 0.000E+00

     add environment contribution to local potential

     total cpu time spent up to now is      121.0 secs

     total energy              =    -240.55597493 Ry
     estimated scf accuracy    <       0.00111977 Ry

     total charge of GC-SCF    =       0.39440344 e
     the Fermi energy          =      -3.17076476 eV
                        (error :       0.73323524 eV)
     electrostatic embedding   =      -0.01873759 Ry
     cavitation energy         =       0.01235683 Ry
     electrolyte free energy   =      -0.00175860 Ry
     correction to one-el term =      -5.32142080 Ry

     iteration #  6     ecut=    80.00 Ry     beta= 0.20
     Davidson diagonalization with overlap

---- Real-time Memory Report at c_bands before calling an iterative solver
           252 MiB given to the printing process from OS
           122 MiB allocation reported by mallinfo(arena+hblkhd)
        173135 MiB available memory on the node where the printing process lives
------------------
     ethr =  2.35E-06,  avg # of iterations = 16.5

     negative rho (up, down):  4.929E-04 0.000E+00

     add environment contribution to local potential

     total cpu time spent up to now is      135.4 secs

     total energy              =    -240.59613747 Ry
     estimated scf accuracy    <       0.00064513 Ry

     total charge of GC-SCF    =       0.44204360 e
     the Fermi energy          =      -2.94460475 eV
                        (error :       0.95939525 eV)
     electrostatic embedding   =      -0.05129319 Ry
     cavitation energy         =       0.01235683 Ry
     electrolyte free energy   =      -0.00164729 Ry
     correction to one-el term =     -11.62301195 Ry

     iteration #  7     ecut=    80.00 Ry     beta= 0.20
     Davidson diagonalization with overlap

---- Real-time Memory Report at c_bands before calling an iterative solver
           252 MiB given to the printing process from OS
           122 MiB allocation reported by mallinfo(arena+hblkhd)
        173133 MiB available memory on the node where the printing process lives
------------------
     ethr =  1.36E-06,  avg # of iterations =  6.1

     negative rho (up, down):  4.447E-04 0.000E+00

     add environment contribution to local potential

     total cpu time spent up to now is      144.6 secs

     total energy              =    -240.58222467 Ry
     estimated scf accuracy    <       0.00043994 Ry

     total charge of GC-SCF    =       0.56111628 e
     the Fermi energy          =      -3.00723465 eV
                        (error :       0.89676535 eV)
     electrostatic embedding   =      -0.06232229 Ry
     cavitation energy         =       0.01235683 Ry
     electrolyte free energy   =      -0.00188306 Ry
     correction to one-el term =     -12.93071364 Ry

     iteration #  8     ecut=    80.00 Ry     beta= 0.20
     Davidson diagonalization with overlap

---- Real-time Memory Report at c_bands before calling an iterative solver
           252 MiB given to the printing process from OS
           122 MiB allocation reported by mallinfo(arena+hblkhd)
        173123 MiB available memory on the node where the printing process lives
------------------
     ethr =  9.27E-07,  avg # of iterations =  8.9

     negative rho (up, down):  4.280E-04 0.000E+00

     add environment contribution to local potential

     total cpu time spent up to now is      155.0 secs

     total energy              =    -240.58019079 Ry
     estimated scf accuracy    <       0.00025552 Ry

     total charge of GC-SCF    =       0.77225339 e
     the Fermi energy          =      -3.14105275 eV
                        (error :       0.76294725 eV)
     electrostatic embedding   =      -0.09676882 Ry
     cavitation energy         =       0.01235683 Ry
     electrolyte free energy   =      -0.00250476 Ry
     correction to one-el term =     -16.26651174 Ry

     iteration #  9     ecut=    80.00 Ry     beta= 0.20
     Davidson diagonalization with overlap

---- Real-time Memory Report at c_bands before calling an iterative solver
           252 MiB given to the printing process from OS
           122 MiB allocation reported by mallinfo(arena+hblkhd)
        173113 MiB available memory on the node where the printing process lives
------------------
     ethr =  5.41E-07,  avg # of iterations = 12.8

     negative rho (up, down):  4.574E-04 0.000E+00

     add environment contribution to local potential

     total cpu time spent up to now is      168.0 secs

     total energy              =    -240.59456626 Ry
     estimated scf accuracy    <       0.00026839 Ry

     total charge of GC-SCF    =       0.98309820 e
     the Fermi energy          =      -3.18216391 eV
                        (error :       0.72183609 eV)
     electrostatic embedding   =      -0.18398029 Ry
     cavitation energy         =       0.01235683 Ry
     electrolyte free energy   =      -0.00344322 Ry
     correction to one-el term =     -22.40227222 Ry

     iteration # 10     ecut=    80.00 Ry     beta= 0.20
     Davidson diagonalization with overlap

---- Real-time Memory Report at c_bands before calling an iterative solver
           252 MiB given to the printing process from OS
           125 MiB allocation reported by mallinfo(arena+hblkhd)
        173101 MiB available memory on the node where the printing process lives
------------------
     ethr =  5.41E-07,  avg # of iterations = 11.4

     negative rho (up, down):  7.182E-04 0.000E+00

     add environment contribution to local potential

     total cpu time spent up to now is      180.1 secs

     total energy              =    -240.61517940 Ry
     estimated scf accuracy    <       0.00036563 Ry

     total charge of GC-SCF    =       1.02029111 e
     the Fermi energy          =      -3.29712661 eV
                        (error :       0.60687339 eV)
     electrostatic embedding   =      -0.30350746 Ry
     cavitation energy         =       0.01235683 Ry
     electrolyte free energy   =      -0.00474425 Ry
     correction to one-el term =     -28.58710721 Ry

     iteration # 11     ecut=    80.00 Ry     beta= 0.20
     Davidson diagonalization with overlap

---- Real-time Memory Report at c_bands before calling an iterative solver
           252 MiB given to the printing process from OS
           125 MiB allocation reported by mallinfo(arena+hblkhd)
        173101 MiB available memory on the node where the printing process lives
------------------
     ethr =  5.41E-07,  avg # of iterations = 12.7

     negative rho (up, down):  5.587E-04 0.000E+00

     add environment contribution to local potential

     total cpu time spent up to now is      191.9 secs

     total energy              =    -240.61751243 Ry
     estimated scf accuracy    <       0.00014469 Ry

     total charge of GC-SCF    =       1.02699713 e
     the Fermi energy          =      -3.42620720 eV
                        (error :       0.47779280 eV)
     electrostatic embedding   =      -0.32539252 Ry
     cavitation energy         =       0.01235683 Ry
     electrolyte free energy   =      -0.00512328 Ry
     correction to one-el term =     -29.57415679 Ry

     iteration # 12     ecut=    80.00 Ry     beta= 0.20
     Davidson diagonalization with overlap

---- Real-time Memory Report at c_bands before calling an iterative solver
           252 MiB given to the printing process from OS
           125 MiB allocation reported by mallinfo(arena+hblkhd)
        173101 MiB available memory on the node where the printing process lives
------------------
     ethr =  3.08E-07,  avg # of iterations =  8.8

     negative rho (up, down):  5.954E-04 0.000E+00

     add environment contribution to local potential

     total cpu time spent up to now is      201.3 secs

     total energy              =    -240.61496780 Ry
     estimated scf accuracy    <       0.00015501 Ry

     total charge of GC-SCF    =       1.06621159 e
     the Fermi energy          =      -3.42869431 eV
                        (error :       0.47530569 eV)
     electrostatic embedding   =      -0.33112529 Ry
     cavitation energy         =       0.01235683 Ry
     electrolyte free energy   =      -0.00517997 Ry
     correction to one-el term =     -29.82471848 Ry

     iteration # 13     ecut=    80.00 Ry     beta= 0.20
     Davidson diagonalization with overlap

---- Real-time Memory Report at c_bands before calling an iterative solver
           252 MiB given to the printing process from OS
           125 MiB allocation reported by mallinfo(arena+hblkhd)
        173099 MiB available memory on the node where the printing process lives
------------------
     ethr =  3.08E-07,  avg # of iterations = 10.0

     negative rho (up, down):  9.324E-04 0.000E+00

     add environment contribution to local potential

     total cpu time spent up to now is      212.2 secs

     total energy              =    -240.61314336 Ry
     estimated scf accuracy    <       0.00013050 Ry

     total charge of GC-SCF    =       1.20412576 e
     the Fermi energy          =      -3.48155390 eV
                        (error :       0.42244610 eV)
     electrostatic embedding   =      -0.35652492 Ry
     cavitation energy         =       0.01235683 Ry
     electrolyte free energy   =      -0.00548315 Ry
     correction to one-el term =     -30.91065400 Ry

     iteration # 14     ecut=    80.00 Ry     beta= 0.20
     Davidson diagonalization with overlap

---- Real-time Memory Report at c_bands before calling an iterative solver
           252 MiB given to the printing process from OS
           125 MiB allocation reported by mallinfo(arena+hblkhd)
        173101 MiB available memory on the node where the printing process lives
------------------
     ethr =  2.79E-07,  avg # of iterations = 19.9

     negative rho (up, down):  4.463E-04 0.000E+00

     add environment contribution to local potential

     total cpu time spent up to now is      228.7 secs

     total energy              =    -240.63202995 Ry
     estimated scf accuracy    <       0.00045639 Ry

     total charge of GC-SCF    =       1.09290860 e
     the Fermi energy          =      -3.51148430 eV
                        (error :       0.39251570 eV)
     electrostatic embedding   =      -0.45659644 Ry
     cavitation energy         =       0.01235683 Ry
     electrolyte free energy   =      -0.00653945 Ry
     correction to one-el term =     -34.81735857 Ry

     iteration # 15     ecut=    80.00 Ry     beta= 0.20
     Davidson diagonalization with overlap

---- Real-time Memory Report at c_bands before calling an iterative solver
           252 MiB given to the printing process from OS
           125 MiB allocation reported by mallinfo(arena+hblkhd)
        173100 MiB available memory on the node where the printing process lives
------------------
     ethr =  2.79E-07,  avg # of iterations = 14.1

     negative rho (up, down):  4.080E-04 0.000E+00

     add environment contribution to local potential

     total cpu time spent up to now is      241.9 secs

     total energy              =    -240.61697563 Ry
     estimated scf accuracy    <       0.00015790 Ry

     total charge of GC-SCF    =       1.10889297 e
     the Fermi energy          =      -3.49574498 eV
                        (error :       0.40825502 eV)
     electrostatic embedding   =      -0.37263502 Ry
     cavitation energy         =       0.01235683 Ry
     electrolyte free energy   =      -0.00564440 Ry
     correction to one-el term =     -31.57051545 Ry

     iteration # 16     ecut=    80.00 Ry     beta= 0.20
     Davidson diagonalization with overlap

---- Real-time Memory Report at c_bands before calling an iterative solver
           252 MiB given to the printing process from OS
           125 MiB allocation reported by mallinfo(arena+hblkhd)
        173092 MiB available memory on the node where the printing process lives
------------------
     ethr =  2.79E-07,  avg # of iterations = 12.2

     negative rho (up, down):  4.578E-04 0.000E+00

     add environment contribution to local potential

     total cpu time spent up to now is      252.8 secs

     total energy              =    -240.61811920 Ry
     estimated scf accuracy    <       0.00014384 Ry

     total charge of GC-SCF    =       1.10904581 e
     the Fermi energy          =      -3.52248654 eV
                        (error :       0.38151346 eV)
     electrostatic embedding   =      -0.38433017 Ry
     cavitation energy         =       0.01235683 Ry
     electrolyte free energy   =      -0.00579077 Ry
     correction to one-el term =     -32.04551654 Ry

     iteration # 17     ecut=    80.00 Ry     beta= 0.20
     Davidson diagonalization with overlap

---- Real-time Memory Report at c_bands before calling an iterative solver
           252 MiB given to the printing process from OS
           125 MiB allocation reported by mallinfo(arena+hblkhd)
        173101 MiB available memory on the node where the printing process lives
------------------
     ethr =  2.79E-07,  avg # of iterations =  9.0

     negative rho (up, down):  3.878E-04 0.000E+00

     add environment contribution to local potential

     total cpu time spent up to now is      262.0 secs

     total energy              =    -240.61789391 Ry
     estimated scf accuracy    <       0.00012192 Ry

     total charge of GC-SCF    =       1.10567217 e
     the Fermi energy          =      -3.54074046 eV
                        (error :       0.36325954 eV)
     electrostatic embedding   =      -0.38420748 Ry
     cavitation energy         =       0.01235683 Ry
     electrolyte free energy   =      -0.00580574 Ry
     correction to one-el term =     -32.04114837 Ry

     iteration # 18     ecut=    80.00 Ry     beta= 0.20
     Davidson diagonalization with overlap

---- Real-time Memory Report at c_bands before calling an iterative solver
           252 MiB given to the printing process from OS
           125 MiB allocation reported by mallinfo(arena+hblkhd)
        173102 MiB available memory on the node where the printing process lives
------------------
     ethr =  2.60E-07,  avg # of iterations = 10.0

     negative rho (up, down):  4.631E-04 0.000E+00

     add environment contribution to local potential

     total cpu time spent up to now is      271.7 secs

     total energy              =    -240.61290068 Ry
     estimated scf accuracy    <       0.00008362 Ry

     total charge of GC-SCF    =       1.19718460 e
     the Fermi energy          =      -3.56846047 eV
                        (error :       0.33553953 eV)
     electrostatic embedding   =      -0.38217510 Ry
     cavitation energy         =       0.01235683 Ry
     electrolyte free energy   =      -0.00580467 Ry
     correction to one-el term =     -31.96181492 Ry

     iteration # 19     ecut=    80.00 Ry     beta= 0.20
     Davidson diagonalization with overlap

---- Real-time Memory Report at c_bands before calling an iterative solver
           252 MiB given to the printing process from OS
           125 MiB allocation reported by mallinfo(arena+hblkhd)
        173103 MiB available memory on the node where the printing process lives
------------------
     ethr =  1.79E-07,  avg # of iterations = 21.8

     negative rho (up, down):  3.863E-04 0.000E+00

     add environment contribution to local potential

     total cpu time spent up to now is      289.1 secs

     total energy              =    -240.61552656 Ry
     estimated scf accuracy    <       0.00000914 Ry

     total charge of GC-SCF    =       1.20920367 e
     the Fermi energy          =      -3.81787413 eV
                        (error :       0.08612587 eV)
     electrostatic embedding   =      -0.45099262 Ry
     cavitation energy         =       0.01235683 Ry
     electrolyte free energy   =      -0.00662112 Ry
     correction to one-el term =     -34.62792242 Ry

     iteration # 20     ecut=    80.00 Ry     beta= 0.20
     Davidson diagonalization with overlap

---- Real-time Memory Report at c_bands before calling an iterative solver
           252 MiB given to the printing process from OS
           125 MiB allocation reported by mallinfo(arena+hblkhd)
        173099 MiB available memory on the node where the printing process lives
------------------
     ethr =  1.95E-08,  avg # of iterations = 19.8

     negative rho (up, down):  2.821E-04 0.000E+00

     add environment contribution to local potential

     total cpu time spent up to now is      304.9 secs

     total energy              =    -240.61569662 Ry
     estimated scf accuracy    <       0.00000720 Ry

     total charge of GC-SCF    =       1.24315204 e
     the Fermi energy          =      -3.86379894 eV
                        (error :       0.04020106 eV)
     electrostatic embedding   =      -0.45996637 Ry
     cavitation energy         =       0.01235683 Ry
     electrolyte free energy   =      -0.00673246 Ry
     correction to one-el term =     -34.95897227 Ry

     iteration # 21     ecut=    80.00 Ry     beta= 0.20
     Davidson diagonalization with overlap

---- Real-time Memory Report at c_bands before calling an iterative solver
           252 MiB given to the printing process from OS
           125 MiB allocation reported by mallinfo(arena+hblkhd)
        173101 MiB available memory on the node where the printing process lives
------------------
     ethr =  1.54E-08,  avg # of iterations = 12.2

     negative rho (up, down):  2.322E-04 0.000E+00

     add environment contribution to local potential

     total cpu time spent up to now is      316.9 secs

     total energy              =    -240.61550955 Ry
     estimated scf accuracy    <       0.00000302 Ry

     total charge of GC-SCF    =       1.24394730 e
     the Fermi energy          =      -3.90411106 eV
                        (error :       0.00011106 eV)
     electrostatic embedding   =      -0.48681286 Ry
     cavitation energy         =       0.01235683 Ry
     electrolyte free energy   =      -0.00703638 Ry
     correction to one-el term =     -35.92620519 Ry

     iteration # 22     ecut=    80.00 Ry     beta= 0.20
     Davidson diagonalization with overlap

---- Real-time Memory Report at c_bands before calling an iterative solver
           252 MiB given to the printing process from OS
           125 MiB allocation reported by mallinfo(arena+hblkhd)
        173101 MiB available memory on the node where the printing process lives
------------------
     ethr =  6.46E-09,  avg # of iterations = 12.5

     negative rho (up, down):  2.327E-04 0.000E+00

     add environment contribution to local potential

     total cpu time spent up to now is      329.2 secs

     total energy              =    -240.61550767 Ry
     estimated scf accuracy    <       0.00000126 Ry

     total charge of GC-SCF    =       1.23417855 e
     the Fermi energy          =      -3.91168668 eV
                        (error :       0.00768668 eV)
     electrostatic embedding   =      -0.48844799 Ry
     cavitation energy         =       0.01235683 Ry
     electrolyte free energy   =      -0.00705160 Ry
     correction to one-el term =     -35.98591783 Ry

     iteration # 23     ecut=    80.00 Ry     beta= 0.20
     Davidson diagonalization with overlap

---- Real-time Memory Report at c_bands before calling an iterative solver
           252 MiB given to the printing process from OS
           125 MiB allocation reported by mallinfo(arena+hblkhd)
        173100 MiB available memory on the node where the printing process lives
------------------
     ethr =  2.70E-09,  avg # of iterations = 13.3

     negative rho (up, down):  2.418E-04 0.000E+00

     add environment contribution to local potential

     total cpu time spent up to now is      341.8 secs

     total energy              =    -240.61553365 Ry
     estimated scf accuracy    <       0.00000069 Ry

     total charge of GC-SCF    =       1.23601123 e
     the Fermi energy          =      -3.89433089 eV
                        (error :       0.00966911 eV)
     electrostatic embedding   =      -0.48079511 Ry
     cavitation energy         =       0.01235683 Ry
     electrolyte free energy   =      -0.00696365 Ry
     correction to one-el term =     -35.71375222 Ry

     iteration # 24     ecut=    80.00 Ry     beta= 0.20
     Davidson diagonalization with overlap

---- Real-time Memory Report at c_bands before calling an iterative solver
           252 MiB given to the printing process from OS
           125 MiB allocation reported by mallinfo(arena+hblkhd)
        173101 MiB available memory on the node where the printing process lives
------------------
     ethr =  1.48E-09,  avg # of iterations =  8.8

     negative rho (up, down):  2.608E-04 0.000E+00

     add environment contribution to local potential

     total cpu time spent up to now is      351.5 secs

     total energy              =    -240.61554437 Ry
     estimated scf accuracy    <       0.00000047 Ry

     total charge of GC-SCF    =       1.24391118 e
     the Fermi energy          =      -3.89654885 eV
                        (error :       0.00745115 eV)
     electrostatic embedding   =      -0.48185014 Ry
     cavitation energy         =       0.01235683 Ry
     electrolyte free energy   =      -0.00697735 Ry
     correction to one-el term =     -35.75089155 Ry

     iteration # 25     ecut=    80.00 Ry     beta= 0.20
     Davidson diagonalization with overlap

---- Real-time Memory Report at c_bands before calling an iterative solver
           252 MiB given to the printing process from OS
           125 MiB allocation reported by mallinfo(arena+hblkhd)
        173102 MiB available memory on the node where the printing process lives
------------------
     ethr =  1.01E-09,  avg # of iterations = 11.5

     negative rho (up, down):  2.636E-04 0.000E+00

     add environment contribution to local potential

     total cpu time spent up to now is      364.0 secs

     total energy              =    -240.61551446 Ry
     estimated scf accuracy    <       0.00000024 Ry

     total charge of GC-SCF    =       1.24545938 e
     the Fermi energy          =      -3.90708915 eV
                        (error :       0.00308915 eV)
     electrostatic embedding   =      -0.48761140 Ry
     cavitation energy         =       0.01235683 Ry
     electrolyte free energy   =      -0.00704525 Ry
     correction to one-el term =     -35.95499367 Ry

     iteration # 26     ecut=    80.00 Ry     beta= 0.20
     Davidson diagonalization with overlap

---- Real-time Memory Report at c_bands before calling an iterative solver
           252 MiB given to the printing process from OS
           125 MiB allocation reported by mallinfo(arena+hblkhd)
        173098 MiB available memory on the node where the printing process lives
------------------
     c_bands:  2 eigenvalues not converged
     ethr =  5.20E-10,  avg # of iterations = 11.6

     negative rho (up, down):  2.663E-04 0.000E+00

     add environment contribution to local potential

     total cpu time spent up to now is      375.3 secs

     total energy              =    -240.61550795 Ry
     estimated scf accuracy    <       0.00000009 Ry

     total charge of GC-SCF    =       1.24260267 e
     the Fermi energy          =      -3.90952066 eV
                        (error :       0.00552066 eV)
     electrostatic embedding   =      -0.48883723 Ry
     cavitation energy         =       0.01235683 Ry
     electrolyte free energy   =      -0.00705926 Ry
     correction to one-el term =     -35.99813487 Ry

     iteration # 27     ecut=    80.00 Ry     beta= 0.20
     Davidson diagonalization with overlap

---- Real-time Memory Report at c_bands before calling an iterative solver
           252 MiB given to the printing process from OS
           125 MiB allocation reported by mallinfo(arena+hblkhd)
        173099 MiB available memory on the node where the printing process lives
------------------
     c_bands:  1 eigenvalues not converged
     ethr =  1.90E-10,  avg # of iterations = 13.0

     negative rho (up, down):  2.692E-04 0.000E+00

     add environment contribution to local potential

     total cpu time spent up to now is      388.3 secs

     total energy              =    -240.61551667 Ry
     estimated scf accuracy    <       0.00000003 Ry

     total charge of GC-SCF    =       1.24223072 e
     the Fermi energy          =      -3.90624002 eV
                        (error :       0.00224002 eV)
     electrostatic embedding   =      -0.48659262 Ry
     cavitation energy         =       0.01235683 Ry
     electrolyte free energy   =      -0.00703374 Ry
     correction to one-el term =     -35.91847674 Ry

     iteration # 28     ecut=    80.00 Ry     beta= 0.20
     Davidson diagonalization with overlap

---- Real-time Memory Report at c_bands before calling an iterative solver
           252 MiB given to the printing process from OS
           125 MiB allocation reported by mallinfo(arena+hblkhd)
        173094 MiB available memory on the node where the printing process lives
------------------
     ethr =  5.76E-11,  avg # of iterations = 10.1

     negative rho (up, down):  2.716E-04 0.000E+00

     add environment contribution to local potential

     total cpu time spent up to now is      399.4 secs

     total energy              =    -240.61551818 Ry
     estimated scf accuracy    <       0.00000002 Ry

     total charge of GC-SCF    =       1.24069866 e
     the Fermi energy          =      -3.90570789 eV
                        (error :       0.00170789 eV)
     electrostatic embedding   =      -0.48626150 Ry
     cavitation energy         =       0.01235683 Ry
     electrolyte free energy   =      -0.00703028 Ry
     correction to one-el term =     -35.90673923 Ry

     iteration # 29     ecut=    80.00 Ry     beta= 0.20
     Davidson diagonalization with overlap

---- Real-time Memory Report at c_bands before calling an iterative solver
           252 MiB given to the printing process from OS
           125 MiB allocation reported by mallinfo(arena+hblkhd)
        173085 MiB available memory on the node where the printing process lives
------------------
     ethr =  3.47E-11,  avg # of iterations = 12.1

     negative rho (up, down):  2.605E-04 0.000E+00

     total cpu time spent up to now is      409.9 secs

     End of self-consistent calculation

          k = 0.0000 0.0000 0.0000 (128001 PWs)   bands (ev):

   -51.0437 -51.0437 -51.0343 -51.0342 -51.0342 -51.0342 -51.0278 -51.0277
   -50.3645 -50.3555 -50.3504 -50.3504 -50.3503 -50.3503 -50.3468 -50.3406
    -7.2928  -6.6601  -5.3663  -3.8583  -3.8583  -3.8583  -3.8583  -3.5779
    -3.5779  -3.5779  -3.5779  -3.4844  -3.4812  -2.7971  -2.7861  -1.2270
    -0.5608  -0.3001  -0.3001  -0.3000

     occupation numbers 
     1.0000   1.0000   1.0000   1.0000   1.0000   1.0000   1.0000   1.0000
     1.0000   1.0000   1.0000   1.0000   1.0000   1.0000   1.0000   1.0000
     1.0000   1.0000   1.0000   0.2054   0.2054   0.2054   0.2053   0.0000
     0.0000   0.0000   0.0000   0.0000   0.0000   0.0000   0.0000   0.0000
     0.0000   0.0000   0.0000   0.0000

          k = 0.0000 0.0964 0.0000 (128124 PWs)   bands (ev):

   -51.0436 -51.0435 -51.0345 -51.0344 -51.0341 -51.0341 -51.0279 -51.0279
   -50.3643 -50.3553 -50.3512 -50.3507 -50.3499 -50.3498 -50.3469 -50.3408
    -7.2636  -6.6310  -5.3363  -4.4121  -4.0137  -3.9836  -3.7249  -3.5672
    -3.5239  -3.4596  -3.4508  -3.3855  -3.2555  -2.8313  -2.7591  -1.2970
    -0.4903  -0.4692  -0.3828  -0.1857

     occupation numbers 
     1.0000   1.0000   1.0000   1.0000   1.0000   1.0000   1.0000   1.0000
     1.0000   1.0000   1.0000   1.0000   1.0000   1.0000   1.0000   1.0000
     1.0000   1.0000   1.0000   1.0000   0.9517   0.8256   0.0088   0.0000
     0.0000   0.0000   0.0000   0.0000   0.0000   0.0000   0.0000   0.0000
     0.0000   0.0000   0.0000   0.0000

          k = 0.0000 0.1928 0.0000 (128159 PWs)   bands (ev):

   -51.0430 -51.0429 -51.0350 -51.0350 -51.0337 -51.0337 -51.0283 -51.0282
   -50.3636 -50.3549 -50.3524 -50.3507 -50.3499 -50.3490 -50.3472 -50.3413
    -7.1760  -6.5439  -5.2468  -4.9441  -4.4192  -4.1174  -3.7278  -3.6276
    -3.4389  -3.3604  -3.3108  -3.2904  -2.9505  -2.7373  -2.6452  -1.4774
    -0.4069  -0.3434  -0.2181  -0.0801

     occupation numbers 
     1.0000   1.0000   1.0000   1.0000   1.0000   1.0000   1.0000   1.0000
     1.0000   1.0000   1.0000   1.0000   1.0000   1.0000   1.0000   1.0000
     1.0000   1.0000   1.0000   1.0000   1.0000   1.0783   0.0096   0.0003
     0.0000   0.0000   0.0000   0.0000   0.0000   0.0000   0.0000   0.0000
     0.0000   0.0000   0.0000   0.0000

          k = 0.0000 0.2893 0.0000 (128149 PWs)   bands (ev):

   -51.0421 -51.0421 -51.0359 -51.0358 -51.0331 -51.0331 -51.0289 -51.0288
   -50.3624 -50.3542 -50.3539 -50.3505 -50.3502 -50.3479 -50.3477 -50.3421
    -7.0300  -6.3990  -5.4303  -5.0989  -4.8560  -4.1668  -3.7640  -3.7118
    -3.6864  -3.2130  -3.1091  -3.0799  -2.9643  -2.4555  -2.3997  -1.7213
    -0.4419  -0.3894  -0.3678  -0.0455

     occupation numbers 
     1.0000   1.0000   1.0000   1.0000   1.0000   1.0000   1.0000   1.0000
     1.0000   1.0000   1.0000   1.0000   1.0000   1.0000   1.0000   1.0000
     1.0000   1.0000   1.0000   1.0000   1.0000   1.0473   0.0268   0.0059
     0.0025   0.0000   0.0000   0.0000   0.0000   0.0000   0.0000   0.0000
     0.0000   0.0000   0.0000   0.0000

          k = 0.0000 0.3857 0.0000 (128143 PWs)   bands (ev):

   -51.0410 -51.0409 -51.0370 -51.0370 -51.0323 -51.0323 -51.0297 -51.0296
   -50.3610 -50.3556 -50.3534 -50.3507 -50.3501 -50.3483 -50.3468 -50.3431
    -6.8256  -6.1968  -5.8640  -5.2630  -4.8949  -4.1646  -4.0101  -3.9035
    -3.6555  -3.2763  -3.0146  -2.8357  -2.5513  -2.3610  -2.1903  -1.9965
    -0.9690  -0.9561  -0.2628   0.1343

     occupation numbers 
     1.0000   1.0000   1.0000   1.0000   1.0000   1.0000   1.0000   1.0000
     1.0000   1.0000   1.0000   1.0000   1.0000   1.0000   1.0000   1.0000
     1.0000   1.0000   1.0000   1.0000   1.0000   1.0487   0.9388   0.3995
     0.0008   0.0000   0.0000   0.0000   0.0000   0.0000   0.0000   0.0000
     0.0000   0.0000   0.0000   0.0000

          k = 0.0000 0.4821 0.0000 (128153 PWs)   bands (ev):

   -51.0397 -51.0396 -51.0383 -51.0383 -51.0315 -51.0314 -51.0305 -51.0305
   -50.3593 -50.3575 -50.3525 -50.3515 -50.3495 -50.3489 -50.3455 -50.3442
    -6.5628  -6.2420  -5.9386  -5.6261  -4.6389  -4.3388  -4.1153  -4.0253
    -3.5602  -3.4311  -2.7787  -2.5666  -2.5359  -2.2829  -2.0762  -1.8503
    -1.5446  -1.4371  -0.0920   0.1353

     occupation numbers 
     1.0000   1.0000   1.0000   1.0000   1.0000   1.0000   1.0000   1.0000
     1.0000   1.0000   1.0000   1.0000   1.0000   1.0000   1.0000   1.0000
     1.0000   1.0000   1.0000   1.0000   1.0000   1.0006   1.0792   0.9891
     0.0000   0.0000   0.0000   0.0000   0.0000   0.0000   0.0000   0.0000
     0.0000   0.0000   0.0000   0.0000

          k = 0.0909 0.0321 0.0000 (128124 PWs)   bands (ev):

   -51.0436 -51.0435 -51.0345 -51.0344 -51.0341 -51.0341 -51.0279 -51.0279
   -50.3643 -50.3553 -50.3512 -50.3507 -50.3499 -50.3498 -50.3469 -50.3408
    -7.2636  -6.6310  -5.3363  -4.4121  -4.0137  -3.9836  -3.7249  -3.5672
    -3.5239  -3.4596  -3.4508  -3.3855  -3.2555  -2.8313  -2.7591  -1.2970
    -0.4903  -0.4692  -0.3828  -0.1857

     occupation numbers 
     1.0000   1.0000   1.0000   1.0000   1.0000   1.0000   1.0000   1.0000
     1.0000   1.0000   1.0000   1.0000   1.0000   1.0000   1.0000   1.0000
     1.0000   1.0000   1.0000   1.0000   0.9516   0.8256   0.0088   0.0000
     0.0000   0.0000   0.0000   0.0000   0.0000   0.0000   0.0000   0.0000
     0.0000   0.0000   0.0000   0.0000

          k = 0.0909 0.1286 0.0000 (128153 PWs)   bands (ev):

   -51.0433 -51.0433 -51.0344 -51.0343 -51.0343 -51.0343 -51.0280 -51.0279
   -50.3639 -50.3552 -50.3516 -50.3516 -50.3494 -50.3494 -50.3469 -50.3410
    -7.2150  -6.5829  -5.2874  -4.5686  -4.5686  -4.0966  -4.0966  -3.4017
    -3.3805  -3.3418  -3.3417  -3.0395  -3.0395  -2.6956  -2.6824  -1.1238
    -0.5697  -0.4489  -0.4489  -0.2576

     occupation numbers 
     1.0000   1.0000   1.0000   1.0000   1.0000   1.0000   1.0000   1.0000
     1.0000   1.0000   1.0000   1.0000   1.0000   1.0000   1.0000   1.0000
     1.0000   1.0000   1.0000   1.0000   1.0000   1.0833   1.0833   0.0000
     0.0000   0.0000   0.0000   0.0000   0.0000   0.0000   0.0000   0.0000
     0.0000   0.0000   0.0000   0.0000

          k = 0.0909 0.2250 0.0000 (128141 PWs)   bands (ev):

   -51.0427 -51.0426 -51.0350 -51.0349 -51.0340 -51.0340 -51.0283 -51.0283
   -50.3631 -50.3548 -50.3528 -50.3516 -50.3494 -50.3487 -50.3470 -50.3415
    -7.1079  -6.4768  -5.1791  -5.0868  -4.6654  -4.5393  -4.1559  -3.4746
    -3.3209  -3.2932  -3.2614  -2.7659  -2.6321  -2.5638  -2.5562  -1.1280
    -0.4844  -0.3408  -0.3262  -0.2478

     occupation numbers 
     1.0000   1.0000   1.0000   1.0000   1.0000   1.0000   1.0000   1.0000
     1.0000   1.0000   1.0000   1.0000   1.0000   1.0000   1.0000   1.0000
     1.0000   1.0000   1.0000   1.0000   1.0000   1.0000   1.0547   0.0000
     0.0000   0.0000   0.0000   0.0000   0.0000   0.0000   0.0000   0.0000
     0.0000   0.0000   0.0000   0.0000

          k = 0.0909 0.3214 0.0000 (128182 PWs)   bands (ev):

   -51.0418 -51.0417 -51.0359 -51.0359 -51.0335 -51.0334 -51.0289 -51.0288
   -50.3619 -50.3543 -50.3541 -50.3514 -50.3498 -50.3477 -50.3474 -50.3423
    -6.9422  -6.3127  -5.5559  -5.0127  -4.9688  -4.7050  -4.1625  -3.7594
    -3.3407  -3.1459  -3.1288  -2.6819  -2.4376  -2.3410  -2.3214  -1.3613
    -0.8506  -0.5785  -0.2415  -0.1639

     occupation numbers 
     1.0000   1.0000   1.0000   1.0000   1.0000   1.0000   1.0000   1.0000
     1.0000   1.0000   1.0000   1.0000   1.0000   1.0000   1.0000   1.0000
     1.0000   1.0000   1.0000   1.0000   1.0000   1.0000   1.0502   0.0237
     0.0000   0.0000   0.0000   0.0000   0.0000   0.0000   0.0000   0.0000
     0.0000   0.0000   0.0000   0.0000

          k = 0.0909 0.4178 0.0000 (128184 PWs)   bands (ev):

   -51.0406 -51.0406 -51.0371 -51.0370 -51.0327 -51.0327 -51.0296 -51.0296
   -50.3603 -50.3560 -50.3533 -50.3510 -50.3504 -50.3479 -50.3466 -50.3434
    -6.7179  -6.0915  -5.9710  -5.3622  -4.7909  -4.6899  -4.1186  -4.0904
    -3.4082  -2.9968  -2.9163  -2.7982  -2.3716  -2.0604  -2.0504  -1.7408
    -1.5083  -1.0919  -0.1813  -0.0078

     occupation numbers 
     1.0000   1.0000   1.0000   1.0000   1.0000   1.0000   1.0000   1.0000
     1.0000   1.0000   1.0000   1.0000   1.0000   1.0000   1.0000   1.0000
     1.0000   1.0000   1.0000   1.0000   1.0000   1.0000   1.0777   1.0829
     0.0000   0.0000   0.0000   0.0000   0.0000   0.0000   0.0000   0.0000
     0.0000   0.0000   0.0000   0.0000

          k = 0.0909 0.5143 0.0000 (128204 PWs)   bands (ev):

   -51.0393 -51.0393 -51.0384 -51.0383 -51.0318 -51.0318 -51.0305 -51.0304
   -50.3586 -50.3578 -50.3524 -50.3513 -50.3504 -50.3484 -50.3454 -50.3446
    -6.4350  -6.3298  -5.8143  -5.7088  -4.6234  -4.5186  -4.4121  -4.0269
    -3.4885  -2.9427  -2.8157  -2.6724  -2.5815  -2.1643  -2.1140  -1.6852
    -1.6449  -1.5509  -0.2257   0.0374

     occupation numbers 
     1.0000   1.0000   1.0000   1.0000   1.0000   1.0000   1.0000   1.0000
     1.0000   1.0000   1.0000   1.0000   1.0000   1.0000   1.0000   1.0000
     1.0000   1.0000   1.0000   1.0000   1.0000   1.0000   1.0000   0.9940
     0.0000   0.0000   0.0000   0.0000   0.0000   0.0000   0.0000   0.0000
     0.0000   0.0000   0.0000   0.0000

          k = 0.0909-0.4500 0.0000 (128255 PWs)   bands (ev):

   -51.0397 -51.0397 -51.0380 -51.0379 -51.0314 -51.0314 -51.0309 -51.0309
   -50.3596 -50.3567 -50.3522 -50.3515 -50.3497 -50.3490 -50.3460 -50.3442
    -6.6310  -6.0942  -6.0034  -5.4835  -4.6990  -4.5093  -4.2053  -3.8911
    -3.5559  -3.0901  -2.8275  -2.6539  -2.6044  -2.5777  -2.4372  -1.9395
    -1.2477  -1.2090  -0.2494  -0.0194

     occupation numbers 
     1.0000   1.0000   1.0000   1.0000   1.0000   1.0000   1.0000   1.0000
     1.0000   1.0000   1.0000   1.0000   1.0000   1.0000   1.0000   1.0000
     1.0000   1.0000   1.0000   1.0000   1.0000   1.0000   1.0245   0.3390
     0.0000   0.0000   0.0000   0.0000   0.0000   0.0000   0.0000   0.0000
     0.0000   0.0000   0.0000   0.0000

          k = 0.0909-0.3536 0.0000 (128248 PWs)   bands (ev):

   -51.0410 -51.0409 -51.0367 -51.0366 -51.0323 -51.0323 -51.0300 -51.0300
   -50.3612 -50.3549 -50.3532 -50.3508 -50.3495 -50.3489 -50.3473 -50.3431
    -6.8741  -6.2432  -5.6962  -5.1034  -4.9388  -4.3529  -3.8709  -3.7158
    -3.5944  -3.2489  -3.0999  -3.0537  -2.9555  -2.3657  -2.3090  -2.2543
    -0.7802  -0.7470  -0.2436  -0.1423

     occupation numbers 
     1.0000   1.0000   1.0000   1.0000   1.0000   1.0000   1.0000   1.0000
     1.0000   1.0000   1.0000   1.0000   1.0000   1.0000   1.0000   1.0000
     1.0000   1.0000   1.0000   1.0000   1.0000   1.0004   0.2521   0.0066
     0.0001   0.0000   0.0000   0.0000   0.0000   0.0000   0.0000   0.0000
     0.0000   0.0000   0.0000   0.0000

          k = 0.0909-0.2571 0.0000 (128274 PWs)   bands (ev):

   -51.0421 -51.0420 -51.0356 -51.0355 -51.0331 -51.0331 -51.0292 -51.0291
   -50.3626 -50.3540 -50.3532 -50.3503 -50.3499 -50.3486 -50.3482 -50.3421
    -7.0590  -6.4266  -5.2433  -5.1251  -4.6828  -4.1613  -3.5977  -3.5753
    -3.5586  -3.5079  -3.2852  -3.2813  -3.2371  -2.4941  -2.4457  -2.1040
    -0.3921  -0.2818  -0.2795  -0.2015

     occupation numbers 
     1.0000   1.0000   1.0000   1.0000   1.0000   1.0000   1.0000   1.0000
     1.0000   1.0000   1.0000   1.0000   1.0000   1.0000   1.0000   1.0000
     1.0000   1.0000   1.0000   1.0000   1.0000   1.0510   0.0001   0.0000
     0.0000   0.0000   0.0000   0.0000   0.0000   0.0000   0.0000   0.0000
     0.0000   0.0000   0.0000   0.0000

          k = 0.0909-0.1607 0.0000 (128233 PWs)   bands (ev):

   -51.0429 -51.0429 -51.0348 -51.0347 -51.0338 -51.0338 -51.0285 -51.0285
   -50.3636 -50.3547 -50.3517 -50.3502 -50.3501 -50.3497 -50.3476 -50.3414
    -7.1855  -6.5526  -5.2546  -4.7396  -4.2396  -3.9458  -3.9144  -3.6275
    -3.4805  -3.3672  -3.3592  -3.3588  -3.2779  -2.8652  -2.6583  -1.8272
    -0.4243  -0.3955  -0.1185  -0.0892

     occupation numbers 
     1.0000   1.0000   1.0000   1.0000   1.0000   1.0000   1.0000   1.0000
     1.0000   1.0000   1.0000   1.0000   1.0000   1.0000   1.0000   1.0000
     1.0000   1.0000   1.0000   1.0000   1.0115   0.6271   0.4553   0.0003
     0.0000   0.0000   0.0000   0.0000   0.0000   0.0000   0.0000   0.0000
     0.0000   0.0000   0.0000   0.0000

          k = 0.0909-0.0643 0.0000 (128178 PWs)   bands (ev):

   -51.0434 -51.0434 -51.0343 -51.0342 -51.0342 -51.0342 -51.0281 -51.0280
   -50.3642 -50.3552 -50.3506 -50.3506 -50.3502 -50.3502 -50.3472 -50.3409
    -7.2537  -6.6208  -5.3253  -4.1944  -4.1944  -3.8182  -3.8181  -3.7241
    -3.4392  -3.4112  -3.4111  -3.3916  -3.3916  -3.0431  -2.7467  -1.5494
    -0.4699  -0.4699  -0.2192  -0.1728

     occupation numbers 
     1.0000   1.0000   1.0000   1.0000   1.0000   1.0000   1.0000   1.0000
     1.0000   1.0000   1.0000   1.0000   1.0000   1.0000   1.0000   1.0000
     1.0000   1.0000   1.0000   1.0301   1.0301   0.0963   0.0963   0.0086
     0.0000   0.0000   0.0000   0.0000   0.0000   0.0000   0.0000   0.0000
     0.0000   0.0000   0.0000   0.0000

          k = 0.1818 0.0643 0.0000 (128159 PWs)   bands (ev):

   -51.0430 -51.0429 -51.0350 -51.0350 -51.0337 -51.0337 -51.0283 -51.0282
   -50.3636 -50.3549 -50.3524 -50.3507 -50.3499 -50.3490 -50.3472 -50.3413
    -7.1760  -6.5439  -5.2468  -4.9441  -4.4192  -4.1173  -3.7278  -3.6276
    -3.4389  -3.3604  -3.3108  -3.2904  -2.9505  -2.7373  -2.6452  -1.4774
    -0.4069  -0.3434  -0.2181  -0.0801

     occupation numbers 
     1.0000   1.0000   1.0000   1.0000   1.0000   1.0000   1.0000   1.0000
     1.0000   1.0000   1.0000   1.0000   1.0000   1.0000   1.0000   1.0000
     1.0000   1.0000   1.0000   1.0000   1.0000   1.0783   0.0096   0.0003
     0.0000   0.0000   0.0000   0.0000   0.0000   0.0000   0.0000   0.0000
     0.0000   0.0000   0.0000   0.0000

          k = 0.1818 0.1607 0.0000 (128141 PWs)   bands (ev):

   -51.0427 -51.0426 -51.0350 -51.0349 -51.0340 -51.0340 -51.0283 -51.0283
   -50.3631 -50.3548 -50.3528 -50.3516 -50.3494 -50.3487 -50.3470 -50.3415
    -7.1079  -6.4768  -5.1791  -5.0868  -4.6654  -4.5394  -4.1559  -3.4746
    -3.3209  -3.2932  -3.2614  -2.7659  -2.6321  -2.5638  -2.5562  -1.1280
    -0.4844  -0.3408  -0.3262  -0.2478

     occupation numbers 
     1.0000   1.0000   1.0000   1.0000   1.0000   1.0000   1.0000   1.0000
     1.0000   1.0000   1.0000   1.0000   1.0000   1.0000   1.0000   1.0000
     1.0000   1.0000   1.0000   1.0000   1.0000   1.0000   1.0547   0.0000
     0.0000   0.0000   0.0000   0.0000   0.0000   0.0000   0.0000   0.0000
     0.0000   0.0000   0.0000   0.0000

          k = 0.1818 0.2571 0.0000 (128129 PWs)   bands (ev):

   -51.0420 -51.0420 -51.0348 -51.0347 -51.0346 -51.0346 -51.0286 -51.0285
   -50.3622 -50.3543 -50.3529 -50.3529 -50.3488 -50.3487 -50.3471 -50.3421
    -6.9810  -6.3514  -5.1695  -5.1695  -5.0521  -4.6015  -4.6015  -3.4647
    -3.4647  -3.1672  -3.0690  -2.3912  -2.3716  -2.3493  -2.3492  -0.8353
    -0.8144  -0.7032  -0.4595  -0.4588

     occupation numbers 
     1.0000   1.0000   1.0000   1.0000   1.0000   1.0000   1.0000   1.0000
     1.0000   1.0000   1.0000   1.0000   1.0000   1.0000   1.0000   1.0000
     1.0000   1.0000   1.0000   1.0000   1.0000   1.0000   1.0000   0.0000
     0.0000   0.0000   0.0000   0.0000   0.0000   0.0000   0.0000   0.0000
     0.0000   0.0000   0.0000   0.0000

          k = 0.1818 0.3536 0.0000 (128197 PWs)   bands (ev):

   -51.0411 -51.0410 -51.0356 -51.0356 -51.0341 -51.0341 -51.0291 -51.0291
   -50.3609 -50.3544 -50.3537 -50.3526 -50.3492 -50.3479 -50.3473 -50.3430
    -6.7953  -6.1679  -5.6216  -5.1940  -5.0225  -4.8671  -4.6074  -3.7780
    -3.4089  -2.9868  -2.9176  -2.2451  -2.2129  -2.1505  -2.1012  -1.5055
    -1.2787  -0.6545  -0.6193  -0.5218

     occupation numbers 
     1.0000   1.0000   1.0000   1.0000   1.0000   1.0000   1.0000   1.0000
     1.0000   1.0000   1.0000   1.0000   1.0000   1.0000   1.0000   1.0000
     1.0000   1.0000   1.0000   1.0000   1.0000   1.0000   1.0000   0.0384
     0.0000   0.0000   0.0000   0.0000   0.0000   0.0000   0.0000   0.0000
     0.0000   0.0000   0.0000   0.0000

          k = 0.1818 0.4500 0.0000 (128249 PWs)   bands (ev):

   -51.0399 -51.0399 -51.0368 -51.0368 -51.0334 -51.0334 -51.0299 -51.0298
   -50.3593 -50.3560 -50.3529 -50.3522 -50.3499 -50.3477 -50.3468 -50.3441
    -6.5506  -6.0183  -5.9271  -5.4020  -5.1622  -4.6273  -4.5590  -4.1124
    -3.3074  -2.8756  -2.7609  -2.3389  -2.3059  -2.1381  -1.8670  -1.8344
    -1.8288  -1.1537  -0.6164  -0.2876

     occupation numbers 
     1.0000   1.0000   1.0000   1.0000   1.0000   1.0000   1.0000   1.0000
     1.0000   1.0000   1.0000   1.0000   1.0000   1.0000   1.0000   1.0000
     1.0000   1.0000   1.0000   1.0000   1.0000   1.0000   1.0000   1.0803
     0.0000   0.0000   0.0000   0.0000   0.0000   0.0000   0.0000   0.0000
     0.0000   0.0000   0.0000   0.0000

          k = 0.1818 0.5464 0.0000 (128326 PWs)   bands (ev):

   -51.0386 -51.0386 -51.0381 -51.0381 -51.0325 -51.0325 -51.0308 -51.0307
   -50.3578 -50.3575 -50.3521 -50.3515 -50.3508 -50.3482 -50.3457 -50.3454
    -6.3580  -6.2471  -5.7324  -5.6304  -5.0763  -4.4582  -4.4258  -4.3384
    -3.1609  -2.9050  -2.7567  -2.5731  -2.5103  -2.4466  -2.4072  -1.5893
    -1.5413  -1.4441  -0.5531  -0.1241

     occupation numbers 
     1.0000   1.0000   1.0000   1.0000   1.0000   1.0000   1.0000   1.0000
     1.0000   1.0000   1.0000   1.0000   1.0000   1.0000   1.0000   1.0000
     1.0000   1.0000   1.0000   1.0000   1.0000   1.0000   1.0000   1.0006
     0.0000   0.0000   0.0000   0.0000   0.0000   0.0000   0.0000   0.0000
     0.0000   0.0000   0.0000   0.0000

          k = 0.1818-0.4178 0.0000 (128335 PWs)   bands (ev):

   -51.0394 -51.0394 -51.0373 -51.0373 -51.0317 -51.0317 -51.0316 -51.0315
   -50.3594 -50.3557 -50.3517 -50.3513 -50.3507 -50.3488 -50.3468 -50.3445
    -6.6400  -6.0094  -5.8855  -5.2805  -4.9386  -4.6991  -4.3076  -4.0118
    -3.2808  -2.9863  -2.9704  -2.8600  -2.8181  -2.6646  -2.2871  -1.9530
    -1.2451  -0.9828  -0.5094   0.0075

     occupation numbers 
     1.0000   1.0000   1.0000   1.0000   1.0000   1.0000   1.0000   1.0000
     1.0000   1.0000   1.0000   1.0000   1.0000   1.0000   1.0000   1.0000
     1.0000   1.0000   1.0000   1.0000   1.0000   1.0000   1.0017   0.9448
     0.0000   0.0000   0.0000   0.0000   0.0000   0.0000   0.0000   0.0000
     0.0000   0.0000   0.0000   0.0000

          k = 0.1818-0.3214 0.0000 (128355 PWs)   bands (ev):

   -51.0407 -51.0406 -51.0361 -51.0360 -51.0327 -51.0326 -51.0306 -51.0306
   -50.3610 -50.3538 -50.3527 -50.3506 -50.3498 -50.3493 -50.3482 -50.3434
    -6.8638  -6.2310  -5.4668  -4.9226  -4.8827  -4.7519  -4.1098  -3.7429
    -3.6724  -3.3384  -3.0330  -2.9701  -2.8804  -2.7380  -2.2424  -2.2177
    -0.9435  -0.4964  -0.4684   0.0197

     occupation numbers 
     1.0000   1.0000   1.0000   1.0000   1.0000   1.0000   1.0000   1.0000
     1.0000   1.0000   1.0000   1.0000   1.0000   1.0000   1.0000   1.0000
     1.0000   1.0000   1.0000   1.0000   1.0000   1.0000   1.0811   0.0150
     0.0015   0.0000   0.0000   0.0000   0.0000   0.0000   0.0000   0.0000
     0.0000   0.0000   0.0000   0.0000

          k = 0.1818-0.2250 0.0000 (128288 PWs)   bands (ev):

   -51.0417 -51.0417 -51.0350 -51.0350 -51.0335 -51.0335 -51.0297 -51.0297
   -50.3622 -50.3536 -50.3522 -50.3502 -50.3497 -50.3496 -50.3490 -50.3425
    -7.0293  -6.3958  -5.0913  -4.9939  -4.5200  -4.4479  -4.1401  -3.8684
    -3.6984  -3.3764  -3.2008  -3.0746  -2.9798  -2.4665  -2.4571  -2.4567
    -0.6394  -0.4919  -0.2261   0.0191

     occupation numbers 
     1.0000   1.0000   1.0000   1.0000   1.0000   1.0000   1.0000   1.0000
     1.0000   1.0000   1.0000   1.0000   1.0000   1.0000   1.0000   1.0000
     1.0000   1.0000   1.0000   1.0000   1.0000   1.0000   1.0655   0.2424
     0.0038   0.0000   0.0000   0.0000   0.0000   0.0000   0.0000   0.0000
     0.0000   0.0000   0.0000   0.0000

          k = 0.1818-0.1286 0.0000 (128250 PWs)   bands (ev):

   -51.0425 -51.0424 -51.0343 -51.0342 -51.0342 -51.0342 -51.0290 -51.0290
   -50.3631 -50.3543 -50.3508 -50.3508 -50.3500 -50.3500 -50.3482 -50.3418
    -7.1366  -6.5032  -5.2025  -4.4720  -4.4720  -4.2484  -3.9995  -3.9995
    -3.5885  -3.3135  -3.2362  -3.2361  -2.9458  -2.9457  -2.5954  -2.1606
    -0.4727  -0.4727  -0.3413  -0.0279

     occupation numbers 
     1.0000   1.0000   1.0000   1.0000   1.0000   1.0000   1.0000   1.0000
     1.0000   1.0000   1.0000   1.0000   1.0000   1.0000   1.0000   1.0000
     1.0000   1.0000   1.0000   1.0000   1.0000   1.0093   0.8971   0.8970
     0.0001   0.0000   0.0000   0.0000   0.0000   0.0000   0.0000   0.0000
     0.0000   0.0000   0.0000   0.0000

          k = 0.1818-0.0321 0.0000 (128233 PWs)   bands (ev):

   -51.0429 -51.0429 -51.0348 -51.0347 -51.0338 -51.0338 -51.0285 -51.0285
   -50.3636 -50.3547 -50.3517 -50.3502 -50.3501 -50.3497 -50.3476 -50.3414
    -7.1855  -6.5526  -5.2546  -4.7396  -4.2396  -3.9458  -3.9144  -3.6275
    -3.4805  -3.3672  -3.3592  -3.3588  -3.2779  -2.8652  -2.6583  -1.8272
    -0.4243  -0.3955  -0.1185  -0.0892

     occupation numbers 
     1.0000   1.0000   1.0000   1.0000   1.0000   1.0000   1.0000   1.0000
     1.0000   1.0000   1.0000   1.0000   1.0000   1.0000   1.0000   1.0000
     1.0000   1.0000   1.0000   1.0000   1.0115   0.6271   0.4553   0.0003
     0.0000   0.0000   0.0000   0.0000   0.0000   0.0000   0.0000   0.0000
     0.0000   0.0000   0.0000   0.0000

          k = 0.2727 0.0964 0.0000 (128149 PWs)   bands (ev):

   -51.0421 -51.0421 -51.0359 -51.0358 -51.0331 -51.0331 -51.0289 -51.0288
   -50.3624 -50.3542 -50.3539 -50.3505 -50.3502 -50.3479 -50.3477 -50.3421
    -7.0300  -6.3990  -5.4303  -5.0989  -4.8560  -4.1668  -3.7640  -3.7118
    -3.6864  -3.2130  -3.1091  -3.0799  -2.9643  -2.4555  -2.3997  -1.7213
    -0.4419  -0.3894  -0.3678  -0.0455

     occupation numbers 
     1.0000   1.0000   1.0000   1.0000   1.0000   1.0000   1.0000   1.0000
     1.0000   1.0000   1.0000   1.0000   1.0000   1.0000   1.0000   1.0000
     1.0000   1.0000   1.0000   1.0000   1.0000   1.0473   0.0268   0.0059
     0.0025   0.0000   0.0000   0.0000   0.0000   0.0000   0.0000   0.0000
     0.0000   0.0000   0.0000   0.0000

          k = 0.2727 0.1928 0.0000 (128182 PWs)   bands (ev):

   -51.0418 -51.0417 -51.0359 -51.0359 -51.0335 -51.0334 -51.0289 -51.0288
   -50.3619 -50.3543 -50.3541 -50.3514 -50.3498 -50.3477 -50.3474 -50.3423
    -6.9422  -6.3127  -5.5559  -5.0127  -4.9688  -4.7050  -4.1625  -3.7594
    -3.3407  -3.1459  -3.1288  -2.6819  -2.4376  -2.3410  -2.3214  -1.3613
    -0.8506  -0.5785  -0.2415  -0.1639

     occupation numbers 
     1.0000   1.0000   1.0000   1.0000   1.0000   1.0000   1.0000   1.0000
     1.0000   1.0000   1.0000   1.0000   1.0000   1.0000   1.0000   1.0000
     1.0000   1.0000   1.0000   1.0000   1.0000   1.0000   1.0502   0.0237
     0.0000   0.0000   0.0000   0.0000   0.0000   0.0000   0.0000   0.0000
     0.0000   0.0000   0.0000   0.0000

          k = 0.2727 0.2893 0.0000 (128197 PWs)   bands (ev):

   -51.0411 -51.0410 -51.0356 -51.0356 -51.0341 -51.0341 -51.0291 -51.0291
   -50.3609 -50.3544 -50.3537 -50.3526 -50.3492 -50.3479 -50.3473 -50.3430
    -6.7953  -6.1679  -5.6216  -5.1940  -5.0225  -4.8671  -4.6074  -3.7780
    -3.4089  -2.9868  -2.9176  -2.2451  -2.2129  -2.1505  -2.1012  -1.5055
    -1.2787  -0.6545  -0.6193  -0.5218

     occupation numbers 
     1.0000   1.0000   1.0000   1.0000   1.0000   1.0000   1.0000   1.0000
     1.0000   1.0000   1.0000   1.0000   1.0000   1.0000   1.0000   1.0000
     1.0000   1.0000   1.0000   1.0000   1.0000   1.0000   1.0000   0.0384
     0.0000   0.0000   0.0000   0.0000   0.0000   0.0000   0.0000   0.0000
     0.0000   0.0000   0.0000   0.0000

          k = 0.2727 0.3857 0.0000 (128238 PWs)   bands (ev):

   -51.0401 -51.0401 -51.0352 -51.0351 -51.0350 -51.0350 -51.0297 -51.0296
   -50.3595 -50.3541 -50.3541 -50.3531 -50.3483 -50.3483 -50.3475 -50.3439
    -6.5890  -5.9647  -5.6287  -5.6287  -5.0184  -5.0184  -4.6637  -3.7425
    -3.7425  -2.7914  -2.5500  -2.1688  -2.0752  -2.0751  -1.8842  -1.8540
    -1.7593  -1.0577  -0.6619  -0.6619

     occupation numbers 
     1.0000   1.0000   1.0000   1.0000   1.0000   1.0000   1.0000   1.0000
     1.0000   1.0000   1.0000   1.0000   1.0000   1.0000   1.0000   1.0000
     1.0000   1.0000   1.0000   1.0000   1.0000   1.0000   1.0000   0.0148
     0.0148   0.0000   0.0000   0.0000   0.0000   0.0000   0.0000   0.0000
     0.0000   0.0000   0.0000   0.0000

          k = 0.2727 0.4821 0.0000 (128305 PWs)   bands (ev):

   -51.0390 -51.0389 -51.0363 -51.0362 -51.0343 -51.0343 -51.0304 -51.0304
   -50.3579 -50.3557 -50.3535 -50.3524 -50.3491 -50.3478 -50.3473 -50.3451
    -6.3234  -6.0069  -5.7038  -5.5785  -5.3837  -4.9581  -4.4057  -4.0767
    -3.6538  -2.7907  -2.5530  -2.3566  -2.3038  -2.2611  -1.9077  -1.8057
    -1.5427  -1.1542  -1.1412  -0.5986

     occupation numbers 
     1.0000   1.0000   1.0000   1.0000   1.0000   1.0000   1.0000   1.0000
     1.0000   1.0000   1.0000   1.0000   1.0000   1.0000   1.0000   1.0000
     1.0000   1.0000   1.0000   1.0000   1.0000   1.0000   1.0000   1.0777
     0.0008   0.0000   0.0000   0.0000   0.0000   0.0000   0.0000   0.0000
     0.0000   0.0000   0.0000   0.0000

          k = 0.2727 0.5785 0.0000 (128369 PWs)   bands (ev):

   -51.0377 -51.0377 -51.0375 -51.0375 -51.0334 -51.0334 -51.0313 -51.0313
   -50.3573 -50.3561 -50.3528 -50.3516 -50.3500 -50.3483 -50.3465 -50.3463
    -6.3276  -5.9986  -5.6975  -5.4725  -5.3867  -4.8430  -4.3805  -4.0995
    -3.5129  -3.3573  -2.8810  -2.5102  -2.2961  -2.2679  -2.1488  -1.7091
    -1.5525  -1.1272  -0.8846  -0.4646

     occupation numbers 
     1.0000   1.0000   1.0000   1.0000   1.0000   1.0000   1.0000   1.0000
     1.0000   1.0000   1.0000   1.0000   1.0000   1.0000   1.0000   1.0000
     1.0000   1.0000   1.0000   1.0000   1.0000   1.0000   1.0001   1.0832
     0.0000   0.0000   0.0000   0.0000   0.0000   0.0000   0.0000   0.0000
     0.0000   0.0000   0.0000   0.0000

[...]

   -51.0443 -51.0443 -51.0417 -51.0417 -51.0399 -51.0398 -51.0396 -51.0395
   -50.3642 -50.3593 -50.3589 -50.3565 -50.3563 -50.3556 -50.3554 -50.3522
    -6.4807  -5.8463  -5.6265  -5.2809  -4.9881  -4.6909  -4.5281  -4.3997
    -3.8478  -3.6417  -3.4529  -2.7271  -2.6351  -1.8454  -1.7640  -1.7614
    -1.7453  -0.6742  -0.4387  -0.2895

     occupation numbers 
     1.0000   1.0000   1.0000   1.0000   1.0000   1.0000   1.0000   1.0000
     1.0000   1.0000   1.0000   1.0000   1.0000   1.0000   1.0000   1.0000
     1.0000   1.0000   1.0000   1.0000   1.0000   1.0000   1.0000   1.0001
     0.1704   0.0005   0.0000   0.0000   0.0000   0.0000   0.0000   0.0000
     0.0000   0.0000   0.0000   0.0000

          k = 0.4545-0.1286 0.0000 (128342 PWs)   bands (ev):

   -51.0452 -51.0452 -51.0428 -51.0428 -51.0388 -51.0388 -51.0387 -51.0387
   -50.3651 -50.3605 -50.3580 -50.3572 -50.3571 -50.3550 -50.3542 -50.3514
    -6.5887  -5.9567  -5.6130  -5.3092  -5.0153  -4.6730  -4.6461  -3.8593
    -3.7638  -3.3632  -3.3279  -2.7590  -2.5194  -2.3107  -2.0934  -1.9013
    -1.4880  -0.6540  -0.6291  -0.2726

     occupation numbers 
     1.0000   1.0000   1.0000   1.0000   1.0000   1.0000   1.0000   1.0000
     1.0000   1.0000   1.0000   1.0000   1.0000   1.0000   1.0000   1.0000
     1.0000   1.0000   1.0000   1.0000   1.0000   1.0000   1.0000   0.2080
     0.0265   0.0000   0.0000   0.0000   0.0000   0.0000   0.0000   0.0000
     0.0000   0.0000   0.0000   0.0000

          k = 0.4545-0.0321 0.0000 (128335 PWs)   bands (ev):

   -51.0458 -51.0458 -51.0437 -51.0436 -51.0381 -51.0381 -51.0379 -51.0379
   -50.3656 -50.3618 -50.3580 -50.3575 -50.3568 -50.3550 -50.3530 -50.3507
    -6.6384  -6.0091  -5.8833  -5.2793  -4.9355  -4.7054  -4.3055  -4.0171
    -3.2775  -2.9831  -2.9767  -2.8572  -2.8263  -2.6629  -2.2937  -1.9634
    -1.2532  -0.9938  -0.5119  -0.0015

     occupation numbers 
     1.0000   1.0000   1.0000   1.0000   1.0000   1.0000   1.0000   1.0000
     1.0000   1.0000   1.0000   1.0000   1.0000   1.0000   1.0000   1.0000
     1.0000   1.0000   1.0000   1.0000   1.0000   1.0000   1.0018   0.9625
     0.0000   0.0000   0.0000   0.0000   0.0000   0.0000   0.0000   0.0000
     0.0000   0.0000   0.0000   0.0000

          k = 0.4545 0.0643 0.0000 (128255 PWs)   bands (ev):

   -51.0461 -51.0461 -51.0443 -51.0443 -51.0378 -51.0378 -51.0373 -51.0373
   -50.3657 -50.3629 -50.3584 -50.3577 -50.3559 -50.3552 -50.3522 -50.3504
    -6.6294  -6.0922  -6.0031  -5.4825  -4.7053  -4.5060  -4.2108  -3.8886
    -3.5524  -3.0875  -2.8355  -2.6509  -2.6100  -2.5768  -2.4443  -1.9500
    -1.2586  -1.2128  -0.2561  -0.0229

     occupation numbers 
     1.0000   1.0000   1.0000   1.0000   1.0000   1.0000   1.0000   1.0000
     1.0000   1.0000   1.0000   1.0000   1.0000   1.0000   1.0000   1.0000
     1.0000   1.0000   1.0000   1.0000   1.0000   1.0000   1.0220   0.3267
     0.0000   0.0000   0.0000   0.0000   0.0000   0.0000   0.0000   0.0000
     0.0000   0.0000   0.0000   0.0000

     the Fermi energy is    -3.9040 ev

!    total energy              =    -240.61556028 Ry
     total all-electron energy =      -240.615690 Ry
     estimated scf accuracy    <          7.5E-13 Ry

!    total charge of GC-SCF    =       1.24430642 e
     smearing contrib. (-TS)   =       0.00050664 Ry
     internal energy E=F+TS    =    -240.61606692 Ry

     The total energy is F=E-TS. E is the sum of the following terms:
     one-electron contribution =   -2411.51383258 Ry
     hartree contribution      =    1177.53294409 Ry
     xc contribution           =     -56.97256832 Ry
     ewald contribution        =    1085.65789632 Ry
     one-center paw contrib.   =       1.41098822 Ry
      -> PAW hartree energy AE =       7.38210594 Ry
      -> PAW hartree energy PS =      -7.15959109 Ry
      -> PAW xc energy AE      =      -3.47870566 Ry
      -> PAW xc energy PS      =       3.34433578 Ry
      -> total E_H with PAW    =    1177.75545894 Ry
      -> total E_XC with PAW   =     -57.10693820 Ry
     pot.stat. contrib. (-muN) =      -0.35703968 Ry
     electrostatic embedding   =      -0.48707376 Ry
     cavitation energy         =       0.01235683 Ry
     electrolyte free energy   =      -0.00706847 Ry
     correction to one-el term =     -35.89266958 Ry

     WARNING: you are using the parabolic pbc correction;
              the potential shift above must be added to 
              band and Fermi energies.

     convergence has been achieved in  17 iterations
     The dielectric solvent contribution to forces
     atom    1 type  1   force =     0.00000003    0.00000015   -0.03964908
     atom    2 type  1   force =    -0.00000000    0.00000000   -0.01852332
     atom    3 type  1   force =     0.00000003    0.00000005    0.01852164
     atom    4 type  1   force =     0.00000000    0.00000001    0.03965176
     atom    5 type  1   force =    -0.00000000   -0.00000015   -0.03965290
     atom    6 type  1   force =     0.00000000   -0.00000000   -0.01852194
     atom    7 type  1   force =     0.00000004   -0.00000001    0.01852235
     atom    8 type  1   force =    -0.00000000   -0.00000001    0.03964922
     atom    9 type  1   force =     0.00000000    0.00000015   -0.03965289
     atom   10 type  1   force =     0.00000000    0.00000000   -0.01852245
     atom   11 type  1   force =    -0.00000004    0.00000001    0.01852234
     atom   12 type  1   force =    -0.00000000    0.00000001    0.03964897
     atom   13 type  1   force =    -0.00000003   -0.00000015   -0.03964908
     atom   14 type  1   force =     0.00000000   -0.00000000   -0.01852333
     atom   15 type  1   force =    -0.00000003   -0.00000005    0.01852164
     atom   16 type  1   force =    -0.00000000   -0.00000001    0.03965035
 

     Forces acting on atoms (cartesian axes, Ry/au):

     atom    1 type  1   force =     0.00000027   -0.00000001   -0.00038545
     atom    2 type  1   force =     0.00000000    0.00000000   -0.00022490
     atom    3 type  1   force =    -0.00000032    0.00000025    0.00022347
     atom    4 type  1   force =     0.00000000    0.00000000    0.00038700
     atom    5 type  1   force =    -0.00000021   -0.00000015   -0.00038564
     atom    6 type  1   force =     0.00000000    0.00000000   -0.00022479
     atom    7 type  1   force =     0.00000030    0.00000002    0.00022433
     atom    8 type  1   force =     0.00000000    0.00000000    0.00038611
     atom    9 type  1   force =     0.00000021    0.00000015   -0.00038564
     atom   10 type  1   force =     0.00000000    0.00000000   -0.00022444
     atom   11 type  1   force =    -0.00000030   -0.00000002    0.00022433
     atom   12 type  1   force =     0.00000000    0.00000000    0.00038687
     atom   13 type  1   force =    -0.00000027    0.00000001   -0.00038545
     atom   14 type  1   force =     0.00000000    0.00000000   -0.00022513
     atom   15 type  1   force =     0.00000032   -0.00000025    0.00022347
     atom   16 type  1   force =     0.00000000    0.00000000    0.00038585
     The non-local contrib.  to forces
     atom    1 type  1   force =    -0.00000031    0.00000095   -0.08555300
     atom    2 type  1   force =     0.00000000    0.00000000    0.00250150
     atom    3 type  1   force =     0.00000081   -0.00000039   -0.00250082
     atom    4 type  1   force =     0.00000000    0.00000000    0.08554502
     atom    5 type  1   force =     0.00000047   -0.00000064   -0.08554444
     atom    6 type  1   force =     0.00000000    0.00000000    0.00249755
     atom    7 type  1   force =    -0.00000045   -0.00000007   -0.00250124
     atom    8 type  1   force =     0.00000000    0.00000000    0.08555169
     atom    9 type  1   force =    -0.00000047    0.00000064   -0.08554444
     atom   10 type  1   force =     0.00000000    0.00000000    0.00250001
     atom   11 type  1   force =     0.00000045    0.00000007   -0.00250124
     atom   12 type  1   force =     0.00000000    0.00000000    0.08555191
     atom   13 type  1   force =     0.00000031   -0.00000095   -0.08555300
     atom   14 type  1   force =     0.00000000    0.00000000    0.00250019
     atom   15 type  1   force =    -0.00000081    0.00000039   -0.00250082
     atom   16 type  1   force =     0.00000000    0.00000000    0.08554850
     The ionic contribution  to forces
     atom    1 type  1   force =     0.00000449    0.00000406   -9.03440920
     atom    2 type  1   force =    -0.00000006   -0.00000007   -3.02049660
     atom    3 type  1   force =    -0.00000224    0.00000487    3.02031263
     atom    4 type  1   force =    -0.00000005   -0.00000011    9.03412839
     atom    5 type  1   force =    -0.00000095   -0.00000449   -9.03411121
     atom    6 type  1   force =     0.00000007    0.00000008   -3.02024097
     atom    7 type  1   force =     0.00000469   -0.00000006    3.02045743
     atom    8 type  1   force =     0.00000004    0.00000012    9.03432930
     atom    9 type  1   force =     0.00000092    0.00000447   -9.03411100
     atom   10 type  1   force =    -0.00000001   -0.00000005   -3.02031997
     atom   11 type  1   force =    -0.00000474    0.00000004    3.02045753
     atom   12 type  1   force =    -0.00000001   -0.00000011    9.03436036
     atom   13 type  1   force =    -0.00000452   -0.00000407   -9.03440937
     atom   14 type  1   force =     0.00000011    0.00000009   -3.02050330
     atom   15 type  1   force =     0.00000219   -0.00000490    3.02031252
     atom   16 type  1   force =     0.00000007    0.00000014    9.03424347
     The local contribution  to forces
     atom    1 type  1   force =     0.00005167   -0.00001572    9.15922322
     atom    2 type  1   force =     0.00005791   -0.00002187    3.03629453
     atom    3 type  1   force =     0.00005694   -0.00001397   -3.03611210
     atom    4 type  1   force =     0.00005734   -0.00002303   -9.15893633
     atom    5 type  1   force =     0.00005585   -0.00000536    9.15892280
     atom    6 type  1   force =     0.00010286   -0.00001645    3.03604154
     atom    7 type  1   force =     0.00005188   -0.00000952   -3.03625490
     atom    8 type  1   force =     0.00010406   -0.00001409   -9.15914226
     atom    9 type  1   force =     0.00005536   -0.00001571    9.15891917
     atom   10 type  1   force =     0.00005867   -0.00002129    3.03611891
     atom   11 type  1   force =     0.00005987   -0.00000983   -3.03625612
     atom   12 type  1   force =     0.00005810   -0.00002245   -9.15917253
     atom   13 type  1   force =     0.00005954   -0.00000535    9.15922503
     atom   14 type  1   force =     0.00010362   -0.00001587    3.03630230
     atom   15 type  1   force =     0.00005481   -0.00000538   -3.03611028
     atom   16 type  1   force =     0.00010482   -0.00001293   -9.15905464
     The core correction contribution to forces
     atom    1 type  1   force =     0.00000000    0.00000000    0.00000000
     atom    2 type  1   force =     0.00000000    0.00000000    0.00000000
     atom    3 type  1   force =     0.00000000    0.00000000    0.00000000
     atom    4 type  1   force =     0.00000000    0.00000000    0.00000000
     atom    5 type  1   force =     0.00000000    0.00000000    0.00000000
     atom    6 type  1   force =     0.00000000    0.00000000    0.00000000
     atom    7 type  1   force =     0.00000000    0.00000000    0.00000000
     atom    8 type  1   force =     0.00000000    0.00000000    0.00000000
     atom    9 type  1   force =     0.00000000    0.00000000    0.00000000
     atom   10 type  1   force =     0.00000000    0.00000000    0.00000000
     atom   11 type  1   force =     0.00000000    0.00000000    0.00000000
     atom   12 type  1   force =     0.00000000    0.00000000    0.00000000
     atom   13 type  1   force =     0.00000000    0.00000000    0.00000000
     atom   14 type  1   force =     0.00000000    0.00000000    0.00000000
     atom   15 type  1   force =     0.00000000    0.00000000    0.00000000
     atom   16 type  1   force =     0.00000000    0.00000000    0.00000000
     The Hubbard contrib.    to forces
     atom    1 type  1   force =     0.00000000    0.00000000    0.00000000
     atom    2 type  1   force =     0.00000000    0.00000000    0.00000000
     atom    3 type  1   force =     0.00000000    0.00000000    0.00000000
     atom    4 type  1   force =     0.00000000    0.00000000    0.00000000
     atom    5 type  1   force =     0.00000000    0.00000000    0.00000000
     atom    6 type  1   force =     0.00000000    0.00000000    0.00000000
     atom    7 type  1   force =     0.00000000    0.00000000    0.00000000
     atom    8 type  1   force =     0.00000000    0.00000000    0.00000000
     atom    9 type  1   force =     0.00000000    0.00000000    0.00000000
     atom   10 type  1   force =     0.00000000    0.00000000    0.00000000
     atom   11 type  1   force =     0.00000000    0.00000000    0.00000000
     atom   12 type  1   force =     0.00000000    0.00000000    0.00000000
     atom   13 type  1   force =     0.00000000    0.00000000    0.00000000
     atom   14 type  1   force =     0.00000000    0.00000000    0.00000000
     atom   15 type  1   force =     0.00000000    0.00000000    0.00000000
     atom   16 type  1   force =     0.00000000    0.00000000    0.00000000
     The SCF correction term to forces
     atom    1 type  1   force =    -0.00000003    0.00000000    0.00000181
     atom    2 type  1   force =    -0.00000000   -0.00000000   -0.00000099
     atom    3 type  1   force =    -0.00000001    0.00000000    0.00000128
     atom    4 type  1   force =     0.00000000    0.00000000   -0.00000183
     atom    5 type  1   force =     0.00000001   -0.00000005    0.00000183
     atom    6 type  1   force =     0.00000000   -0.00000000   -0.00000096
     atom    7 type  1   force =    -0.00000001   -0.00000001    0.00000127
     atom    8 type  1   force =     0.00000000   -0.00000000   -0.00000181
     atom    9 type  1   force =    -0.00000001    0.00000005    0.00000183
     atom   10 type  1   force =    -0.00000000    0.00000000   -0.00000093
     atom   11 type  1   force =     0.00000001    0.00000001    0.00000127
     atom   12 type  1   force =     0.00000000    0.00000000   -0.00000182
     atom   13 type  1   force =     0.00000003   -0.00000000    0.00000181
     atom   14 type  1   force =     0.00000000   -0.00000000   -0.00000099
     atom   15 type  1   force =     0.00000001   -0.00000000    0.00000128
     atom   16 type  1   force =     0.00000000    0.00000000   -0.00000180

     Total force =     0.001263     Total SCF correction =     0.000006
     Energy error            =      7.4E-06 Ry
     Gradient error          =      3.9E-04 Ry/Bohr

     bfgs converged in  14 scf cycles and  13 bfgs steps
     (criteria: energy <  1.0E-05 Ry, force <  3.9E-04 Ry/Bohr)

     End of BFGS Geometry Optimization

     Final energy             =    -240.6155602772 Ry

     File ./Li/Lithium.bfgs deleted, as requested
Begin final coordinates

ATOMIC_POSITIONS (angstrom)
Li               0.9916120786        1.4024040798       20.0105008239
Li               1.9832882700        2.8047934300       22.3385951949
Li               0.9916604097        1.4023668072       24.7913432419
Li               1.9832882800        2.8047934500       27.1193319972
Li               0.0000278296        4.2072080092       20.0106520614
Li               0.9916443500        5.6095863900       22.3386956368
Li              -0.0000151437        4.2071644705       24.7913953018
Li               0.9916443300        5.6095863500       27.1194367373
Li               3.9665487904        1.4023784608       20.0106521214
Li               4.9582206700        2.8047934200       22.3386651426
Li               3.9665917537        1.4024219695       24.7913953218
Li               4.9582206800        2.8047934400       27.1194480889
Li               2.9749645414        4.2071823902       20.0105007939
Li               3.9665767500        5.6095863800       22.3385933903
Li               2.9749162003        4.2072196328       24.7913432119
Li               3.9665767300        5.6095863300       27.1193949908
End final coordinates



     Writing all to output data dir ./Li/Lithium.save/ :
     XML data file
     init_run     :      4.36s CPU      5.00s WALL (       1 calls)
     electrons    :   1921.37s CPU   1940.71s WALL (      14 calls)
     update_pot   :      1.10s CPU      1.15s WALL (      13 calls)
     forces       :     64.67s CPU     64.94s WALL (      14 calls)

     Called by init_run:
     wfcinit      :      1.42s CPU      1.57s WALL (       1 calls)
     wfcinit:wfcr :      1.36s CPU      1.50s WALL (      31 calls)
     potinit      :      0.10s CPU      0.13s WALL (       1 calls)
     hinit0       :      1.00s CPU      1.37s WALL (       1 calls)

     Called by electrons:
     c_bands      :   1396.00s CPU   1411.42s WALL (     180 calls)
     sum_band     :    139.65s CPU    140.80s WALL (     180 calls)
     v_of_rho     :      9.37s CPU      9.48s WALL (     181 calls)
     v_h          :      0.73s CPU      0.74s WALL (     181 calls)
     v_xc         :      8.64s CPU      8.74s WALL (     181 calls)
     newd         :      3.33s CPU      3.36s WALL (     181 calls)
     PAW_pot      :      3.85s CPU      3.90s WALL (     194 calls)
     mix_rho      :     21.78s CPU     21.91s WALL (     180 calls)

     Called by c_bands:
     init_us_2    :     10.16s CPU     10.80s WALL (   12028 calls)
     cegterg      :   1349.25s CPU   1359.12s WALL (    6642 calls)

     Called by sum_band:
     sum_band:wei :      0.74s CPU      0.75s WALL (     180 calls)
     sum_band:loo :    133.03s CPU    134.09s WALL (     180 calls)
     sum_band:buf :      0.99s CPU      1.01s WALL (    5580 calls)
     sum_band:ini :      5.04s CPU      5.10s WALL (    5580 calls)
     sum_band:cal :     10.23s CPU     10.36s WALL (    5983 calls)
     sum_band:bec :      0.47s CPU      0.47s WALL (    5983 calls)
     addusdens    :      1.75s CPU      1.79s WALL (     180 calls)
                                        0.00s GPU  (     180 calls)
     addusd:skk   :      0.21s CPU      0.21s WALL (     180 calls)
                                        0.00s GPU  (     180 calls)

     Called by *egterg:
     cdiaghg      :    212.98s CPU    214.19s WALL (   75300 calls)
     cegterg:over :     75.86s CPU     76.69s WALL (   69641 calls)
     cegterg:upda :     41.44s CPU     41.76s WALL (   69641 calls)
     cegterg:last :      6.77s CPU      6.81s WALL (    7774 calls)
     h_psi        :    952.84s CPU    960.20s WALL (   76314 calls)
     s_psi        :     25.71s CPU     26.03s WALL (   76314 calls)
     g_psi        :      1.69s CPU      1.71s WALL (   69641 calls)

     Called by h_psi:
     h_psi:calbec :     59.38s CPU     60.04s WALL (   76314 calls)
     vloc_psi     :    860.09s CPU    866.54s WALL (   76314 calls)
                                        0.00s GPU  (   76314 calls)
     add_vuspsi   :     30.47s CPU     30.76s WALL (   76314 calls)

     General routines
     calbec       :     72.10s CPU     72.98s WALL (   84033 calls)
     fft          :      9.09s CPU      9.41s WALL (    2379 calls)
     ffts         :     12.02s CPU     12.09s WALL (   19180 calls)
     fftw         :    938.64s CPU    945.72s WALL ( 1803276 calls)
     interpolate  :      0.66s CPU      0.66s WALL (     181 calls)
 
     Parallel routines

     PAW routines
     PAW_pot      :      3.85s CPU      3.90s WALL (     194 calls)
     PAW_symme    :      0.04s CPU      0.04s WALL (     374 calls)
 
     Environ routines
 
     PWSCF        :  33m56.66s CPU  34m20.02s WALL

 
   This run was terminated on:  23:47: 0   4Jan2025            

=------------------------------------------------------------------------------=
   JOB DONE.
=------------------------------------------------------------------------------=
