32
Lattice="6.87031246 0.0 0.0 0.0 6.87031246 0.0 0.0 0.0 65.26796836" Properties=species:S:1:pos:R:3:forces:R:3 energy=-6547.4630814749 free_energy=-6547.4630814749 pbc="T T T"
Li      -0.00000007      -0.00000007      28.37676989       0.00000001       0.00000001       0.00003085
Li       1.71757623       1.71757623      26.57769268       0.00000069       0.00000069      -0.00030733
Li      -0.00000007      -0.00000007      31.77207485       0.00000001       0.00000001      -0.00004095
Li       1.71757769       1.71757769      30.07859331       0.00000093       0.00000093      -0.00021796
Li      -0.00000007      -0.00000007      35.18937629       0.00000001       0.00000001       0.00020609
Li       1.71758026       1.71758026      33.49590088       0.00000186       0.00000186       0.00004556
Li      -0.00000006      -0.00000006      38.69026119       0.00000001       0.00000001       0.00032162
Li       1.71757026       1.71757026      36.89119854       0.00000240       0.00000240      -0.00003688
Li      -0.00000007       3.43515616      28.37676323       0.00000001      -0.00000000       0.00003953
Li       1.71757623       5.15273610      26.57769270       0.00000069      -0.00000070      -0.00030734
Li      -0.00000007       3.43515617      31.77206940       0.00000001      -0.00000001      -0.00003587
Li       1.71757769       5.15273464      30.07859330       0.00000093      -0.00000093      -0.00021797
Li      -0.00000007       3.43515618      35.18939073       0.00000001      -0.00000001       0.00020117
Li       1.71758026       5.15273208      33.49590088       0.00000186      -0.00000186       0.00004557
Li      -0.00000006       3.43515617      38.69025523       0.00000001      -0.00000000       0.00031657
Li       1.71757026       5.15274208      36.89119855       0.00000240      -0.00000241      -0.00003688
Li       3.43515616      -0.00000007      28.37676323      -0.00000000       0.00000001       0.00003953
Li       5.15273610       1.71757623      26.57769270      -0.00000070       0.00000069      -0.00030734
Li       3.43515617      -0.00000007      31.77206940      -0.00000001       0.00000001      -0.00003587
Li       5.15273464       1.71757769      30.07859330      -0.00000093       0.00000093      -0.00021797
Li       3.43515618      -0.00000007      35.18939073      -0.00000001       0.00000001       0.00020117
Li       5.15273208       1.71758026      33.49590088      -0.00000186       0.00000186       0.00004557
Li       3.43515617      -0.00000006      38.69025523      -0.00000000       0.00000001       0.00031657
Li       5.15274208       1.71757026      36.89119855      -0.00000241       0.00000240      -0.00003688
Li       3.43515616       3.43515616      28.37676506      -0.00000000      -0.00000000       0.00003598
Li       5.15273610       5.15273610      26.57769271      -0.00000069      -0.00000070      -0.00030736
Li       3.43515617       3.43515617      31.77207353      -0.00000001      -0.00000001      -0.00004420
Li       5.15273464       5.15273464      30.07859330      -0.00000093      -0.00000093      -0.00021797
Li       3.43515618       3.43515618      35.18940465      -0.00000001      -0.00000001       0.00019831
Li       5.15273208       5.15273208      33.49590088      -0.00000186      -0.00000186       0.00004557
Li       3.43515617       3.43515617      38.69024402      -0.00000000      -0.00000000       0.00031599
Li       5.15274208       5.15274208      36.89119855      -0.00000241      -0.00000241      -0.00003689
