16
Lattice="5.9498648 0.0 0.0 -1.98328628 5.60958608 0.0 0.0 0.0 48.58044378" Properties=species:S:1:pos:R:3:forces:R:3 energy=-3273.03586908152 free_energy=-3273.03586908152 pbc="T T T"
Li       0.99159185       1.40241316      20.74854528       0.00001671      -0.00000744       0.00046950
Li       1.98328827       2.80479343      23.08598282      -0.00000014       0.00000003      -0.00034544
Li       0.99171367       1.40238031      25.49442235      -0.00000380      -0.00001760       0.00031479
Li       1.98328828       2.80479345      27.83183477      -0.00000011      -0.00000001      -0.00044570
Li       0.00004037       4.20721517      20.74873402      -0.00000585       0.00000065       0.00043772
Li       0.99164435       5.60958639      23.08610857       0.00000020       0.00000004      -0.00031407
Li      -0.00007942       4.20711493      25.49440372       0.00002520       0.00003280       0.00035442
Li       0.99164433       5.60958635      27.83166341       0.00000015       0.00000005      -0.00039208
Li       3.96653625       1.40237130      20.74873408       0.00000580      -0.00000069       0.00043787
Li       4.95822067       2.80479342      23.08609255      -0.00000014       0.00000004      -0.00042795
Li       3.96665603       1.40247151      25.49440374      -0.00002527      -0.00003288       0.00035443
Li       4.95822068       2.80479344      27.83185449      -0.00000011      -0.00000000      -0.00045787
Li       2.97498477       4.20717331      20.74854525      -0.00001676       0.00000739       0.00046932
Li       3.96657675       5.60958638      23.08598209       0.00000021       0.00000006      -0.00031102
Li       2.97486294       4.20720613      25.49442232       0.00000373       0.00001751       0.00031479
Li       3.96657673       5.60958633      27.83182338       0.00000016       0.00000005      -0.00045871
