20
Lattice="6.87031246 0.0 0.0 0.0 7.68124292 0.0 0.0 0.0 30.72497168" Properties=species:S:1:pos:R:3:forces:R:3 energy=-4090.54188973404 free_energy=-4090.54188973404 pbc="T T T"
Li      -0.00000006       3.16485707      17.26257392       0.00000000      -0.00017329       0.00031467
Li      -0.00000006       6.12492442      15.76933556      -0.00000000      -0.00022919      -0.00002845
Li      -0.00000005       1.53623191      14.24149567      -0.00000001       0.00039704      -0.00001056
Li      -0.00000007       4.33581759      12.63108349       0.00000000       0.00001326      -0.00021931
Li      -0.00000007       0.52012484      18.83039660       0.00000001       0.00007517       0.00017576
Li       1.71766304       3.86060761      14.95570515      -0.00003565       0.00026344      -0.00000047
Li       1.71747172       6.82078124      13.46239178       0.00004582       0.00016521      -0.00031171
Li       1.71756059       1.78422076      11.89451607       0.00000468      -0.00007004      -0.00015867
Li       1.71764700       5.64972589      18.09399308      -0.00002272       0.00002093       0.00017811
Li       1.71760057       0.76817389      16.48351052      -0.00000657      -0.00041289      -0.00000411
Li       3.43515617       3.16482443      17.26260368      -0.00000000      -0.00016234       0.00029959
Li       3.43515617       6.12503210      15.76920032      -0.00000000      -0.00027707       0.00002603
Li       3.43515615       1.53615429      14.24139150       0.00000000       0.00042976       0.00002970
Li       3.43515616       4.33598676      12.63089898       0.00000000      -0.00006300      -0.00014209
Li       3.43515618       0.52021171      18.83049334      -0.00000001       0.00005636       0.00014835
Li       5.15264929       3.86060760      14.95570514       0.00003566       0.00026344      -0.00000047
Li       5.15284062       6.82078124      13.46239179      -0.00004582       0.00016521      -0.00031171
Li       5.15275174       1.78422075      11.89451609      -0.00000468      -0.00007004      -0.00015867
Li       5.15266535       5.64972589      18.09399307       0.00002272       0.00002093       0.00017811
Li       5.15271177       0.76817389      16.48351050       0.00000657      -0.00041289      -0.00000410
