24
Lattice="5.9498648 0.0 0.0 0.0 9.71608757 0.0 0.0 0.0 33.65751648" Properties=species:S:1:pos:R:3:forces:R:3 energy=-4908.76278984579 free_energy=-4908.76278984579 pbc="T T T"
Li       2.97891692       4.85804453      20.18495491       0.00016872       0.00000000       0.00002885
Li       0.98765968       2.42903078      13.47257836      -0.00016970       0.00000063      -0.00003058
Li       2.28311483       4.85804456      14.73816679       0.00021755       0.00000000      -0.00022827
Li       2.89049690       2.42901704      16.14910137       0.00019825       0.00000018       0.00009554
Li       1.07604052       4.85804458      17.50842203      -0.00019470       0.00000000      -0.00009522
Li       1.68345604       2.42902855      18.91936373      -0.00021787      -0.00000063       0.00022876
Li       2.97892431       9.71608836      20.18493292       0.00016955       0.00000000       0.00002976
Li       0.98765964       7.28705838      13.47257842      -0.00016970      -0.00000063      -0.00003058
Li       2.28313610       9.71608838      14.73814060       0.00021594      -0.00000000      -0.00022804
Li       2.89049672       7.28707210      16.14910141       0.00019826      -0.00000018       0.00009554
Li       1.07610412       9.71608833      17.50840934      -0.00019900      -0.00000000      -0.00009435
Li       1.68345597       7.28706056      18.91936381      -0.00021787       0.00000063       0.00022876
Li       5.95384955       4.85804453      20.18495527       0.00016844       0.00000000       0.00002852
Li       3.96259214       2.42902955      13.47257688      -0.00016967       0.00000087      -0.00003026
Li       5.25804652       4.85804456      14.73816613       0.00021809       0.00000000      -0.00022803
Li       5.86542899       2.42901784      16.14910240       0.00019821       0.00000020       0.00009522
Li       4.05097258       4.85804458      17.50842169      -0.00019453       0.00000000      -0.00009504
Li       4.65838804       2.42902925      18.91936420      -0.00021756      -0.00000060       0.00022876
Li       5.95385649       9.71608836      20.18492981       0.00017007       0.00000000       0.00003053
Li       3.96259209       7.28705961      13.47257695      -0.00016967      -0.00000087      -0.00003027
Li       5.25806860       9.71608838      14.73814242       0.00021561      -0.00000000      -0.00022845
Li       5.86542881       7.28707130      16.14910244       0.00019822      -0.00000020       0.00009522
Li       4.05103614       9.71608833      17.50841158      -0.00019908      -0.00000000      -0.00009514
Li       4.65838797       7.28705986      18.91936428      -0.00021755       0.00000060       0.00022876
