44
Lattice="9.71608884 0.0 0.0 -2.42902221 8.05615336 0.0 0.0 0.0 34.17937392" Properties=species:S:1:pos:R:3:forces:R:3 energy=-9001.43895634489 free_energy=-9001.43895634489 pbc="T T T"
Li      -2.43224386       7.47194918      11.65665137       0.00004151       0.00006113       0.00008347
Li       2.42794932       2.50517060      22.17015470       0.00000898      -0.00026303      -0.00005279
Li      -0.00107585       4.44314770      21.03581413      -0.00001351       0.00006311       0.00025939
Li       2.43290649       6.57520403      19.80392846      -0.00005517       0.00012667      -0.00012777
Li       2.42647976       0.78885896      18.88828202       0.00001450       0.00019258      -0.00013228
Li       0.00011771       2.92441935      17.93933889      -0.00001974      -0.00004615       0.00011125
Li       2.43151532       5.08619500      16.89712735      -0.00002996      -0.00008252      -0.00021109
Li      -0.00279559       7.31620238      15.81110579       0.00005028       0.00012803       0.00006116
Li      -0.00005961       1.47558774      14.64256614       0.00003756       0.00008170      -0.00013041
Li       2.43003821       3.75422597      13.59464062      -0.00000800      -0.00012214      -0.00036126
Li      -0.00038982       5.71841346      12.75915901      -0.00001142      -0.00001406       0.00045515
Li      -0.00101499       1.37242141      20.58472857       0.00000821       0.00012172       0.00036159
Li       2.42908142       3.65105563      19.53680444      -0.00003741      -0.00008110       0.00013039
Li       0.00279499       5.86659652      18.36826724      -0.00004987      -0.00012808      -0.00006187
Li       2.42652870       8.09660520      17.28224711       0.00003022       0.00008241       0.00021030
Li       2.42890364       2.20222717      16.24003297       0.00001980       0.00004611      -0.00011129
Li       0.00254331       4.33778541      15.29108947      -0.00001423      -0.00019244       0.00013219
Li       2.42513938       6.60759416      14.37544329       0.00005497      -0.00012590       0.00012824
Li       2.43009938       0.68349878      13.14355706       0.00001442      -0.00006359      -0.00025871
Li       0.00107163       2.62147687      12.00921749      -0.00000912       0.00026312       0.00005301
Li       2.43224398       5.71085313      22.52272155      -0.00004151      -0.00006150      -0.00008329
Li       0.00038693       7.46438643      21.42021407       0.00001194       0.00001373      -0.00045509
Li       2.42579890       7.47193871      11.65664861       0.00004144       0.00006224       0.00008383
Li       7.28598929       2.50517009      22.17015350       0.00000939      -0.00026265      -0.00005230
Li       4.85696850       4.44314813      21.03581479      -0.00001391       0.00006345       0.00025872
Li       7.29095004       6.57520608      19.80392818      -0.00005494       0.00012585      -0.00012842
Li       7.28452575       0.78885916      18.88828493       0.00001403       0.00019219      -0.00013284
Li       4.85816160       2.92442025      17.93933680      -0.00001961      -0.00004623       0.00011132
Li       7.28956085       5.08619328      16.89712574      -0.00003062      -0.00008205      -0.00021041
Li       4.85524899       7.31620278      15.81110664       0.00004923       0.00012808       0.00006137
Li       4.85798647       1.47559092      14.64257006       0.00003707       0.00008088      -0.00013071
Li       7.28808137       3.75422170      13.59464905      -0.00000808      -0.00012132      -0.00036198
Li       4.85766027       5.71841001      12.75915390      -0.00001164      -0.00001382       0.00045581
Li       4.85702873       1.37242080      20.58472540       0.00000788       0.00012175       0.00036173
Li       7.28712513       3.65105652      19.53680419      -0.00003764      -0.00008063       0.00013032
Li       4.86084029       5.86659707      18.36826678      -0.00004952      -0.00012842      -0.00006188
Li       7.28457273       8.09660507      17.28224580       0.00003024       0.00008236       0.00021048
Li       7.28695038       2.20222514      16.24003649       0.00001953       0.00004634      -0.00011154
Li       4.86058423       4.33778839      15.29108897      -0.00001398      -0.00019255       0.00013234
Li       7.28318166       6.60759317      14.37544452       0.00005506      -0.00012668       0.00012755
Li       7.28814084       0.68349471      13.14355717       0.00001370      -0.00006350      -0.00025877
Li       4.85912367       2.62146998      12.00921643      -0.00000972       0.00026342       0.00005319
Li       7.29028973       5.71085291      22.52272023      -0.00004158      -0.00006157      -0.00008284
Li       4.85843129       7.46438641      21.42021643       0.00001121       0.00001304      -0.00045523
