52
Lattice="6.87031246 0.0 0.0 0.0 12.38563441 0.0 0.0 0.0 37.15689637" Properties=species:S:1:pos:R:3:forces:R:3 energy=-10638.7614609778 free_energy=-10638.7614609778 pbc="T T T"
Li      -0.00000006       7.91433983      23.60818236      -0.00000000       0.00026224      -0.00001268
Li      -0.00000006      10.41717597      21.78751827       0.00000000       0.00029235      -0.00019575
Li      -0.00000006       2.89217654      22.43621123       0.00000000      -0.00000885       0.00005763
Li      -0.00000006       5.66876997      20.72779739       0.00000000      -0.00007682       0.00037524
Li      -0.00000006       8.55695979      18.83999018       0.00000000       0.00025273      -0.00049123
Li      -0.00000006      11.44158036      17.06260292      -0.00000000      -0.00001437      -0.00017474
Li      -0.00000006       0.91547175      19.76644899       0.00000000       0.00012256      -0.00003901
Li      -0.00000006       3.86063101      17.73212030       0.00000000       0.00011566      -0.00028060
Li      -0.00000006       6.73319482      15.91151825       0.00000000       0.00004339       0.00011532
Li      -0.00000006       9.45008321      14.04303362       0.00000000      -0.00000143       0.00007004
Li      -0.00000006       1.93682175      15.02157648       0.00000000      -0.00027310       0.00011492
Li      -0.00000006       4.24032466      12.99207648      -0.00000000      -0.00044601       0.00027664
Li      -0.00000006       0.77988652      24.53365602      -0.00000000      -0.00022445      -0.00014849
Li       1.71757794       8.03429019      21.24537505      -0.00000005      -0.00004354      -0.00011548
Li       1.71757835      10.90685201      19.42477473       0.00000024      -0.00011642       0.00028099
Li       1.71757816       3.32590253      20.09429210      -0.00000016       0.00001408       0.00017501
Li       1.71757793       6.21052286      18.31690175       0.00000006      -0.00025241       0.00049184
Li       1.71757827       9.09871326      16.42909495      -0.00000015       0.00007776      -0.00037515
Li       1.71757796      11.87530939      14.72068504      -0.00000003       0.00000874      -0.00005798
Li       1.71757771       1.46637629      17.39044660       0.00000041      -0.00012200       0.00003930
Li       1.71757772       4.35030941      15.36937745       0.00000010      -0.00029295       0.00019643
Li       1.71757814       6.85314526      13.54871215      -0.00000019      -0.00026153       0.00001223
Li       1.71757742      10.52716046      24.16482157       0.00000015       0.00044624      -0.00027784
Li       1.71757738       1.60196428      12.62324157       0.00000047       0.00022468       0.00014748
Li       1.71757891       5.31740423      23.11385823      -0.00000074       0.00000074      -0.00006947
Li       1.71757782       0.44502931      22.13532039       0.00000028       0.00027270      -0.00011521
Li       3.43515617       7.91434089      23.60818242       0.00000000       0.00026161      -0.00001240
Li       3.43515617      10.41717561      21.78751986       0.00000000       0.00029329      -0.00019736
Li       3.43515617       2.89217653      22.43621041       0.00000000      -0.00000967       0.00005838
Li       3.43515617       5.66877110      20.72779702       0.00000000      -0.00007808       0.00037496
Li       3.43515617       8.55695940      18.83999040      -0.00000000       0.00025315      -0.00049148
Li       3.43515617      11.44158083      17.06260201       0.00000000      -0.00001431      -0.00017379
Li       3.43515617       0.91547209      19.76644868      -0.00000000       0.00012199      -0.00003870
Li       3.43515617       3.86063053      17.73211999      -0.00000000       0.00011603      -0.00028046
Li       3.43515616       6.73319362      15.91151816       0.00000000       0.00004416       0.00011578
Li       3.43515617       9.45008246      14.04303460      -0.00000000      -0.00000075       0.00006924
Li       3.43515617       1.93682206      15.02157563      -0.00000000      -0.00027326       0.00011616
Li       3.43515617       4.24032453      12.99207649      -0.00000000      -0.00044597       0.00027674
Li       3.43515617       0.77988593      24.53365559       0.00000000      -0.00022425      -0.00014862
Li       5.15273440       8.03429019      21.24537506       0.00000005      -0.00004354      -0.00011548
Li       5.15273399      10.90685201      19.42477473      -0.00000024      -0.00011642       0.00028099
Li       5.15273418       3.32590253      20.09429211       0.00000016       0.00001408       0.00017501
Li       5.15273440       6.21052286      18.31690175      -0.00000006      -0.00025241       0.00049184
Li       5.15273406       9.09871326      16.42909495       0.00000014       0.00007776      -0.00037515
Li       5.15273438      11.87530938      14.72068504       0.00000003       0.00000874      -0.00005798
Li       5.15273463       1.46637628      17.39044660      -0.00000041      -0.00012200       0.00003930
Li       5.15273462       4.35030941      15.36937745      -0.00000010      -0.00029295       0.00019643
Li       5.15273419       6.85314526      13.54871216       0.00000019      -0.00026153       0.00001223
Li       5.15273491      10.52716045      24.16482157      -0.00000014       0.00044624      -0.00027784
Li       5.15273496       1.60196429      12.62324157      -0.00000047       0.00022467       0.00014748
Li       5.15273342       5.31740423      23.11385823       0.00000074       0.00000074      -0.00006947
Li       5.15273452       0.44502931      22.13532039      -0.00000029       0.00027270      -0.00011521
