28
Lattice="5.9498648 0.0 0.0 -0.99164612 7.42078442 0.0 0.0 0.0 38.55953274" Properties=species:S:1:pos:R:3:forces:R:3 energy=-5728.496744197 free_energy=-5728.496744197 pbc="T T T"
Li       0.25759579      -0.24450653      25.11761771       0.00009183       0.00016329      -0.00000013
Li      -0.25761349       5.01500795      13.44191520      -0.00008728      -0.00016350      -0.00000163
Li       0.77352830       2.15571842      14.13769918       0.00018236      -0.00012765      -0.00032184
Li       1.06786929       7.02332266      15.22579636       0.00006444      -0.00003515      -0.00018910
Li       1.69821593       4.22957963      15.97007274      -0.00006669      -0.00004836       0.00005497
Li       0.02847462       1.68767850      17.00815565      -0.00004487      -0.00006270      -0.00007543
Li      -0.15375041       6.32112431      17.84416150      -0.00026210       0.00025774      -0.00005515
Li       1.06329354       3.77532017      18.85487860       0.00028117      -0.00005344      -0.00016669
Li       1.91163523       0.99520096      19.70465250      -0.00027989       0.00004783       0.00016739
Li       2.13703353       5.87017662      20.71537012       0.00026235      -0.00026182       0.00005454
Li      -0.02845797       3.08282894      21.55137870       0.00003841       0.00006330       0.00007538
Li       1.27670609       0.54092165      22.58946401       0.00006987       0.00005165      -0.00005632
Li       0.91542361       5.16796152      23.33373504      -0.00006604       0.00003681       0.00018942
Li       2.20142160       2.61477702      24.42182584      -0.00018591       0.00013161       0.00032623
Li       3.23252792      -0.24451543      25.11762143       0.00009322       0.00016517       0.00000026
Li       2.71731907       5.01499782      13.44191961      -0.00008715      -0.00016120      -0.00000210
Li       3.74846069       2.15570853      14.13769204       0.00018444      -0.00012629      -0.00032202
Li       4.04280147       7.02331879      15.22579952       0.00006443      -0.00003317      -0.00019006
Li       4.67314838       4.22957254      15.97006724      -0.00006622      -0.00004670       0.00005376
Li       3.00340631       1.68768115      17.00815143      -0.00004425      -0.00006405      -0.00007513
Li       2.82118228       6.32112829      17.84416564      -0.00026244       0.00025691      -0.00005573
Li       4.03822600       3.77531995      18.85487534       0.00028087      -0.00005360      -0.00016794
Li       4.88656782       0.99520256      19.70465635      -0.00028037       0.00004736       0.00016795
Li       5.11196539       5.87017418      20.71536560       0.00026274      -0.00026211       0.00005586
Li       2.94647398       3.08283037      21.55137420       0.00003866       0.00006211       0.00007442
Li       4.25163892       0.54092856      22.58947025       0.00006935       0.00005014      -0.00005573
Li       3.89035611       5.16796404      23.33373202      -0.00006575       0.00003611       0.00018984
Li       5.17635309       2.61478722      24.42183583      -0.00018516       0.00012971       0.00032497
