68
Lattice="9.71608884 0.0 0.0 -2.42902221 10.01511119 0.0 0.0 0.0 28.32702383" Properties=species:S:1:pos:R:3:forces:R:3 energy=-13912.6556993438 free_energy=-13912.6556993438 pbc="T T T"
Li       0.00599066       0.23434766       7.40319436      -0.00005451       0.00020815      -0.00006815
Li      -0.00449458       5.96196075      20.59263447       0.00007203      -0.00019001       0.00040792
Li       2.42247940       7.72327383      19.07686680       0.00011638      -0.00000322      -0.00018727
Li       2.42320168       1.94842278      19.38131505       0.00006107       0.00008861      -0.00006064
Li      -0.00410728       3.62398978      18.12769466       0.00003188       0.00016535       0.00021319
Li       2.42447067       5.38616356      16.48325402       0.00008083      -0.00009213       0.00009536
Li       2.43206161       8.79524304      13.13034790      -0.00005084       0.00000318      -0.00023048
Li      -0.00450957       9.48980108      17.38883705       0.00005500       0.00003638       0.00000185
Li      -0.00032699       1.21321239      15.62485692      -0.00001558      -0.00014385       0.00014712
Li       2.42755981       2.96414757      13.82883485       0.00003032      -0.00009921       0.00009228
Li       0.00271094       4.66201232      12.24187131      -0.00003186       0.00022342       0.00010053
Li       2.43478727       6.35955861      10.53760110      -0.00010174       0.00006331      -0.00031030
Li      -0.00103348       7.08371135      14.82063376       0.00000907       0.00013334       0.00020170
Li       2.43097194       0.48084500      11.66456644      -0.00000493      -0.00012885      -0.00001947
Li       0.00552939       2.31047683       9.78183017      -0.00006194      -0.00019773      -0.00014777
Li       2.43647118       3.76992558       8.00460981      -0.00013126      -0.00018133       0.00022818
Li       0.00439931       8.21207951       8.94514136      -0.00005834       0.00002419      -0.00000547
Li      -0.00554955       0.63514524      18.54519316       0.00006097       0.00019931       0.00014824
Li      -0.00576435       6.60117620      17.78942712       0.00010166      -0.00006323       0.00030999
Li       2.42631312       8.29872361      16.08515288       0.00003163      -0.00022359      -0.00010024
Li       2.42707074       2.46477043      16.66248097       0.00000498       0.00012878       0.00002035
Li      -0.00304402       4.16549803      15.19667684       0.00005054      -0.00000329       0.00023045
Li       2.43005756       5.87702859      13.50639244      -0.00000929      -0.00013334      -0.00020234
Li       2.43313120       9.33674281      10.19932980      -0.00003166      -0.00016450      -0.00021274
Li       0.00145933       9.99659060      14.49820523      -0.00003006       0.00009858      -0.00009183
Li       0.00031734       1.73241447      12.70216529       0.00001480       0.00014344      -0.00014717
Li       2.43353551       3.47092979      10.93819421      -0.00005472      -0.00003684      -0.00000112
Li       0.00654580       5.23746052       9.25015842      -0.00011616       0.00000330       0.00018762
Li       2.43350589       6.99876367       7.73439110      -0.00007114       0.00018943      -0.00040871
Li       0.00454940       7.57456908      11.84377184      -0.00008057       0.00009199      -0.00009608
Li       2.43484628       0.99720497       8.94575241      -0.00006088      -0.00008884       0.00006181
Li      -0.00587766       2.71128151      20.92382963       0.00005662      -0.00020667       0.00006794
Li       2.42462250       4.74865793      19.38188828       0.00005848      -0.00002309       0.00000453
Li      -0.00744806       9.19079097      20.32241322       0.00013047       0.00018081      -0.00022811
Li       4.86387004       0.23433199       7.40319389      -0.00005874       0.00020710      -0.00006795
Li       4.85355822       5.96194874      20.59264298       0.00007176      -0.00019018       0.00040900
Li       7.28054233       7.72327692      19.07686914       0.00011683      -0.00000358      -0.00018745
Li       7.28124738       1.94842743      19.38135579       0.00006130       0.00008769      -0.00005998
Li       4.85393348       3.62399296      18.12769268       0.00003134       0.00016559       0.00021271
Li       7.28250580       5.38616589      16.48324172       0.00008029      -0.00009212       0.00009536
Li       7.29011508       8.79524567      13.13035257      -0.00005039       0.00000294      -0.00023040
Li       4.85353470       9.48981240      17.38880938       0.00005455       0.00003657       0.00000119
Li       4.85772727       1.21321343      15.62485703      -0.00001501      -0.00014419       0.00014741
Li       7.28560874       2.96415008      13.82884317       0.00003060      -0.00009905       0.00009293
Li       4.86075211       4.66201748      12.24186872      -0.00003259       0.00022322       0.00009991
Li       7.29282364       6.35954732      10.53757988      -0.00010210       0.00006336      -0.00031097
Li       4.85701402       7.08371331      14.82064549       0.00000923       0.00013323       0.00020210
Li       7.28901417       0.48086697      11.66449345      -0.00000506      -0.00012826      -0.00002053
Li       4.86360970       2.31047455       9.78182771      -0.00006111      -0.00019843      -0.00014814
Li       7.29451971       3.76998788       8.00463513      -0.00012950      -0.00018004       0.00022879
Li       4.86243967       8.21206746       8.94514531      -0.00005846       0.00002225      -0.00000353
Li       4.85250713       0.63514575      18.54519129       0.00006105       0.00019868       0.00014798
Li       4.85228368       6.60119076      17.78944451       0.00010189      -0.00006355       0.00031074
Li       7.28436219       8.29872616      16.08515432       0.00003204      -0.00022390      -0.00010022
Li       7.28511591       2.46477415      16.66250169       0.00000538       0.00012815       0.00002010
Li       4.85499618       4.16549601      15.19667082       0.00005058      -0.00000349       0.00023076
Li       7.28809985       5.87702917      13.50637957      -0.00000948      -0.00013310      -0.00020193
Li       7.29117367       9.33674286      10.19933062      -0.00003139      -0.00016490      -0.00021287
Li       4.85950009       9.99659606      14.49815999      -0.00002988       0.00009891      -0.00009331
Li       4.85836606       1.73241920      12.70216574       0.00001564       0.00014310      -0.00014725
Li       7.29157850       3.47093083      10.93820017      -0.00005458      -0.00003724      -0.00000139
Li       4.86456290       5.23745517       9.25015467      -0.00011672       0.00000311       0.00018677
Li       7.29155866       6.99878854       7.73438329      -0.00007219       0.00019081      -0.00040889
Li       4.86260344       7.57458089      11.84378405      -0.00007950       0.00009134      -0.00009513
Li       7.29289091       0.99718724       8.94561670      -0.00006131      -0.00008769       0.00005927
Li       4.85211507       2.71127017      20.92382736       0.00005547      -0.00020664       0.00006811
Li       7.28266773       4.74865961      19.38187486       0.00005856      -0.00002228       0.00000426
Li       4.85058951       9.19076103      20.32238459       0.00013024       0.00018077      -0.00022862
