76
Lattice="9.71608884 0.0 0.0 2.42902221 10.58786491 0.0 0.0 0.0 29.94699704" Properties=species:S:1:pos:R:3:forces:R:3 energy=-15550.079235635 free_energy=-15550.079235635 pbc="T T T"
Li      -0.00171977      -0.58854025      22.14983605       0.00002959      -0.00019009       0.00030431
Li       2.43019750       7.35662097       8.11606744       0.00000362       0.00022439       0.00015993
Li       2.42951177       3.77690874       9.01070121       0.00008769      -0.00006009      -0.00015767
Li       2.43019966       0.69008240      10.05121279       0.00013288      -0.00006918      -0.00028357
Li       4.86095390       7.89452692      10.28938474       0.00007695       0.00003220       0.00026567
Li       4.86441479       4.24536844      11.05025198       0.00013876       0.00002563      -0.00005759
Li       4.86647240       1.11654279      11.97034516       0.00014465      -0.00003160       0.00005269
Li       2.44023724       8.37576863      12.68956231       0.00003629       0.00008503       0.00031615
Li       2.43744127       5.05854110      13.61750087       0.00000017      -0.00028311       0.00004888
Li       2.43345056       1.60881472      14.47948661       0.00002615       0.00030579       0.00004749
Li       4.85577828       8.87597346      15.19852447      -0.00001207      -0.00021470      -0.00026764
Li       4.85171377       5.58768269      15.93709670      -0.00002910       0.00002589       0.00002032
Li       4.84877665       2.29128825      16.91400069      -0.00000730       0.00020023      -0.00011754
Li       2.41775437       9.54470349      17.42821090      -0.00008255      -0.00042132      -0.00008319
Li       2.42094020       6.08155961      18.10034598      -0.00015706       0.00019707       0.00016048
Li       2.42401251       2.81872988      19.16849912      -0.00010275       0.00008110      -0.00020235
Li       4.85620043       9.94979523      19.99702431      -0.00009198      -0.00003547      -0.00016616
Li       4.85762083       7.00801257      21.02731972      -0.00012174      -0.00005224      -0.00004515
Li       4.85743046       3.32158948      21.46480097      -0.00003174       0.00004259       0.00025913
Li       2.43086618       9.55416269       9.94996993       0.00009250       0.00003622       0.00016768
Li       2.43403217       6.09736446      10.77849913       0.00010269      -0.00008148       0.00020188
Li       2.43710490       2.83453705      11.84665264       0.00015660      -0.00019811      -0.00016131
Li       4.86931320       9.95925690      12.51878541       0.00008223       0.00042070       0.00008274
Li       4.86731217       6.62480646      13.03299740       0.00000729      -0.00020035       0.00011735
Li       4.86437693       3.32840827      14.00989888       0.00002807      -0.00002410      -0.00001929
Li       4.86031031       0.04012368      14.74847100       0.00001235       0.00021310       0.00026859
Li       2.42459318       7.30728074      15.46751016      -0.00002594      -0.00030616      -0.00004693
Li       2.42060465       3.85755242      16.32950006      -0.00000082       0.00028391      -0.00005082
Li       2.41780713       0.54032706      17.25743252      -0.00003595      -0.00008620      -0.00031467
Li       4.84961843       7.79955198      17.97664848      -0.00014574       0.00003122      -0.00005095
Li       4.85167337       4.67072871      18.89674356      -0.00013833      -0.00002646       0.00005890
Li       4.85513334       1.02156511      19.65761251      -0.00007573      -0.00003183      -0.00026597
Li       2.42784556       8.22601470      19.89578455      -0.00013332       0.00006811       0.00028241
Li       2.42853132       5.13918451      20.93629725      -0.00008699       0.00006108       0.00015657
Li       2.42784526       1.55947044      21.83092927      -0.00000303      -0.00022326      -0.00015984
Li       4.85976430       9.50463420       7.79716197      -0.00003036       0.00019005      -0.00030539
Li       4.85865677       5.59450238       8.48219199       0.00003219      -0.00004204      -0.00025726
Li       4.85846796       1.90808439       8.91967864       0.00012148       0.00005135       0.00004431
Li       4.85632430      -0.58853990      22.14983766       0.00002992      -0.00018997       0.00030317
Li       7.28824148       7.35662161       8.11606648       0.00000355       0.00022345       0.00016059
Li       7.28755830       3.77690979       9.01069831       0.00008659      -0.00006084      -0.00015595
Li       7.28824361       0.69008018      10.05121296       0.00013301      -0.00006856      -0.00028302
Li       9.71899751       7.89452741      10.28938473       0.00007745       0.00003232       0.00026603
Li       9.72245985       4.24536795      11.05025269       0.00013865       0.00002583      -0.00005839
Li       9.72451633       1.11654253      11.97034576       0.00014499      -0.00003108       0.00005230
Li       7.29828284       8.37576860      12.68956276       0.00003539       0.00008488       0.00031589
Li       7.29548466       5.05854234      13.61750120       0.00000041      -0.00028375       0.00004867
Li       7.29149704       1.60881383      14.47948680       0.00002534       0.00030631       0.00004672
Li       9.71382186       8.87597229      15.19852734      -0.00001149      -0.00021405      -0.00026912
Li       9.70975643       5.58768281      15.93709816      -0.00002782       0.00002612       0.00001963
Li       9.70682168       2.29128816      16.91399979      -0.00000754       0.00020025      -0.00011776
Li       7.27579870       9.54470363      17.42821197      -0.00008233      -0.00042117      -0.00008317
Li       7.27898515       6.08155742      18.10034571      -0.00015710       0.00019807       0.00016061
Li       7.28205459       2.81872915      19.16849952      -0.00010174       0.00008192      -0.00020237
Li       9.71424485       9.94979699      19.99702502      -0.00009231      -0.00003647      -0.00016636
Li       9.71566821       7.00801260      21.02731965      -0.00012293      -0.00005240      -0.00004471
Li       9.71547591       3.32159045      21.46480102      -0.00003236       0.00004229       0.00025977
Li       7.28890982       9.55416351       9.94996979       0.00009238       0.00003559       0.00016745
Li       7.29207695       6.09736402      10.77849819       0.00010274      -0.00008132       0.00020251
Li       7.29514849       2.83453792      11.84665097       0.00015727      -0.00019868      -0.00016081
Li       9.72735738       9.95925708      12.51878745       0.00008226       0.00042017       0.00008203
Li       9.72535709       6.62480560      13.03299878       0.00000729      -0.00019997       0.00011664
Li       9.72242014       3.32840924      14.00989911       0.00002866      -0.00002384      -0.00001968
Li       9.71835502       0.04012131      14.74847071       0.00001205       0.00021444       0.00026836
Li       7.28263645       7.30728176      15.46751114      -0.00002520      -0.00030674      -0.00004726
Li       7.27864836       3.85755020      16.32949988      -0.00000026       0.00028511      -0.00005077
Li       7.27585173       0.54032677      17.25743343      -0.00003599      -0.00008557      -0.00031552
Li       9.70766125       7.79955152      17.97665125      -0.00014478       0.00003169      -0.00005223
Li       9.70971842       4.67072672      18.89674372      -0.00013878      -0.00002597       0.00005874
Li       9.71318010       1.02156700      19.65761162      -0.00007777      -0.00003271      -0.00026590
Li       7.28589009       8.22601243      19.89578655      -0.00013352       0.00006890       0.00028146
Li       7.28657584       5.13918488      20.93629789      -0.00008717       0.00006084       0.00015667
Li       7.28589091       1.55947184      21.83092938      -0.00000343      -0.00022361      -0.00015910
Li       9.71780725       9.50463387       7.79716036      -0.00002943       0.00019002      -0.00030421
Li       9.71670148       5.59450295       8.48219153       0.00003231      -0.00004173      -0.00025670
Li       9.71651072       1.90808207       8.91967939       0.00012206       0.00005239       0.00004357
