44
Lattice="9.71608884 0.0 0.0 0.0 5.69656232 0.0 0.0 0.0 32.22462315" Properties=species:S:1:pos:R:3:forces:R:3 energy=-9002.9232274542 free_energy=-9002.9232274542 pbc="T T T"
Li       4.85804441       5.52064103      23.76616461       0.00000000       0.00028391       0.00004751
Li       2.42903048       4.31883186       8.45846218       0.00000050      -0.00028639      -0.00004700
Li       2.42902221       1.06451078      10.19226382      -0.00000037       0.00005624      -0.00000311
Li       4.85804441       2.15847280       8.94108899       0.00000000       0.00009134      -0.00029211
Li      -0.00000001       4.93980054      10.33594558      -0.00000000       0.00022440       0.00003555
Li       4.85804441       1.89810280      11.96686504       0.00000000       0.00018059       0.00003049
Li       2.42902300       3.14480901      14.27112366       0.00000014      -0.00019895       0.00014583
Li       2.42901942       5.71465061      15.93330428       0.00000094      -0.00010015       0.00026835
Li       2.42901936       3.68516673      11.33040151       0.00000033       0.00011553       0.00009293
Li       2.42902378       0.48963750      13.02420280      -0.00000060      -0.00024623       0.00031337
Li      -0.00000001       4.56591466      13.33972024      -0.00000000      -0.00002063       0.00011299
Li       4.85804441       1.46308355      14.97022977       0.00000000      -0.00002402       0.00002489
Li       4.85804441       4.12486802      16.29131284       0.00000000       0.00010172      -0.00026964
Li       4.85804441       0.99814121      17.95350867       0.00000000       0.00019916      -0.00014929
Li       2.42902084       5.27360236      18.88490325      -0.00000036       0.00001856      -0.00011335
Li       2.42902018       2.24485636      20.25776290       0.00000054      -0.00018233      -0.00003328
Li       2.42902503       2.67986848      17.25440512       0.00000002       0.00002609      -0.00003069
Li      -0.00000001       3.65331765      19.20043258      -0.00000000       0.00024276      -0.00031130
Li       4.85804441       0.45778113      20.89422909       0.00000000      -0.00011373      -0.00009344
Li       4.85804441       3.07845738      22.03231390       0.00000000      -0.00005559       0.00000709
Li       2.42901466       4.89971621      21.88866955      -0.00000200      -0.00022443      -0.00003486
Li       2.42906818       1.98447673      23.28353160       0.00000088      -0.00008962       0.00029394
Li       9.71608883       5.52072944      23.76614298      -0.00000000       0.00028570       0.00005284
Li       7.28705834       4.31883187       8.45846218      -0.00000050      -0.00028639      -0.00004700
Li       7.28706661       1.06451078      10.19226383       0.00000037       0.00005624      -0.00000311
Li       9.71608883       2.15847952       8.94108057      -0.00000000       0.00008966      -0.00029124
Li       4.85804441       4.93979849      10.33595949       0.00000000       0.00022607       0.00003137
Li       9.71608883       1.89809750      11.96685262      -0.00000000       0.00018098       0.00003450
Li       7.28706582       3.14480901      14.27112366      -0.00000014      -0.00019895       0.00014583
Li       7.28706940       5.71465061      15.93330428      -0.00000094      -0.00010015       0.00026835
Li       7.28706945       3.68516673      11.33040151      -0.00000033       0.00011553       0.00009293
Li       7.28706504       0.48963750      13.02420280       0.00000060      -0.00024623       0.00031337
Li       4.85804441       4.56591806      13.33972433       0.00000000      -0.00001979       0.00010856
Li       9.71608883       1.46308533      14.97021383      -0.00000000      -0.00002540       0.00002949
Li       9.71608883       4.12486092      16.29132699      -0.00000000       0.00010140      -0.00026977
Li       9.71608883       0.99815011      17.95349638      -0.00000000       0.00019692      -0.00014873
Li       7.28706798       5.27360236      18.88490325       0.00000036       0.00001856      -0.00011335
Li       7.28706864       2.24485636      20.25776290      -0.00000054      -0.00018233      -0.00003328
Li       7.28706378       2.67986848      17.25440512      -0.00000002       0.00002609      -0.00003069
Li       4.85804441       3.65332041      19.20039727       0.00000000       0.00024515      -0.00030971
Li       9.71608883       0.45778778      20.89420940      -0.00000000      -0.00011244      -0.00009245
Li       9.71608883       3.07842677      22.03238653      -0.00000000      -0.00005484       0.00000814
Li       7.28707416       4.89971621      21.88866955       0.00000200      -0.00022443      -0.00003486
Li       7.28702064       1.98447673      23.28353160      -0.00000088      -0.00008962       0.00029394
