2
Lattice="3.435156146 0.0 -0.0 0.0 3.435156146 0.0 0.0 0.0 3.435156146" Properties=species:S:1:pos:R:3:forces:R:3 energy=-393.80402799889106 free_energy=-393.80402799889106 stress="9.181576151994517e-07 -0.0 -0.0 -0.0 9.181576151994517e-07 -0.0 -0.0 -0.0 9.181576151994517e-07" pbc="T T T"
Li       0.00000000       0.00000000       0.00000000       0.00000000       0.00000000       0.00000000
Li       1.71757807       1.71757807       1.71757807       0.00000000       0.00000000       0.00000000
