
     Program PWSCF v.7.4 starts on 27Dec2024 at 19:57:31 

     This program is part of the open-source Quantum ESPRESSO suite
     for quantum simulation of materials; please cite
         "P. Giannozzi et al., J. Phys.:Condens. Matter 21 395502 (2009);
         "P. Giannozzi et al., J. Phys.:Condens. Matter 29 465901 (2017);
         "P. Giannozzi et al., J. Chem. Phys. 152 154105 (2020);
          URL http://www.quantum-espresso.org", 
     in publications or presentations arising from this work. More details at
     http://www.quantum-espresso.org/quote

     Parallel version (MPI & OpenMP), running on     192 processor cores
     Number of MPI processes:               192
     Threads/MPI process:                     1

     MPI processes distributed on     1 nodes
     633816 MiB available memory on the printing compute node when the environment starts
 
     Reading input from espresso.pwi
Warning: card &CELL ignored
Warning: card    PRESS_CONV_THR   = 0.1 ignored
Warning: card    CELL_DOFREE      = 'ALL' ignored
Warning: card / ignored
Warning: card &FCP ignored
Warning: card / ignored
Warning: card &RISM ignored
Warning: card / ignored

     Current dimensions of program PWSCF are:
     Max number of different atomic species (ntypx) = 10
     Max number of k-points (npk) =  40000
     Max angular momentum in pseudopotentials (lmaxx) =  4

     IMPORTANT: XC functional enforced from input :
     Exchange-correlation= PBE
                           (   1   4   3   4   0   0   0)
     Any further DFT definition will be discarded
     Please, verify this is what you really want

 
     Reading input from environ.in:
     * using ionic solvent mode
     * setting boundary derivatives method to SSCS default
     * setting electrolyte-boundary derivatives method to SSCS default

Environ Warning (1001): card EOF ignored

     
     Found identity + (  0.5000 -0.0000 -0.0000) symmetry
     This is a supercell, fractional translations are disabled
 
     R & G space division:  proc/nbgrp/npool/nimage =     192
     Subspace diagonalization in iterative solution of the eigenvalue problem:
     a serial algorithm will be used

 
     Parallelization info
     --------------------
     sticks:   dense  smooth     PW     G-vecs:    dense   smooth      PW
     Min          92      37      9                53496    13527    1801
     Max          93      38     10                53557    13559    1860
     Sum       17801    7131   1879             10277287  2600241  352547
 
     Using Slab Decomposition
 


     bravais-lattice index     =           12
     lattice parameter (alat)  =      18.3607  a.u.
     unit-cell volume          =   26895.2607 (a.u.)^3
     number of atoms/cell      =           44
     number of atomic types    =            1
     number of electrons       =       132.00
     number of Kohn-Sham states=           99
     kinetic-energy cutoff     =      80.0000  Ry
     charge density cutoff     =     800.0000  Ry
     scf convergence threshold =      1.0E-14
     mixing beta               =       0.2000
     number of iterations used =            8  local-TF  mixing
     Exchange-correlation= PBE
                           (   1   4   3   4   0   0   0)

     ================================================================================
 
                                  Environ Setup Summary

     ================================================================================
 
     Please cite

          O. Andreussi, I. Dabo and N. Marzari, J. Chem. Phys. 136, 064102 (2012)
          F. Nattino, M. Truscott, N. Marzari, and O. Andreussi, J. Chem. Phys. 150, 041722 (2019)

     in publications or presentations arising from this work.

     ================================================================================
 
     Parameters
     ==========

     compensation onset threshold      =               0.1000E+00
     static permittivity               =                    89.90
     surface tension in input (dyn/cm) =                    37.30
     surface tension in internal units =               0.4792E-04

     Solvent Boundary
     ================

     solvent mode                      =                    ionic
     derivatives method                =                   lowmem
     electrolyte derivatives method    =                   lowmem
     numerical core for derivatives    =                      fft
     switching function adopted        =                     SCCS
     density limit for vacuum region   =               0.5000E-02
     density limit for bulk solvent    =               0.1000E-03
     soft-sphere radius mode           =                    bondi
     soft-sphere softness              =                     0.50
     alpha                             =                     1.32

     Electrostatic Setup
     ===================

     electrostatic problem to solve    =                    modpb
     numerical solver adopted          =                   newton
     type of auxiliary density adopted =                     none
     numerical core for poisson        =                      fft
     adopting a nested solver scheme
     inner solver                      =                       cg
     inner core                        =                      fft
     type of pbc corrections           =                parabolic
     numerical core for corrections    =                      1da

     ================================================================================
 

     celldm(1)=  18.360747  celldm(2)=   0.866025  celldm(3)=   5.240449
     celldm(4)=  -0.288675  celldm(5)=   0.000000  celldm(6)=   0.000000

     crystal axes: (cart. coord. in units of alat)
               a(1) = (   1.000000   0.000000   0.000000 )  
               a(2) = (  -0.250000   0.829156   0.000000 )  
               a(3) = (   0.000000   0.000000   5.240449 )  

     reciprocal axes: (cart. coord. in units 2 pi/alat)
               b(1) = (  1.000000  0.301511  0.000000 )  
               b(2) = (  0.000000  1.206046  0.000000 )  
               b(3) = (  0.000000  0.000000  0.190823 )  


     PseudoPot. # 1 for Li read from file:
     /home/ba3g18/Repos/Pseudopotentials/pslibrary.1.0.0/pbe/PSEUDOPOTENTIALS/Li.pbe-sl-kjpaw_psl.1.0.0.UPF
     MD5 check sum: 3f4d2cafebb47c6c3aa8ed472e6f074d
     Pseudo is Projector augmented-wave, Zval =  3.0
     Generated using 'atomic' code by A. Dal Corso  v.7.4
     Shape of augmentation charge: PSQ
     Using radial grid of 1017 points,  4 beta functions with: 
                l(1) =   0
                l(2) =   0
                l(3) =   1
                l(4) =   1
     Q(r) pseudized with 0 coefficients 


     atomic species   valence    mass     pseudopotential
     Li                3.00     6.94000     Li( 1.00)

     No symmetry found


                                    s                        frac. trans.

      isym =  1     identity                                     

 cryst.   s( 1) = (     1          0          0      )
                  (     0          1          0      )
                  (     0          0          1      )

 cart.    s( 1) = (  1.0000000  0.0000000  0.0000000 )
                  (  0.0000000  1.0000000  0.0000000 )
                  (  0.0000000  0.0000000  1.0000000 )


     point group C_1 (1)    
     there are  1 classes
     the character table:

       E    
A      1.00

     the symmetry operations in each class and the name of the first element:

     E        1
          identity                                               

   Cartesian axes

     site n.     atom                  positions (alat units)
         1        Li     tau(   1) = (  -0.2502907   0.7797849   2.0584415  )
         2        Li     tau(   2) = (   0.2503197   0.2502198   3.1391333  )
         3        Li     tau(   3) = (   0.0003271   0.4531689   3.0217344  )
         4        Li     tau(   4) = (   0.2502170   0.6750897   2.9037234  )
         5        Li     tau(   5) = (   0.2501499   0.0794339   2.8066152  )
         6        Li     tau(   6) = (   0.0000807   0.3011623   2.7050011  )
         7        Li     tau(   7) = (   0.2499698   0.5247653   2.5991032  )
         8        Li     tau(   8) = (  -0.0000805   0.7526285   2.4880610  )
         9        Li     tau(   9) = (  -0.0002182   0.1526530   2.3702056  )
        10        Li     tau(  10) = (   0.2497156   0.3867139   2.2656761  )
        11        Li     tau(  11) = (  -0.0003366   0.5936068   2.1729130  )
        12        Li     tau(  12) = (   0.0002844   0.1409322   2.9747741  )
        13        Li     tau(  13) = (   0.2502184   0.3749923   2.8702446  )
        14        Li     tau(  14) = (   0.0000804   0.6041702   2.7523907  )
        15        Li     tau(  15) = (   0.2500303   0.8320363   2.6413459  )
        16        Li     tau(  16) = (   0.2499195   0.2264824   2.5354491  )
        17        Li     tau(  17) = (  -0.0001499   0.4482100   2.4338345  )
        18        Li     tau(  18) = (   0.2497827   0.6817133   2.3367260  )
        19        Li     tau(  19) = (   0.2496730   0.0744752   2.2187170  )
        20        Li     tau(  20) = (  -0.0003199   0.2774254   2.1013171  )
        21        Li     tau(  21) = (   0.2502906   0.5770159   3.1820072  )
        22        Li     tau(  22) = (   0.0003366   0.7631943   3.0675381  )
        23        Li     tau(  23) = (   0.2497093   0.7797848   2.0584414  )
        24        Li     tau(  24) = (   0.7503198   0.2502198   3.1391333  )
        25        Li     tau(  25) = (   0.5003271   0.4531689   3.0217346  )
        26        Li     tau(  26) = (   0.7502171   0.6750896   2.9037233  )
        27        Li     tau(  27) = (   0.7501499   0.0794339   2.8066152  )
        28        Li     tau(  28) = (   0.5000808   0.3011622   2.7050009  )
        29        Li     tau(  29) = (   0.7499697   0.5247652   2.5991033  )
        30        Li     tau(  30) = (   0.4999194   0.7526284   2.4880610  )
        31        Li     tau(  31) = (   0.4997817   0.1526530   2.3702055  )
        32        Li     tau(  32) = (   0.7497155   0.3867139   2.2656761  )
        33        Li     tau(  33) = (   0.4996634   0.5936069   2.1729130  )
        34        Li     tau(  34) = (   0.5002844   0.1409323   2.9747742  )
        35        Li     tau(  35) = (   0.7502183   0.3749923   2.8702446  )
        36        Li     tau(  36) = (   0.5000804   0.6041702   2.7523908  )
        37        Li     tau(  37) = (   0.7500303   0.8320364   2.6413459  )
        38        Li     tau(  38) = (   0.7499196   0.2264824   2.5354491  )
        39        Li     tau(  39) = (   0.4998501   0.4482100   2.4338346  )
        40        Li     tau(  40) = (   0.7497828   0.6817134   2.3367259  )
        41        Li     tau(  41) = (   0.7496729   0.0744752   2.2187170  )
        42        Li     tau(  42) = (   0.4996802   0.2774254   2.1013170  )
        43        Li     tau(  43) = (   0.7502907   0.5770159   3.1820071  )
        44        Li     tau(  44) = (   0.5003366   0.7631943   3.0675380  )

   Crystallographic axes

     site n.     atom                  positions (cryst. coord.)
         1        Li     tau(   1) = ( -0.0151766  0.9404562  0.3927987  )
         2        Li     tau(   2) = (  0.3257639  0.3017765  0.5990199  )
         3        Li     tau(   3) = (  0.1369627  0.5465424  0.5766175  )
         4        Li     tau(   4) = (  0.4537642  0.8141890  0.5540982  )
         5        Li     tau(   5) = (  0.2741002  0.0958009  0.5355677  )
         6        Li     tau(   6) = (  0.0908846  0.3632154  0.5161774  )
         7        Li     tau(   7) = (  0.4081925  0.6328909  0.4959696  )
         8        Li     tau(   8) = (  0.2268455  0.9077043  0.4747801  )
         9        Li     tau(   9) = (  0.0458084  0.1841065  0.4522906  )
        10        Li     tau(  10) = (  0.3663142  0.4663946  0.4323439  )
        11        Li     tau(  11) = (  0.1786426  0.7159170  0.4146425  )
        12        Li     tau(  12) = (  0.0427770  0.1699706  0.5676564  )
        13        Li     tau(  13) = (  0.3632829  0.4522579  0.5477097  )
        14        Li     tau(  14) = (  0.1822446  0.7286569  0.5252204  )
        15        Li     tau(  15) = (  0.5008987  1.0034738  0.5040305  )
        16        Li     tau(  16) = (  0.3182065  0.2731482  0.4838229  )
        17        Li     tau(  17) = (  0.1349906  0.5405618  0.4644325  )
        18        Li     tau(  18) = (  0.4553271  0.8221774  0.4459019  )
        19        Li     tau(  19) = (  0.2721281  0.0898205  0.4233830  )
        20        Li     tau(  20) = (  0.0833270  0.3345877  0.4009804  )
        21        Li     tau(  21) = (  0.4242675  0.6959075  0.6072013  )
        22        Li     tau(  22) = (  0.2304484  0.9204471  0.5853579  )
        23        Li     tau(  23) = (  0.4848233  0.9404561  0.3927987  )
        24        Li     tau(  24) = (  0.8257639  0.3017765  0.5990200  )
        25        Li     tau(  25) = (  0.6369627  0.5465423  0.5766175  )
        26        Li     tau(  26) = (  0.9537643  0.8141889  0.5540982  )
        27        Li     tau(  27) = (  0.7741002  0.0958009  0.5355677  )
        28        Li     tau(  28) = (  0.5908846  0.3632154  0.5161774  )
        29        Li     tau(  29) = (  0.9081924  0.6328909  0.4959696  )
        30        Li     tau(  30) = (  0.7268455  0.9077042  0.4747801  )
        31        Li     tau(  31) = (  0.5458084  0.1841065  0.4522906  )
        32        Li     tau(  32) = (  0.8663142  0.4663946  0.4323439  )
        33        Li     tau(  33) = (  0.6786427  0.7159170  0.4146425  )
        34        Li     tau(  34) = (  0.5427771  0.1699708  0.5676564  )
        35        Li     tau(  35) = (  0.8632827  0.4522578  0.5477097  )
        36        Li     tau(  36) = (  0.6822446  0.7286568  0.5252204  )
        37        Li     tau(  37) = (  1.0008988  1.0034739  0.5040305  )
        38        Li     tau(  38) = (  0.8182066  0.2731481  0.4838229  )
        39        Li     tau(  39) = (  0.6349905  0.5405618  0.4644325  )
        40        Li     tau(  40) = (  0.9553272  0.8221775  0.4459019  )
        41        Li     tau(  41) = (  0.7721280  0.0898205  0.4233830  )
        42        Li     tau(  42) = (  0.5833271  0.3345877  0.4009804  )
        43        Li     tau(  43) = (  0.9242675  0.6959075  0.6072013  )
        44        Li     tau(  44) = (  0.7304484  0.9204471  0.5853579  )

     number of k points=    29  Marzari-Vanderbilt smearing, width (Ry)=  0.0100
                       cart. coord. in units 2pi/alat
        k(    1) = (   0.0000000   0.0000000   0.0000000), wk =   0.0357143
        k(    2) = (   0.0000000   0.1507557   0.0000000), wk =   0.0714286
        k(    3) = (   0.0000000   0.3015114   0.0000000), wk =   0.0714286
        k(    4) = (   0.0000000   0.4522671   0.0000000), wk =   0.0714286
        k(    5) = (   0.0000000  -0.6030228   0.0000000), wk =   0.0357143
        k(    6) = (   0.1428571   0.0430731   0.0000000), wk =   0.0714286
        k(    7) = (   0.1428571   0.1938288   0.0000000), wk =   0.0714286
        k(    8) = (   0.1428571   0.3445845   0.0000000), wk =   0.0714286
        k(    9) = (   0.1428571   0.4953402   0.0000000), wk =   0.0714286
        k(   10) = (   0.1428571  -0.5599498   0.0000000), wk =   0.0714286
        k(   11) = (   0.1428571  -0.4091941   0.0000000), wk =   0.0714286
        k(   12) = (   0.1428571  -0.2584384   0.0000000), wk =   0.0714286
        k(   13) = (   0.1428571  -0.1076826   0.0000000), wk =   0.0714286
        k(   14) = (   0.2857143   0.0861461   0.0000000), wk =   0.0714286
        k(   15) = (   0.2857143   0.2369018   0.0000000), wk =   0.0714286
        k(   16) = (   0.2857143   0.3876575   0.0000000), wk =   0.0714286
        k(   17) = (   0.2857143   0.5384132   0.0000000), wk =   0.0714286
        k(   18) = (   0.2857143  -0.5168767   0.0000000), wk =   0.0714286
        k(   19) = (   0.2857143  -0.3661210   0.0000000), wk =   0.0714286
        k(   20) = (   0.2857143  -0.2153653   0.0000000), wk =   0.0714286
        k(   21) = (   0.2857143  -0.0646096   0.0000000), wk =   0.0714286
        k(   22) = (   0.4285714   0.1292192   0.0000000), wk =   0.0714286
        k(   23) = (   0.4285714   0.2799749   0.0000000), wk =   0.0714286
        k(   24) = (   0.4285714   0.4307306   0.0000000), wk =   0.0714286
        k(   25) = (   0.4285714   0.5814863   0.0000000), wk =   0.0714286
        k(   26) = (   0.4285714  -0.4738037   0.0000000), wk =   0.0714286
        k(   27) = (   0.4285714  -0.3230479   0.0000000), wk =   0.0714286
        k(   28) = (   0.4285714  -0.1722922   0.0000000), wk =   0.0714286
        k(   29) = (   0.4285714  -0.0215365   0.0000000), wk =   0.0714286

                       cryst. coord.
        k(    1) = (   0.0000000   0.0000000   0.0000000), wk =   0.0357143
        k(    2) = (   0.0000000   0.1250000   0.0000000), wk =   0.0714286
        k(    3) = (   0.0000000   0.2500000   0.0000000), wk =   0.0714286
        k(    4) = (   0.0000000   0.3750000   0.0000000), wk =   0.0714286
        k(    5) = (   0.0000000  -0.5000000   0.0000000), wk =   0.0357143
        k(    6) = (   0.1428571   0.0000000   0.0000000), wk =   0.0714286
        k(    7) = (   0.1428571   0.1250000   0.0000000), wk =   0.0714286
        k(    8) = (   0.1428571   0.2500000   0.0000000), wk =   0.0714286
        k(    9) = (   0.1428571   0.3750000   0.0000000), wk =   0.0714286
        k(   10) = (   0.1428571  -0.5000000   0.0000000), wk =   0.0714286
        k(   11) = (   0.1428571  -0.3750000   0.0000000), wk =   0.0714286
        k(   12) = (   0.1428571  -0.2500000   0.0000000), wk =   0.0714286
        k(   13) = (   0.1428571  -0.1250000   0.0000000), wk =   0.0714286
        k(   14) = (   0.2857143   0.0000000   0.0000000), wk =   0.0714286
        k(   15) = (   0.2857143   0.1250000   0.0000000), wk =   0.0714286
        k(   16) = (   0.2857143   0.2500000   0.0000000), wk =   0.0714286
        k(   17) = (   0.2857143   0.3750000   0.0000000), wk =   0.0714286
        k(   18) = (   0.2857143  -0.5000000   0.0000000), wk =   0.0714286
        k(   19) = (   0.2857143  -0.3750000   0.0000000), wk =   0.0714286
        k(   20) = (   0.2857143  -0.2500000   0.0000000), wk =   0.0714286
        k(   21) = (   0.2857143  -0.1250000   0.0000000), wk =   0.0714286
        k(   22) = (   0.4285714   0.0000000   0.0000000), wk =   0.0714286
        k(   23) = (   0.4285714   0.1250000   0.0000000), wk =   0.0714286
        k(   24) = (   0.4285714   0.2500000   0.0000000), wk =   0.0714286
        k(   25) = (   0.4285714   0.3750000   0.0000000), wk =   0.0714286
        k(   26) = (   0.4285714  -0.5000000   0.0000000), wk =   0.0714286
        k(   27) = (   0.4285714  -0.3750000   0.0000000), wk =   0.0714286
        k(   28) = (   0.4285714  -0.2500000   0.0000000), wk =   0.0714286
        k(   29) = (   0.4285714  -0.1250000   0.0000000), wk =   0.0714286

     Dense  grid: 10277287 G-vectors     FFT dimensions: ( 180, 144, 900)

     Smooth grid:  2600241 G-vectors     FFT dimensions: ( 108,  96, 576)

     Dynamical RAM for                 wfc:       2.56 MB

     Dynamical RAM for     wfc (w. buffer):      76.68 MB

     Dynamical RAM for           str. fact:       0.82 MB

     Dynamical RAM for           local pot:       0.00 MB

     Dynamical RAM for          nlocal pot:       9.09 MB

     Dynamical RAM for                qrad:       0.65 MB

     Dynamical RAM for          rho,v,vnew:       5.42 MB

     Dynamical RAM for               rhoin:       1.81 MB

     Dynamical RAM for            rho*nmix:      13.06 MB

     Dynamical RAM for           G-vectors:       3.16 MB

     Dynamical RAM for          h,s,v(r/c):       1.79 MB

     Dynamical RAM for          <psi|beta>:       0.53 MB

     Dynamical RAM for                 psi:       5.11 MB

     Dynamical RAM for                hpsi:       5.11 MB

     Dynamical RAM for                spsi:       5.11 MB

     Dynamical RAM for      wfcinit/wfcrot:       5.34 MB

     Dynamical RAM for           addusdens:      71.02 MB

     Dynamical RAM for          addusforce:     141.67 MB

     Estimated static dynamical RAM per process >     104.19 MB

     Estimated max dynamical RAM per process >     258.92 MB

     Estimated total dynamical RAM >      48.55 GB

     Initial potential from superposition of free atoms

     starting charge     131.7972, renormalised to     132.0000

     negative rho (up, down):  4.508E-03 0.000E+00
     Starting wfcs are random
     Checking if some PAW data can be deallocated... 

     total cpu time spent up to now is       17.6 secs

     Self-consistent Calculation

     iteration #  1     ecut=    80.00 Ry     beta= 0.20
     Davidson diagonalization with overlap

---- Real-time Memory Report at c_bands before calling an iterative solver
           934 MiB given to the printing process from OS
             0 MiB allocation reported by mallinfo(arena+hblkhd)
        592670 MiB available memory on the node where the printing process lives
------------------
     ethr =  1.00E-02,  avg # of iterations = 12.5

     negative rho (up, down):  1.736E-04 0.000E+00

     total cpu time spent up to now is       79.7 secs

     total energy              =    -658.99134562 Ry
     estimated scf accuracy    <       6.58003988 Ry
     electrostatic embedding   =       0.00000000 Ry
     cavitation energy         =       0.03417655 Ry
     electrolyte free energy   =       0.01157605 Ry
     correction to one-el term =       0.00000000 Ry

     iteration #  2     ecut=    80.00 Ry     beta= 0.20
     Davidson diagonalization with overlap

---- Real-time Memory Report at c_bands before calling an iterative solver
           934 MiB given to the printing process from OS
             0 MiB allocation reported by mallinfo(arena+hblkhd)
        586601 MiB available memory on the node where the printing process lives
------------------
     ethr =  4.98E-03,  avg # of iterations =  4.8

     negative rho (up, down):  1.364E-05 0.000E+00

     total cpu time spent up to now is      103.3 secs

     total energy              =    -660.24090404 Ry
     estimated scf accuracy    <       1.94881778 Ry
     electrostatic embedding   =       0.00000000 Ry
     cavitation energy         =       0.03417655 Ry
     electrolyte free energy   =       0.01157605 Ry
     correction to one-el term =       0.00000000 Ry

     iteration #  3     ecut=    80.00 Ry     beta= 0.20
     Davidson diagonalization with overlap

---- Real-time Memory Report at c_bands before calling an iterative solver
           934 MiB given to the printing process from OS
             0 MiB allocation reported by mallinfo(arena+hblkhd)
        585679 MiB available memory on the node where the printing process lives
------------------
     ethr =  1.48E-03,  avg # of iterations =  5.3

     negative rho (up, down):  5.728E-06 0.000E+00

     total cpu time spent up to now is      135.4 secs

     total energy              =    -661.44520213 Ry
     estimated scf accuracy    <       0.39971357 Ry
     electrostatic embedding   =       0.00000000 Ry
     cavitation energy         =       0.03417655 Ry
     electrolyte free energy   =       0.01157605 Ry
     correction to one-el term =       0.00000000 Ry

     iteration #  4     ecut=    80.00 Ry     beta= 0.20
     Davidson diagonalization with overlap

---- Real-time Memory Report at c_bands before calling an iterative solver
          1027 MiB given to the printing process from OS
             0 MiB allocation reported by mallinfo(arena+hblkhd)
        585126 MiB available memory on the node where the printing process lives
------------------
     ethr =  3.03E-04,  avg # of iterations =  6.5

     negative rho (up, down):  4.304E-06 0.000E+00

     total cpu time spent up to now is      163.4 secs

     total energy              =    -661.61243886 Ry
     estimated scf accuracy    <       0.46391124 Ry
     electrostatic embedding   =       0.00000000 Ry
     cavitation energy         =       0.03417655 Ry
     electrolyte free energy   =       0.01157605 Ry
     correction to one-el term =       0.00000000 Ry

     iteration #  5     ecut=    80.00 Ry     beta= 0.20
     Davidson diagonalization with overlap

---- Real-time Memory Report at c_bands before calling an iterative solver
          1101 MiB given to the printing process from OS
             0 MiB allocation reported by mallinfo(arena+hblkhd)
        581932 MiB available memory on the node where the printing process lives
------------------
     ethr =  3.03E-04,  avg # of iterations =  1.2

     negative rho (up, down):  1.028E-04 0.000E+00

     total cpu time spent up to now is      179.3 secs

     total energy              =    -661.52380586 Ry
     estimated scf accuracy    <       0.52128524 Ry
     electrostatic embedding   =       0.00000000 Ry
     cavitation energy         =       0.03417655 Ry
     electrolyte free energy   =       0.01157605 Ry
     correction to one-el term =       0.00000000 Ry

     iteration #  6     ecut=    80.00 Ry     beta= 0.20
     Davidson diagonalization with overlap

---- Real-time Memory Report at c_bands before calling an iterative solver
          1157 MiB given to the printing process from OS
             0 MiB allocation reported by mallinfo(arena+hblkhd)
        581888 MiB available memory on the node where the printing process lives
------------------
     ethr =  3.03E-04,  avg # of iterations =  4.8

     negative rho (up, down):  4.676E-05 0.000E+00

     total cpu time spent up to now is      198.7 secs

     total energy              =    -661.54319175 Ry
     estimated scf accuracy    <       0.11825996 Ry
     electrostatic embedding   =       0.00000000 Ry
     cavitation energy         =       0.03417655 Ry
     electrolyte free energy   =       0.01157605 Ry
     correction to one-el term =       0.00000000 Ry

     iteration #  7     ecut=    80.00 Ry     beta= 0.20
     Davidson diagonalization with overlap

---- Real-time Memory Report at c_bands before calling an iterative solver
          1207 MiB given to the printing process from OS
             0 MiB allocation reported by mallinfo(arena+hblkhd)
        581823 MiB available memory on the node where the printing process lives
------------------
     ethr =  8.96E-05,  avg # of iterations =  9.2

     negative rho (up, down):  1.323E-05 0.000E+00

     add environment contribution to local potential

     total cpu time spent up to now is      229.4 secs

     total energy              =    -661.53353866 Ry
     estimated scf accuracy    <       0.07197888 Ry
     electrostatic embedding   =       0.00000000 Ry
     cavitation energy         =       0.03417655 Ry
     electrolyte free energy   =       0.01157605 Ry
     correction to one-el term =       0.00000000 Ry

     iteration #  8     ecut=    80.00 Ry     beta= 0.20
     Davidson diagonalization with overlap

---- Real-time Memory Report at c_bands before calling an iterative solver
          1254 MiB given to the printing process from OS
             0 MiB allocation reported by mallinfo(arena+hblkhd)
        583712 MiB available memory on the node where the printing process lives
------------------
     c_bands:  4 eigenvalues not converged
     c_bands:  4 eigenvalues not converged
     c_bands:  5 eigenvalues not converged
     c_bands:  2 eigenvalues not converged
     c_bands:  1 eigenvalues not converged
     c_bands:  2 eigenvalues not converged
     c_bands:  1 eigenvalues not converged
     c_bands:  2 eigenvalues not converged
     c_bands:  1 eigenvalues not converged
     c_bands:  3 eigenvalues not converged
     c_bands:  3 eigenvalues not converged
     c_bands:  1 eigenvalues not converged
     c_bands:  1 eigenvalues not converged
     c_bands:  2 eigenvalues not converged
     c_bands:  3 eigenvalues not converged
     c_bands:  2 eigenvalues not converged
     c_bands:  1 eigenvalues not converged
     c_bands:  2 eigenvalues not converged
     c_bands:  3 eigenvalues not converged
     c_bands:  2 eigenvalues not converged
     c_bands:  2 eigenvalues not converged
     c_bands:  2 eigenvalues not converged
     c_bands:  2 eigenvalues not converged
     ethr =  5.45E-05,  avg # of iterations = 19.3

     negative rho (up, down):  9.578E-06 0.000E+00

     add environment contribution to local potential

     total cpu time spent up to now is      280.7 secs

     total energy              =    -661.55626948 Ry
     estimated scf accuracy    <       0.05478165 Ry
     electrostatic embedding   =      -0.06299973 Ry
     cavitation energy         =       0.03417655 Ry
     electrolyte free energy   =      -0.00149878 Ry
     correction to one-el term =      -8.15369519 Ry

     iteration #  9     ecut=    80.00 Ry     beta= 0.20
     Davidson diagonalization with overlap

---- Real-time Memory Report at c_bands before calling an iterative solver
          1313 MiB given to the printing process from OS
             0 MiB allocation reported by mallinfo(arena+hblkhd)
        580465 MiB available memory on the node where the printing process lives
------------------
     ethr =  4.15E-05,  avg # of iterations =  2.8

     negative rho (up, down):  7.473E-06 0.000E+00

     add environment contribution to local potential

     total cpu time spent up to now is      304.2 secs

     total energy              =    -661.55726699 Ry
     estimated scf accuracy    <       0.05692893 Ry
     electrostatic embedding   =      -0.06373998 Ry
     cavitation energy         =       0.03417655 Ry
     electrolyte free energy   =      -0.00150889 Ry
     correction to one-el term =      -7.94899757 Ry

     iteration # 10     ecut=    80.00 Ry     beta= 0.20
     Davidson diagonalization with overlap

---- Real-time Memory Report at c_bands before calling an iterative solver
          1352 MiB given to the printing process from OS
             0 MiB allocation reported by mallinfo(arena+hblkhd)
        580435 MiB available memory on the node where the printing process lives
------------------
     ethr =  4.15E-05,  avg # of iterations =  1.0

     negative rho (up, down):  9.523E-06 0.000E+00

     add environment contribution to local potential

     total cpu time spent up to now is      325.2 secs

     total energy              =    -661.54844677 Ry
     estimated scf accuracy    <       0.05177694 Ry
     electrostatic embedding   =      -0.06408846 Ry
     cavitation energy         =       0.03417655 Ry
     electrolyte free energy   =      -0.00144210 Ry
     correction to one-el term =      -7.84517275 Ry

     iteration # 11     ecut=    80.00 Ry     beta= 0.20
     Davidson diagonalization with overlap

---- Real-time Memory Report at c_bands before calling an iterative solver
          1384 MiB given to the printing process from OS
             0 MiB allocation reported by mallinfo(arena+hblkhd)
        580412 MiB available memory on the node where the printing process lives
------------------
     ethr =  3.92E-05,  avg # of iterations =  8.5

     negative rho (up, down):  7.559E-03 0.000E+00

     add environment contribution to local potential

     total cpu time spent up to now is      355.9 secs

     total energy              =    -661.55575222 Ry
     estimated scf accuracy    <       0.03545362 Ry
     electrostatic embedding   =      -0.06435184 Ry
     cavitation energy         =       0.03417655 Ry
     electrolyte free energy   =      -0.00135978 Ry
     correction to one-el term =      -6.33149535 Ry

     iteration # 12     ecut=    80.00 Ry     beta= 0.20
     Davidson diagonalization with overlap

---- Real-time Memory Report at c_bands before calling an iterative solver
          1417 MiB given to the printing process from OS
             0 MiB allocation reported by mallinfo(arena+hblkhd)
        580380 MiB available memory on the node where the printing process lives
------------------
     c_bands:  1 eigenvalues not converged
     ethr =  2.69E-05,  avg # of iterations =  9.3

     negative rho (up, down):  2.598E-02 0.000E+00

     add environment contribution to local potential

     total cpu time spent up to now is      386.6 secs

     total energy              =    -661.57426901 Ry
     estimated scf accuracy    <       0.03879771 Ry
     electrostatic embedding   =      -0.05617387 Ry
     cavitation energy         =       0.03417655 Ry
     electrolyte free energy   =      -0.00234455 Ry
     correction to one-el term =      -4.91943322 Ry

     iteration # 13     ecut=    80.00 Ry     beta= 0.20
     Davidson diagonalization with overlap

---- Real-time Memory Report at c_bands before calling an iterative solver
          1448 MiB given to the printing process from OS
             0 MiB allocation reported by mallinfo(arena+hblkhd)
        580363 MiB available memory on the node where the printing process lives
------------------
     c_bands:  2 eigenvalues not converged
     c_bands:  1 eigenvalues not converged
     c_bands:  2 eigenvalues not converged
     c_bands:  2 eigenvalues not converged
     ethr =  2.69E-05,  avg # of iterations = 13.1

     negative rho (up, down):  3.758E-02 0.000E+00

     total cpu time spent up to now is      417.2 secs

     total energy              =    -661.56729645 Ry
     estimated scf accuracy    <       0.39381591 Ry
     electrostatic embedding   =      -0.04955364 Ry
     cavitation energy         =       0.03417655 Ry
     electrolyte free energy   =      -0.00375364 Ry
     correction to one-el term =      -2.18389880 Ry

     iteration # 14     ecut=    80.00 Ry     beta= 0.20
     Davidson diagonalization with overlap

---- Real-time Memory Report at c_bands before calling an iterative solver
          1479 MiB given to the printing process from OS
             0 MiB allocation reported by mallinfo(arena+hblkhd)
        580293 MiB available memory on the node where the printing process lives
------------------
     ethr =  2.69E-05,  avg # of iterations =  4.4

     negative rho (up, down):  6.015E-02 0.000E+00

     add environment contribution to local potential

     total cpu time spent up to now is      441.8 secs

     total energy              =    -661.56794193 Ry
     estimated scf accuracy    <       0.09880241 Ry
     electrostatic embedding   =      -0.05022551 Ry
     cavitation energy         =       0.03417655 Ry
     electrolyte free energy   =      -0.00375364 Ry
     correction to one-el term =      -2.18255504 Ry

     iteration # 15     ecut=    80.00 Ry     beta= 0.20
     Davidson diagonalization with overlap

---- Real-time Memory Report at c_bands before calling an iterative solver
          1498 MiB given to the printing process from OS
             0 MiB allocation reported by mallinfo(arena+hblkhd)
        580279 MiB available memory on the node where the printing process lives
------------------
     ethr =  2.69E-05,  avg # of iterations =  2.4

     negative rho (up, down):  7.788E-02 0.000E+00

     add environment contribution to local potential

     total cpu time spent up to now is      464.6 secs

     total energy              =    -661.57535197 Ry
     estimated scf accuracy    <       0.07376374 Ry
     electrostatic embedding   =      -0.05508247 Ry
     cavitation energy         =       0.03417655 Ry
     electrolyte free energy   =      -0.00259832 Ry
     correction to one-el term =      -1.96585580 Ry

     iteration # 16     ecut=    80.00 Ry     beta= 0.20
     Davidson diagonalization with overlap

---- Real-time Memory Report at c_bands before calling an iterative solver
          1526 MiB given to the printing process from OS
             0 MiB allocation reported by mallinfo(arena+hblkhd)
        580265 MiB available memory on the node where the printing process lives
------------------
     ethr =  2.69E-05,  avg # of iterations =  5.8

     negative rho (up, down):  8.698E-02 0.000E+00

     total cpu time spent up to now is      485.0 secs

     total energy              =    -661.57669901 Ry
     estimated scf accuracy    <       0.20472506 Ry
     electrostatic embedding   =      -0.05379602 Ry
     cavitation energy         =       0.03417655 Ry
     electrolyte free energy   =      -0.00287973 Ry
     correction to one-el term =      -0.19192703 Ry

     iteration # 17     ecut=    80.00 Ry     beta= 0.20
     Davidson diagonalization with overlap

---- Real-time Memory Report at c_bands before calling an iterative solver
          1550 MiB given to the printing process from OS
             0 MiB allocation reported by mallinfo(arena+hblkhd)
        580251 MiB available memory on the node where the printing process lives
------------------
     c_bands:  1 eigenvalues not converged
     c_bands:  1 eigenvalues not converged
     c_bands:  1 eigenvalues not converged
     ethr =  2.69E-05,  avg # of iterations = 13.1

     negative rho (up, down):  9.493E-02 0.000E+00

     total cpu time spent up to now is      512.8 secs

     total energy              =    -661.57449311 Ry
     estimated scf accuracy    <       0.20170334 Ry
     electrostatic embedding   =      -0.04943159 Ry
     cavitation energy         =       0.03417655 Ry
     electrolyte free energy   =      -0.00287973 Ry
     correction to one-el term =      -0.20065589 Ry

     iteration # 18     ecut=    80.00 Ry     beta= 0.20
     Davidson diagonalization with overlap

---- Real-time Memory Report at c_bands before calling an iterative solver
          1570 MiB given to the printing process from OS
             0 MiB allocation reported by mallinfo(arena+hblkhd)
        580243 MiB available memory on the node where the printing process lives
------------------
     ethr =  2.69E-05,  avg # of iterations =  1.7

     negative rho (up, down):  9.313E-02 0.000E+00

     add environment contribution to local potential

     total cpu time spent up to now is      534.9 secs

     total energy              =    -661.57701276 Ry
     estimated scf accuracy    <       0.09442103 Ry
     electrostatic embedding   =      -0.05006317 Ry
     cavitation energy         =       0.03417655 Ry
     electrolyte free energy   =      -0.00287973 Ry
     correction to one-el term =      -0.19939273 Ry

     iteration # 19     ecut=    80.00 Ry     beta= 0.20
     Davidson diagonalization with overlap

---- Real-time Memory Report at c_bands before calling an iterative solver
          1589 MiB given to the printing process from OS
             0 MiB allocation reported by mallinfo(arena+hblkhd)
        580232 MiB available memory on the node where the printing process lives
------------------
     ethr =  2.69E-05,  avg # of iterations =  8.5

     negative rho (up, down):  1.034E-01 0.000E+00

     total cpu time spent up to now is      557.0 secs

     total energy              =    -661.56163079 Ry
     estimated scf accuracy    <       0.12698024 Ry
     electrostatic embedding   =      -0.04892972 Ry
     cavitation energy         =       0.03417655 Ry
     electrolyte free energy   =      -0.00247485 Ry
     correction to one-el term =       1.70024263 Ry

     iteration # 20     ecut=    80.00 Ry     beta= 0.20
     Davidson diagonalization with overlap

---- Real-time Memory Report at c_bands before calling an iterative solver
          1610 MiB given to the printing process from OS
             0 MiB allocation reported by mallinfo(arena+hblkhd)
        580227 MiB available memory on the node where the printing process lives
------------------
     ethr =  2.69E-05,  avg # of iterations =  2.9

     negative rho (up, down):  1.051E-01 0.000E+00

     add environment contribution to local potential

     total cpu time spent up to now is      581.5 secs

     total energy              =    -661.56767462 Ry
     estimated scf accuracy    <       0.00548637 Ry
     electrostatic embedding   =      -0.04822149 Ry
     cavitation energy         =       0.03417655 Ry
     electrolyte free energy   =      -0.00247485 Ry
     correction to one-el term =       1.69882615 Ry

     iteration # 21     ecut=    80.00 Ry     beta= 0.20
     Davidson diagonalization with overlap

---- Real-time Memory Report at c_bands before calling an iterative solver
          1625 MiB given to the printing process from OS
             0 MiB allocation reported by mallinfo(arena+hblkhd)
        580209 MiB available memory on the node where the printing process lives
------------------
     c_bands:  1 eigenvalues not converged
     c_bands:  1 eigenvalues not converged
     c_bands:  1 eigenvalues not converged
     ethr =  4.16E-06,  avg # of iterations = 11.2

     negative rho (up, down):  8.251E-02 0.000E+00

     add environment contribution to local potential

     total cpu time spent up to now is      615.9 secs

     total energy              =    -661.56813359 Ry
     estimated scf accuracy    <       0.00433619 Ry
     electrostatic embedding   =      -0.04695702 Ry
     cavitation energy         =       0.03417655 Ry
     electrolyte free energy   =      -0.00182505 Ry
     correction to one-el term =       3.07890066 Ry

     iteration # 22     ecut=    80.00 Ry     beta= 0.20
     Davidson diagonalization with overlap

---- Real-time Memory Report at c_bands before calling an iterative solver
          1639 MiB given to the printing process from OS
             0 MiB allocation reported by mallinfo(arena+hblkhd)
        580202 MiB available memory on the node where the printing process lives
------------------
     c_bands:  1 eigenvalues not converged
     c_bands:  1 eigenvalues not converged
     c_bands:  1 eigenvalues not converged
     ethr =  3.28E-06,  avg # of iterations = 10.8

     negative rho (up, down):  6.187E-02 0.000E+00

     add environment contribution to local potential

     total cpu time spent up to now is      648.9 secs

     total energy              =    -661.56859031 Ry
     estimated scf accuracy    <       0.00297462 Ry
     electrostatic embedding   =      -0.04673287 Ry
     cavitation energy         =       0.03417655 Ry
     electrolyte free energy   =      -0.00176307 Ry
     correction to one-el term =       3.59801990 Ry

     iteration # 23     ecut=    80.00 Ry     beta= 0.20
     Davidson diagonalization with overlap

---- Real-time Memory Report at c_bands before calling an iterative solver
          1647 MiB given to the printing process from OS
             0 MiB allocation reported by mallinfo(arena+hblkhd)
        580190 MiB available memory on the node where the printing process lives
------------------
     c_bands:  1 eigenvalues not converged
     c_bands:  1 eigenvalues not converged
     c_bands:  1 eigenvalues not converged
     ethr =  2.25E-06,  avg # of iterations = 11.1

     negative rho (up, down):  6.140E-02 0.000E+00

     add environment contribution to local potential

     total cpu time spent up to now is      682.2 secs

     total energy              =    -661.56810055 Ry
     estimated scf accuracy    <       0.00215427 Ry
     electrostatic embedding   =      -0.04631189 Ry
     cavitation energy         =       0.03417655 Ry
     electrolyte free energy   =      -0.00172463 Ry
     correction to one-el term =       4.16328622 Ry

     iteration # 24     ecut=    80.00 Ry     beta= 0.20
     Davidson diagonalization with overlap

---- Real-time Memory Report at c_bands before calling an iterative solver
          1659 MiB given to the printing process from OS
             0 MiB allocation reported by mallinfo(arena+hblkhd)
        580172 MiB available memory on the node where the printing process lives
------------------
     c_bands:  1 eigenvalues not converged
     c_bands:  1 eigenvalues not converged
     ethr =  1.63E-06,  avg # of iterations = 11.7

     negative rho (up, down):  5.779E-02 0.000E+00

     add environment contribution to local potential

     total cpu time spent up to now is      718.5 secs

     total energy              =    -661.56900973 Ry
     estimated scf accuracy    <       0.00130996 Ry
     electrostatic embedding   =      -0.04725266 Ry
     cavitation energy         =       0.03417655 Ry
     electrolyte free energy   =      -0.00160216 Ry
     correction to one-el term =       5.72818485 Ry

     iteration # 25     ecut=    80.00 Ry     beta= 0.20
     Davidson diagonalization with overlap

---- Real-time Memory Report at c_bands before calling an iterative solver
          1669 MiB given to the printing process from OS
             0 MiB allocation reported by mallinfo(arena+hblkhd)
        580125 MiB available memory on the node where the printing process lives
------------------
     ethr =  9.92E-07,  avg # of iterations =  2.0

     negative rho (up, down):  3.579E-02 0.000E+00

     add environment contribution to local potential

     total cpu time spent up to now is      742.1 secs

     total energy              =    -661.56879895 Ry
     estimated scf accuracy    <       0.00104333 Ry
     electrostatic embedding   =      -0.04692013 Ry
     cavitation energy         =       0.03417655 Ry
     electrolyte free energy   =      -0.00160034 Ry
     correction to one-el term =       5.55188007 Ry

     iteration # 26     ecut=    80.00 Ry     beta= 0.20
     Davidson diagonalization with overlap

---- Real-time Memory Report at c_bands before calling an iterative solver
          1680 MiB given to the printing process from OS
             0 MiB allocation reported by mallinfo(arena+hblkhd)
        580113 MiB available memory on the node where the printing process lives
------------------
     c_bands:  1 eigenvalues not converged
     c_bands:  1 eigenvalues not converged
     c_bands:  1 eigenvalues not converged
     c_bands:  1 eigenvalues not converged
     c_bands:  1 eigenvalues not converged
     c_bands:  1 eigenvalues not converged
     c_bands:  1 eigenvalues not converged
     c_bands:  1 eigenvalues not converged
     c_bands:  1 eigenvalues not converged
     ethr =  7.90E-07,  avg # of iterations = 14.5

     negative rho (up, down):  3.235E-02 0.000E+00

     add environment contribution to local potential

     total cpu time spent up to now is      777.2 secs

     total energy              =    -661.56910328 Ry
     estimated scf accuracy    <       0.00063875 Ry
     electrostatic embedding   =      -0.04604290 Ry
     cavitation energy         =       0.03417655 Ry
     electrolyte free energy   =      -0.00169832 Ry
     correction to one-el term =       5.42850332 Ry

     iteration # 27     ecut=    80.00 Ry     beta= 0.20
     Davidson diagonalization with overlap

---- Real-time Memory Report at c_bands before calling an iterative solver
          1691 MiB given to the printing process from OS
             0 MiB allocation reported by mallinfo(arena+hblkhd)
        580100 MiB available memory on the node where the printing process lives
------------------
     c_bands:  1 eigenvalues not converged
     c_bands:  1 eigenvalues not converged
     ethr =  4.84E-07,  avg # of iterations =  4.0

     negative rho (up, down):  8.740E-03 0.000E+00

     add environment contribution to local potential

     total cpu time spent up to now is      801.7 secs

     total energy              =    -661.56926600 Ry
     estimated scf accuracy    <       0.00052354 Ry
     electrostatic embedding   =      -0.04615936 Ry
     cavitation energy         =       0.03417655 Ry
     electrolyte free energy   =      -0.00171577 Ry
     correction to one-el term =       5.64544973 Ry

     iteration # 28     ecut=    80.00 Ry     beta= 0.20
     Davidson diagonalization with overlap

---- Real-time Memory Report at c_bands before calling an iterative solver
          1700 MiB given to the printing process from OS
             0 MiB allocation reported by mallinfo(arena+hblkhd)
        580090 MiB available memory on the node where the printing process lives
------------------
     c_bands:  2 eigenvalues not converged
     c_bands:  2 eigenvalues not converged
     c_bands:  1 eigenvalues not converged
     c_bands:  2 eigenvalues not converged
     c_bands:  3 eigenvalues not converged
     c_bands:  3 eigenvalues not converged
     c_bands:  2 eigenvalues not converged
     c_bands:  1 eigenvalues not converged
     c_bands:  1 eigenvalues not converged
     c_bands:  1 eigenvalues not converged
     c_bands:  3 eigenvalues not converged
     c_bands:  1 eigenvalues not converged
     c_bands:  1 eigenvalues not converged
     c_bands:  1 eigenvalues not converged
     c_bands:  1 eigenvalues not converged
     ethr =  3.97E-07,  avg # of iterations = 17.7

     negative rho (up, down):  7.441E-03 0.000E+00

     add environment contribution to local potential

     total cpu time spent up to now is      844.9 secs

     total energy              =    -661.56973448 Ry
     estimated scf accuracy    <       0.00010387 Ry
     electrostatic embedding   =      -0.04634604 Ry
     cavitation energy         =       0.03417655 Ry
     electrolyte free energy   =      -0.00173213 Ry
     correction to one-el term =       7.01703967 Ry

     iteration # 29     ecut=    80.00 Ry     beta= 0.20
     Davidson diagonalization with overlap

---- Real-time Memory Report at c_bands before calling an iterative solver
          1710 MiB given to the printing process from OS
             0 MiB allocation reported by mallinfo(arena+hblkhd)
        580078 MiB available memory on the node where the printing process lives
------------------
     c_bands:  1 eigenvalues not converged
     c_bands:  2 eigenvalues not converged
     c_bands:  2 eigenvalues not converged
     c_bands:  2 eigenvalues not converged
     c_bands:  2 eigenvalues not converged
     c_bands:  2 eigenvalues not converged
     c_bands:  2 eigenvalues not converged
     ethr =  7.87E-08,  avg # of iterations = 15.2

     negative rho (up, down):  6.230E-03 0.000E+00

     add environment contribution to local potential

     total cpu time spent up to now is      884.9 secs

     total energy              =    -661.56978072 Ry
     estimated scf accuracy    <       0.00002203 Ry
     electrostatic embedding   =      -0.04548914 Ry
     cavitation energy         =       0.03417655 Ry
     electrolyte free energy   =      -0.00175763 Ry
     correction to one-el term =       6.91471790 Ry

     iteration # 30     ecut=    80.00 Ry     beta= 0.20
     Davidson diagonalization with overlap

---- Real-time Memory Report at c_bands before calling an iterative solver
          1717 MiB given to the printing process from OS
             0 MiB allocation reported by mallinfo(arena+hblkhd)
        580064 MiB available memory on the node where the printing process lives
------------------
     ethr =  1.67E-08,  avg # of iterations =  4.7

     negative rho (up, down):  2.715E-03 0.000E+00

     add environment contribution to local potential

     total cpu time spent up to now is      910.3 secs

     total energy              =    -661.56979301 Ry
     estimated scf accuracy    <       0.00001571 Ry
     electrostatic embedding   =      -0.04552118 Ry
     cavitation energy         =       0.03417655 Ry
     electrolyte free energy   =      -0.00175390 Ry
     correction to one-el term =       6.96910724 Ry

     iteration # 31     ecut=    80.00 Ry     beta= 0.20
     Davidson diagonalization with overlap

---- Real-time Memory Report at c_bands before calling an iterative solver
          1724 MiB given to the printing process from OS
             0 MiB allocation reported by mallinfo(arena+hblkhd)
        580062 MiB available memory on the node where the printing process lives
------------------
     c_bands:  1 eigenvalues not converged
     c_bands:  1 eigenvalues not converged
     c_bands:  1 eigenvalues not converged
     c_bands:  1 eigenvalues not converged
     c_bands:  1 eigenvalues not converged
     c_bands:  1 eigenvalues not converged
     ethr =  1.19E-08,  avg # of iterations = 14.0

     negative rho (up, down):  2.272E-03 0.000E+00

     add environment contribution to local potential

     total cpu time spent up to now is      946.4 secs

     total energy              =    -661.56979261 Ry
     estimated scf accuracy    <       0.00000330 Ry
     electrostatic embedding   =      -0.04533150 Ry
     cavitation energy         =       0.03417655 Ry
     electrolyte free energy   =      -0.00175312 Ry
     correction to one-el term =       6.90611713 Ry

     iteration # 32     ecut=    80.00 Ry     beta= 0.20
     Davidson diagonalization with overlap

---- Real-time Memory Report at c_bands before calling an iterative solver
          1731 MiB given to the printing process from OS
             0 MiB allocation reported by mallinfo(arena+hblkhd)
        580045 MiB available memory on the node where the printing process lives
------------------
     c_bands:  2 eigenvalues not converged
     ethr =  2.50E-09,  avg # of iterations =  5.7

     negative rho (up, down):  6.218E-04 0.000E+00

     add environment contribution to local potential

     total cpu time spent up to now is      976.0 secs

     total energy              =    -661.56978749 Ry
     estimated scf accuracy    <       0.00000231 Ry
     electrostatic embedding   =      -0.04533773 Ry
     cavitation energy         =       0.03417655 Ry
     electrolyte free energy   =      -0.00175312 Ry
     correction to one-el term =       6.89552142 Ry

     iteration # 33     ecut=    80.00 Ry     beta= 0.20
     Davidson diagonalization with overlap

---- Real-time Memory Report at c_bands before calling an iterative solver
          1737 MiB given to the printing process from OS
             0 MiB allocation reported by mallinfo(arena+hblkhd)
        579814 MiB available memory on the node where the printing process lives
------------------
     c_bands:  1 eigenvalues not converged
     c_bands:  2 eigenvalues not converged
     c_bands:  2 eigenvalues not converged
     c_bands:  1 eigenvalues not converged
     c_bands:  1 eigenvalues not converged
     c_bands:  2 eigenvalues not converged
     c_bands:  1 eigenvalues not converged
     c_bands:  2 eigenvalues not converged
     c_bands:  1 eigenvalues not converged
     c_bands:  1 eigenvalues not converged
     ethr =  1.75E-09,  avg # of iterations = 14.6

     negative rho (up, down):  9.360E-04 0.000E+00

     add environment contribution to local potential

     total cpu time spent up to now is     1011.6 secs

     total energy              =    -661.56978672 Ry
     estimated scf accuracy    <       0.00000115 Ry
     electrostatic embedding   =      -0.04541298 Ry
     cavitation energy         =       0.03417655 Ry
     electrolyte free energy   =      -0.00175092 Ry
     correction to one-el term =       6.94092783 Ry

     iteration # 34     ecut=    80.00 Ry     beta= 0.20
     Davidson diagonalization with overlap

---- Real-time Memory Report at c_bands before calling an iterative solver
          1743 MiB given to the printing process from OS
             0 MiB allocation reported by mallinfo(arena+hblkhd)
        579802 MiB available memory on the node where the printing process lives
------------------
     c_bands:  1 eigenvalues not converged
     ethr =  8.72E-10,  avg # of iterations =  6.6

     negative rho (up, down):  6.982E-04 0.000E+00

     add environment contribution to local potential

     total cpu time spent up to now is     1040.9 secs

     total energy              =    -661.56978773 Ry
     estimated scf accuracy    <       0.00000037 Ry
     electrostatic embedding   =      -0.04543906 Ry
     cavitation energy         =       0.03417655 Ry
     electrolyte free energy   =      -0.00175198 Ry
     correction to one-el term =       6.96871458 Ry

     iteration # 35     ecut=    80.00 Ry     beta= 0.20
     Davidson diagonalization with overlap

---- Real-time Memory Report at c_bands before calling an iterative solver
          1747 MiB given to the printing process from OS
             0 MiB allocation reported by mallinfo(arena+hblkhd)
        579694 MiB available memory on the node where the printing process lives
------------------
     ethr =  2.79E-10,  avg # of iterations =  4.3

     negative rho (up, down):  5.750E-04 0.000E+00

     add environment contribution to local potential

     total cpu time spent up to now is     1070.4 secs

     total energy              =    -661.56978865 Ry
     estimated scf accuracy    <       0.00000023 Ry
     electrostatic embedding   =      -0.04544313 Ry
     cavitation energy         =       0.03417655 Ry
     electrolyte free energy   =      -0.00175215 Ry
     correction to one-el term =       6.97125766 Ry

     iteration # 36     ecut=    80.00 Ry     beta= 0.20
     Davidson diagonalization with overlap

---- Real-time Memory Report at c_bands before calling an iterative solver
          1756 MiB given to the printing process from OS
             0 MiB allocation reported by mallinfo(arena+hblkhd)
        579677 MiB available memory on the node where the printing process lives
------------------
     ethr =  1.73E-10,  avg # of iterations =  2.0

     negative rho (up, down):  5.011E-04 0.000E+00

     add environment contribution to local potential

     total cpu time spent up to now is     1094.1 secs

     total energy              =    -661.56978964 Ry
     estimated scf accuracy    <       0.00000019 Ry
     electrostatic embedding   =      -0.04544387 Ry
     cavitation energy         =       0.03417655 Ry
     electrolyte free energy   =      -0.00175206 Ry
     correction to one-el term =       6.97112399 Ry

     iteration # 37     ecut=    80.00 Ry     beta= 0.20
     Davidson diagonalization with overlap

---- Real-time Memory Report at c_bands before calling an iterative solver
          1759 MiB given to the printing process from OS
             0 MiB allocation reported by mallinfo(arena+hblkhd)
        579667 MiB available memory on the node where the printing process lives
------------------
     ethr =  1.47E-10,  avg # of iterations =  4.3

     negative rho (up, down):  5.222E-04 0.000E+00

     add environment contribution to local potential

     total cpu time spent up to now is     1120.0 secs

     total energy              =    -661.56978994 Ry
     estimated scf accuracy    <       0.00000010 Ry
     electrostatic embedding   =      -0.04545061 Ry
     cavitation energy         =       0.03417655 Ry
     electrolyte free energy   =      -0.00175134 Ry
     correction to one-el term =       6.97451879 Ry

     iteration # 38     ecut=    80.00 Ry     beta= 0.20
     Davidson diagonalization with overlap

---- Real-time Memory Report at c_bands before calling an iterative solver
          1761 MiB given to the printing process from OS
             0 MiB allocation reported by mallinfo(arena+hblkhd)
        579660 MiB available memory on the node where the printing process lives
------------------
     ethr =  7.46E-11,  avg # of iterations =  3.0

     negative rho (up, down):  4.972E-04 0.000E+00

     add environment contribution to local potential

     total cpu time spent up to now is     1144.7 secs

     total energy              =    -661.56979006 Ry
     estimated scf accuracy    <       0.00000007 Ry
     electrostatic embedding   =      -0.04545973 Ry
     cavitation energy         =       0.03417655 Ry
     electrolyte free energy   =      -0.00175070 Ry
     correction to one-el term =       6.97861053 Ry

     iteration # 39     ecut=    80.00 Ry     beta= 0.20
     Davidson diagonalization with overlap

---- Real-time Memory Report at c_bands before calling an iterative solver
          1767 MiB given to the printing process from OS
             0 MiB allocation reported by mallinfo(arena+hblkhd)
        579657 MiB available memory on the node where the printing process lives
------------------
     ethr =  5.44E-11,  avg # of iterations =  1.9

     negative rho (up, down):  6.226E-04 0.000E+00

     add environment contribution to local potential

     total cpu time spent up to now is     1167.8 secs

     total energy              =    -661.56978953 Ry
     estimated scf accuracy    <       0.00000006 Ry
     electrostatic embedding   =      -0.04546331 Ry
     cavitation energy         =       0.03417655 Ry
     electrolyte free energy   =      -0.00175051 Ry
     correction to one-el term =       6.98146775 Ry

     iteration # 40     ecut=    80.00 Ry     beta= 0.20
     Davidson diagonalization with overlap

---- Real-time Memory Report at c_bands before calling an iterative solver
          1771 MiB given to the printing process from OS
             0 MiB allocation reported by mallinfo(arena+hblkhd)
        579648 MiB available memory on the node where the printing process lives
------------------
     ethr =  4.54E-11,  avg # of iterations =  3.6

     negative rho (up, down):  6.155E-04 0.000E+00

     add environment contribution to local potential

     total cpu time spent up to now is     1193.3 secs

     total energy              =    -661.56978958 Ry
     estimated scf accuracy    <       0.00000003 Ry
     electrostatic embedding   =      -0.04546498 Ry
     cavitation energy         =       0.03417655 Ry
     electrolyte free energy   =      -0.00174994 Ry
     correction to one-el term =       6.98652797 Ry

     iteration # 41     ecut=    80.00 Ry     beta= 0.20
     Davidson diagonalization with overlap

---- Real-time Memory Report at c_bands before calling an iterative solver
          1776 MiB given to the printing process from OS
             0 MiB allocation reported by mallinfo(arena+hblkhd)
        579640 MiB available memory on the node where the printing process lives
------------------
     ethr =  2.35E-11,  avg # of iterations =  2.0

     negative rho (up, down):  5.673E-04 0.000E+00

     add environment contribution to local potential

     total cpu time spent up to now is     1216.8 secs

     total energy              =    -661.56978962 Ry
     estimated scf accuracy    <       0.00000003 Ry
     electrostatic embedding   =      -0.04546388 Ry
     cavitation energy         =       0.03417655 Ry
     electrolyte free energy   =      -0.00175000 Ry
     correction to one-el term =       6.98646108 Ry

     iteration # 42     ecut=    80.00 Ry     beta= 0.20
     Davidson diagonalization with overlap

---- Real-time Memory Report at c_bands before calling an iterative solver
          1778 MiB given to the printing process from OS
             0 MiB allocation reported by mallinfo(arena+hblkhd)
        579645 MiB available memory on the node where the printing process lives
------------------
     ethr =  2.20E-11,  avg # of iterations =  3.3

     negative rho (up, down):  5.509E-04 0.000E+00

     add environment contribution to local potential

     total cpu time spent up to now is     1241.3 secs

     total energy              =    -661.56978971 Ry
     estimated scf accuracy    <       0.00000003 Ry
     electrostatic embedding   =      -0.04546170 Ry
     cavitation energy         =       0.03417655 Ry
     electrolyte free energy   =      -0.00175034 Ry
     correction to one-el term =       6.98755837 Ry

     iteration # 43     ecut=    80.00 Ry     beta= 0.20
     Davidson diagonalization with overlap

---- Real-time Memory Report at c_bands before calling an iterative solver
          1782 MiB given to the printing process from OS
             0 MiB allocation reported by mallinfo(arena+hblkhd)
        579643 MiB available memory on the node where the printing process lives
------------------
     ethr =  1.91E-11,  avg # of iterations =  2.0

     negative rho (up, down):  5.312E-04 0.000E+00

     add environment contribution to local potential

     total cpu time spent up to now is     1264.8 secs

     total energy              =    -661.56978993 Ry
     estimated scf accuracy    <       0.00000002 Ry
     electrostatic embedding   =      -0.04546110 Ry
     cavitation energy         =       0.03417655 Ry
     electrolyte free energy   =      -0.00175042 Ry
     correction to one-el term =       6.98841221 Ry

     iteration # 44     ecut=    80.00 Ry     beta= 0.20
     Davidson diagonalization with overlap

---- Real-time Memory Report at c_bands before calling an iterative solver
          1785 MiB given to the printing process from OS
             0 MiB allocation reported by mallinfo(arena+hblkhd)
        579633 MiB available memory on the node where the printing process lives
------------------
     ethr =  1.78E-11,  avg # of iterations =  2.8

     negative rho (up, down):  5.341E-04 0.000E+00

     add environment contribution to local potential

     total cpu time spent up to now is     1289.1 secs

     total energy              =    -661.56978990 Ry
     estimated scf accuracy    <       0.00000002 Ry
     electrostatic embedding   =      -0.04545844 Ry
     cavitation energy         =       0.03417655 Ry
     electrolyte free energy   =      -0.00175060 Ry
     correction to one-el term =       6.98826558 Ry

     iteration # 45     ecut=    80.00 Ry     beta= 0.20
     Davidson diagonalization with overlap

---- Real-time Memory Report at c_bands before calling an iterative solver
          1789 MiB given to the printing process from OS
             0 MiB allocation reported by mallinfo(arena+hblkhd)
        579630 MiB available memory on the node where the printing process lives
------------------
     ethr =  1.57E-11,  avg # of iterations =  1.8

     negative rho (up, down):  5.424E-04 0.000E+00

     add environment contribution to local potential

     total cpu time spent up to now is     1311.7 secs

     total energy              =    -661.56978978 Ry
     estimated scf accuracy    <       0.00000002 Ry
     electrostatic embedding   =      -0.04545553 Ry
     cavitation energy         =       0.03417655 Ry
     electrolyte free energy   =      -0.00175064 Ry
     correction to one-el term =       6.98700837 Ry

     iteration # 46     ecut=    80.00 Ry     beta= 0.20
     Davidson diagonalization with overlap

---- Real-time Memory Report at c_bands before calling an iterative solver
          1791 MiB given to the printing process from OS
             0 MiB allocation reported by mallinfo(arena+hblkhd)
        579629 MiB available memory on the node where the printing process lives
------------------
     ethr =  1.30E-11,  avg # of iterations =  2.8

     negative rho (up, down):  5.544E-04 0.000E+00

     add environment contribution to local potential

     total cpu time spent up to now is     1335.7 secs

     total energy              =    -661.56978955 Ry
     estimated scf accuracy    <       0.00000001 Ry
     electrostatic embedding   =      -0.04545570 Ry
     cavitation energy         =       0.03417655 Ry
     electrolyte free energy   =      -0.00175053 Ry
     correction to one-el term =       6.98662091 Ry

     iteration # 47     ecut=    80.00 Ry     beta= 0.20
     Davidson diagonalization with overlap

---- Real-time Memory Report at c_bands before calling an iterative solver
          1794 MiB given to the printing process from OS
             0 MiB allocation reported by mallinfo(arena+hblkhd)
        579626 MiB available memory on the node where the printing process lives
------------------
     ethr =  1.04E-11,  avg # of iterations =  2.8

     negative rho (up, down):  5.677E-04 0.000E+00

     add environment contribution to local potential

     total cpu time spent up to now is     1359.9 secs

     total energy              =    -661.56978939 Ry
     estimated scf accuracy    <          9.1E-09 Ry
     electrostatic embedding   =      -0.04545801 Ry
     cavitation energy         =       0.03417655 Ry
     electrolyte free energy   =      -0.00175040 Ry
     correction to one-el term =       6.98689055 Ry

     iteration # 48     ecut=    80.00 Ry     beta= 0.20
     Davidson diagonalization with overlap

---- Real-time Memory Report at c_bands before calling an iterative solver
          1796 MiB given to the printing process from OS
             0 MiB allocation reported by mallinfo(arena+hblkhd)
        579620 MiB available memory on the node where the printing process lives
------------------
     ethr =  6.91E-12,  avg # of iterations =  2.0

     negative rho (up, down):  5.408E-04 0.000E+00

     add environment contribution to local potential

     total cpu time spent up to now is     1384.0 secs

     total energy              =    -661.56978951 Ry
     estimated scf accuracy    <          7.2E-09 Ry
     electrostatic embedding   =      -0.04546136 Ry
     cavitation energy         =       0.03417655 Ry
     electrolyte free energy   =      -0.00175025 Ry
     correction to one-el term =       6.98699835 Ry

     iteration # 49     ecut=    80.00 Ry     beta= 0.20
     Davidson diagonalization with overlap

---- Real-time Memory Report at c_bands before calling an iterative solver
          1797 MiB given to the printing process from OS
             0 MiB allocation reported by mallinfo(arena+hblkhd)
        579614 MiB available memory on the node where the printing process lives
------------------
     ethr =  5.48E-12,  avg # of iterations =  2.0

     negative rho (up, down):  5.389E-04 0.000E+00

     add environment contribution to local potential

     total cpu time spent up to now is     1407.5 secs

     total energy              =    -661.56978953 Ry
     estimated scf accuracy    <          7.0E-09 Ry
     electrostatic embedding   =      -0.04546285 Ry
     cavitation energy         =       0.03417655 Ry
     electrolyte free energy   =      -0.00175014 Ry
     correction to one-el term =       6.98711255 Ry

     iteration # 50     ecut=    80.00 Ry     beta= 0.20
     Davidson diagonalization with overlap

---- Real-time Memory Report at c_bands before calling an iterative solver
          1798 MiB given to the printing process from OS
             0 MiB allocation reported by mallinfo(arena+hblkhd)
        579608 MiB available memory on the node where the printing process lives
------------------
     ethr =  5.34E-12,  avg # of iterations =  1.0

     negative rho (up, down):  5.398E-04 0.000E+00

     add environment contribution to local potential

     total cpu time spent up to now is     1429.1 secs

     total energy              =    -661.56978953 Ry
     estimated scf accuracy    <          7.0E-09 Ry
     electrostatic embedding   =      -0.04546304 Ry
     cavitation energy         =       0.03417655 Ry
     electrolyte free energy   =      -0.00175013 Ry
     correction to one-el term =       6.98727811 Ry

     iteration # 51     ecut=    80.00 Ry     beta= 0.20
     Davidson diagonalization with overlap

---- Real-time Memory Report at c_bands before calling an iterative solver
          1800 MiB given to the printing process from OS
             0 MiB allocation reported by mallinfo(arena+hblkhd)
        579607 MiB available memory on the node where the printing process lives
------------------
     ethr =  5.32E-12,  avg # of iterations =  1.0

     negative rho (up, down):  5.282E-04 0.000E+00

     add environment contribution to local potential

     total cpu time spent up to now is     1450.7 secs

     total energy              =    -661.56978962 Ry
     estimated scf accuracy    <          7.1E-09 Ry
     electrostatic embedding   =      -0.04546310 Ry
     cavitation energy         =       0.03417655 Ry
     electrolyte free energy   =      -0.00175013 Ry
     correction to one-el term =       6.98738448 Ry

     iteration # 52     ecut=    80.00 Ry     beta= 0.20
     Davidson diagonalization with overlap

---- Real-time Memory Report at c_bands before calling an iterative solver
          1802 MiB given to the printing process from OS
             0 MiB allocation reported by mallinfo(arena+hblkhd)
        579607 MiB available memory on the node where the printing process lives
------------------
     ethr =  5.32E-12,  avg # of iterations =  2.0

     negative rho (up, down):  5.269E-04 0.000E+00

     add environment contribution to local potential

     total cpu time spent up to now is     1474.3 secs

     total energy              =    -661.56978963 Ry
     estimated scf accuracy    <          6.5E-09 Ry
     electrostatic embedding   =      -0.04546268 Ry
     cavitation energy         =       0.03417655 Ry
     electrolyte free energy   =      -0.00175014 Ry
     correction to one-el term =       6.98688089 Ry

     iteration # 53     ecut=    80.00 Ry     beta= 0.20
     Davidson diagonalization with overlap

---- Real-time Memory Report at c_bands before calling an iterative solver
          1803 MiB given to the printing process from OS
             0 MiB allocation reported by mallinfo(arena+hblkhd)
        579600 MiB available memory on the node where the printing process lives
------------------
     ethr =  4.96E-12,  avg # of iterations =  1.8

     negative rho (up, down):  5.257E-04 0.000E+00

     add environment contribution to local potential

     total cpu time spent up to now is     1497.0 secs

     total energy              =    -661.56978963 Ry
     estimated scf accuracy    <          6.4E-09 Ry
     electrostatic embedding   =      -0.04546225 Ry
     cavitation energy         =       0.03417655 Ry
     electrolyte free energy   =      -0.00175019 Ry
     correction to one-el term =       6.98651273 Ry

     iteration # 54     ecut=    80.00 Ry     beta= 0.20
     Davidson diagonalization with overlap

---- Real-time Memory Report at c_bands before calling an iterative solver
          1804 MiB given to the printing process from OS
             0 MiB allocation reported by mallinfo(arena+hblkhd)
        579592 MiB available memory on the node where the printing process lives
------------------
     ethr =  4.87E-12,  avg # of iterations =  1.0

     negative rho (up, down):  5.328E-04 0.000E+00

     add environment contribution to local potential

     total cpu time spent up to now is     1518.4 secs

     total energy              =    -661.56978960 Ry
     estimated scf accuracy    <          6.5E-09 Ry
     electrostatic embedding   =      -0.04546183 Ry
     cavitation energy         =       0.03417655 Ry
     electrolyte free energy   =      -0.00175022 Ry
     correction to one-el term =       6.98642635 Ry

     iteration # 55     ecut=    80.00 Ry     beta= 0.20
     Davidson diagonalization with overlap

---- Real-time Memory Report at c_bands before calling an iterative solver
          1805 MiB given to the printing process from OS
             0 MiB allocation reported by mallinfo(arena+hblkhd)
        579596 MiB available memory on the node where the printing process lives
------------------
     ethr =  4.87E-12,  avg # of iterations =  1.7

     negative rho (up, down):  5.306E-04 0.000E+00

     add environment contribution to local potential

     total cpu time spent up to now is     1541.1 secs

     total energy              =    -661.56978959 Ry
     estimated scf accuracy    <          6.4E-09 Ry
     electrostatic embedding   =      -0.04546235 Ry
     cavitation energy         =       0.03417655 Ry
     electrolyte free energy   =      -0.00175018 Ry
     correction to one-el term =       6.98679355 Ry

     iteration # 56     ecut=    80.00 Ry     beta= 0.20
     Davidson diagonalization with overlap

---- Real-time Memory Report at c_bands before calling an iterative solver
          1806 MiB given to the printing process from OS
             0 MiB allocation reported by mallinfo(arena+hblkhd)
        579588 MiB available memory on the node where the printing process lives
------------------
     ethr =  4.87E-12,  avg # of iterations =  1.0

     negative rho (up, down):  5.240E-04 0.000E+00

     add environment contribution to local potential

     total cpu time spent up to now is     1563.0 secs

     total energy              =    -661.56978967 Ry
     estimated scf accuracy    <          6.5E-09 Ry
     electrostatic embedding   =      -0.04546236 Ry
     cavitation energy         =       0.03417655 Ry
     electrolyte free energy   =      -0.00175019 Ry
     correction to one-el term =       6.98654023 Ry

     iteration # 57     ecut=    80.00 Ry     beta= 0.20
     Davidson diagonalization with overlap

---- Real-time Memory Report at c_bands before calling an iterative solver
          1808 MiB given to the printing process from OS
             0 MiB allocation reported by mallinfo(arena+hblkhd)
        579576 MiB available memory on the node where the printing process lives
------------------
     ethr =  4.87E-12,  avg # of iterations =  1.8

     negative rho (up, down):  5.205E-04 0.000E+00

     add environment contribution to local potential

     total cpu time spent up to now is     1585.7 secs

     total energy              =    -661.56978971 Ry
     estimated scf accuracy    <          6.5E-09 Ry
     electrostatic embedding   =      -0.04546180 Ry
     cavitation energy         =       0.03417655 Ry
     electrolyte free energy   =      -0.00175018 Ry
     correction to one-el term =       6.98651291 Ry

     iteration # 58     ecut=    80.00 Ry     beta= 0.20
     Davidson diagonalization with overlap

---- Real-time Memory Report at c_bands before calling an iterative solver
          1808 MiB given to the printing process from OS
             0 MiB allocation reported by mallinfo(arena+hblkhd)
        579578 MiB available memory on the node where the printing process lives
------------------
     ethr =  4.87E-12,  avg # of iterations =  1.6

     negative rho (up, down):  5.188E-04 0.000E+00

     add environment contribution to local potential

     total cpu time spent up to now is     1608.1 secs

     total energy              =    -661.56978971 Ry
     estimated scf accuracy    <          6.5E-09 Ry
     electrostatic embedding   =      -0.04546180 Ry
     cavitation energy         =       0.03417655 Ry
     electrolyte free energy   =      -0.00175016 Ry
     correction to one-el term =       6.98620416 Ry

     iteration # 59     ecut=    80.00 Ry     beta= 0.20
     Davidson diagonalization with overlap

---- Real-time Memory Report at c_bands before calling an iterative solver
          1810 MiB given to the printing process from OS
             0 MiB allocation reported by mallinfo(arena+hblkhd)
        579577 MiB available memory on the node where the printing process lives
------------------
     ethr =  4.87E-12,  avg # of iterations =  1.0

     negative rho (up, down):  5.231E-04 0.000E+00

     add environment contribution to local potential

     total cpu time spent up to now is     1629.8 secs

     total energy              =    -661.56978970 Ry
     estimated scf accuracy    <          6.6E-09 Ry
     electrostatic embedding   =      -0.04546249 Ry
     cavitation energy         =       0.03417655 Ry
     electrolyte free energy   =      -0.00175015 Ry
     correction to one-el term =       6.98651865 Ry

     iteration # 60     ecut=    80.00 Ry     beta= 0.20
     Davidson diagonalization with overlap

---- Real-time Memory Report at c_bands before calling an iterative solver
          1810 MiB given to the printing process from OS
             0 MiB allocation reported by mallinfo(arena+hblkhd)
        579573 MiB available memory on the node where the printing process lives
------------------
     ethr =  4.87E-12,  avg # of iterations =  1.0

     negative rho (up, down):  5.243E-04 0.000E+00

     add environment contribution to local potential

     total cpu time spent up to now is     1651.5 secs

     total energy              =    -661.56978966 Ry
     estimated scf accuracy    <          6.7E-09 Ry
     electrostatic embedding   =      -0.04546208 Ry
[...]
     atom    9 type  1   force =    -0.00003169    0.07790562   -5.77891890
     atom   10 type  1   force =     0.00019605    0.02269033   -8.46159063
     atom   11 type  1   force =     0.00043539   -0.18507485  -10.39144193
     atom   12 type  1   force =    -0.00019561   -0.02269860    8.46158659
     atom   13 type  1   force =     0.00003181   -0.07790398    5.77891189
     atom   14 type  1   force =     0.00014339   -0.00923127    3.07771787
     atom   15 type  1   force =    -0.00005522    0.06068812    0.52952089
     atom   16 type  1   force =     0.00005624    0.03249121   -1.98335776
     atom   17 type  1   force =    -0.00006695   -0.04261385   -4.37018968
     atom   18 type  1   force =     0.00001964   -0.10487621   -6.62310243
     atom   19 type  1   force =     0.00053950    0.12245370   -9.34901961
     atom   20 type  1   force =    -0.00003118    0.20996861  -11.55312787
     atom   21 type  1   force =     0.00029181    0.12283425   12.06386272
     atom   22 type  1   force =    -0.00043596    0.18507518   10.39145255
     atom   23 type  1   force =    -0.00029092   -0.12282945  -12.06387787
     atom   24 type  1   force =     0.00003171   -0.20997419   11.55312945
     atom   25 type  1   force =    -0.00054042   -0.12244428    9.34904393
     atom   26 type  1   force =    -0.00001908    0.10487155    6.62308162
     atom   27 type  1   force =     0.00006656    0.04261562    4.37018190
     atom   28 type  1   force =    -0.00005670   -0.03249136    1.98335576
     atom   29 type  1   force =     0.00005492   -0.06069057   -0.52953876
     atom   30 type  1   force =    -0.00014191    0.00923538   -3.07768121
     atom   31 type  1   force =    -0.00003135    0.07790553   -5.77891981
     atom   32 type  1   force =     0.00019590    0.02269016   -8.46158891
     atom   33 type  1   force =     0.00043501   -0.18507507  -10.39144142
     atom   34 type  1   force =    -0.00019594   -0.02269948    8.46158642
     atom   35 type  1   force =     0.00003225   -0.07790386    5.77891223
     atom   36 type  1   force =     0.00014284   -0.00923051    3.07771974
     atom   37 type  1   force =    -0.00005560    0.06068733    0.52952056
     atom   38 type  1   force =     0.00005574    0.03249089   -1.98335857
     atom   39 type  1   force =    -0.00006677   -0.04261382   -4.37018926
     atom   40 type  1   force =     0.00001894   -0.10487640   -6.62310225
     atom   41 type  1   force =     0.00053993    0.12245325   -9.34901880
     atom   42 type  1   force =    -0.00003136    0.20996910  -11.55312903
     atom   43 type  1   force =     0.00029154    0.12283417   12.06386203
     atom   44 type  1   force =    -0.00043611    0.18507466   10.39145125
     The local contribution  to forces
     atom    1 type  1   force =     0.00047698    0.12624710   12.17604496
     atom    2 type  1   force =    -0.00006754    0.21729440  -11.64421663
     atom    3 type  1   force =     0.00060122    0.12293893   -9.35484987
     atom    4 type  1   force =    -0.00004184   -0.10101112   -6.62266996
     atom    5 type  1   force =    -0.00017460   -0.04481042   -4.36826610
     atom    6 type  1   force =     0.00006990    0.03379222   -1.98028328
     atom    7 type  1   force =    -0.00006514    0.06399550    0.52777630
     atom    8 type  1   force =     0.00024591   -0.01014497    3.07517543
     atom    9 type  1   force =     0.00007784   -0.07872351    5.78153354
     atom   10 type  1   force =    -0.00009370   -0.01995968    8.45934021
     atom   11 type  1   force =    -0.00054399    0.18407723   10.43472849
     atom   12 type  1   force =     0.00009324    0.01996801   -8.45933288
     atom   13 type  1   force =    -0.00007798    0.07872205   -5.78152305
     atom   14 type  1   force =    -0.00024695    0.01014176   -3.07520996
     atom   15 type  1   force =     0.00006655   -0.06399248   -0.52775559
     atom   16 type  1   force =    -0.00006978   -0.03379326    1.98028565
     atom   17 type  1   force =     0.00017439    0.04480798    4.36827632
     atom   18 type  1   force =     0.00004044    0.10101537    6.62269197
     atom   19 type  1   force =    -0.00060012   -0.12294841    9.35483170
     atom   20 type  1   force =     0.00006743   -0.21728754   11.64421962
     atom   21 type  1   force =    -0.00047777   -0.12625357  -12.17602606
     atom   22 type  1   force =     0.00054460   -0.18407775  -10.43473730
     atom   23 type  1   force =     0.00047685    0.12624760   12.17604526
     atom   24 type  1   force =    -0.00006800    0.21729424  -11.64421724
     atom   25 type  1   force =     0.00060106    0.12293816   -9.35485291
     atom   26 type  1   force =    -0.00004103   -0.10101086   -6.62266788
     atom   27 type  1   force =    -0.00017401   -0.04480981   -4.36826535
     atom   28 type  1   force =     0.00007020    0.03379327   -1.98028065
     atom   29 type  1   force =    -0.00006628    0.06399505    0.52777648
     atom   30 type  1   force =     0.00024550   -0.01014555    3.07517570
     atom   31 type  1   force =     0.00007749   -0.07872340    5.78153446
     atom   32 type  1   force =    -0.00009352   -0.01995951    8.45933845
     atom   33 type  1   force =    -0.00054354    0.18407743   10.43472799
     atom   34 type  1   force =     0.00009358    0.01996890   -8.45933269
     atom   35 type  1   force =    -0.00007839    0.07872194   -5.78152338
     atom   36 type  1   force =    -0.00024642    0.01014099   -3.07521186
     atom   37 type  1   force =     0.00006695   -0.06399167   -0.52775525
     atom   38 type  1   force =    -0.00006931   -0.03379292    1.98028648
     atom   39 type  1   force =     0.00017421    0.04480798    4.36827591
     atom   40 type  1   force =     0.00004114    0.10101553    6.62269178
     atom   41 type  1   force =    -0.00060048   -0.12294793    9.35483087
     atom   42 type  1   force =     0.00006765   -0.21728806   11.64422084
     atom   43 type  1   force =    -0.00047751   -0.12625349  -12.17602532
     atom   44 type  1   force =     0.00054476   -0.18407720  -10.43473594
     The core correction contribution to forces
     atom    1 type  1   force =     0.00000000    0.00000000    0.00000000
     atom    2 type  1   force =     0.00000000    0.00000000    0.00000000
     atom    3 type  1   force =     0.00000000    0.00000000    0.00000000
     atom    4 type  1   force =     0.00000000    0.00000000    0.00000000
     atom    5 type  1   force =     0.00000000    0.00000000    0.00000000
     atom    6 type  1   force =     0.00000000    0.00000000    0.00000000
     atom    7 type  1   force =     0.00000000    0.00000000    0.00000000
     atom    8 type  1   force =     0.00000000    0.00000000    0.00000000
     atom    9 type  1   force =     0.00000000    0.00000000    0.00000000
     atom   10 type  1   force =     0.00000000    0.00000000    0.00000000
     atom   11 type  1   force =     0.00000000    0.00000000    0.00000000
     atom   12 type  1   force =     0.00000000    0.00000000    0.00000000
     atom   13 type  1   force =     0.00000000    0.00000000    0.00000000
     atom   14 type  1   force =     0.00000000    0.00000000    0.00000000
     atom   15 type  1   force =     0.00000000    0.00000000    0.00000000
     atom   16 type  1   force =     0.00000000    0.00000000    0.00000000
     atom   17 type  1   force =     0.00000000    0.00000000    0.00000000
     atom   18 type  1   force =     0.00000000    0.00000000    0.00000000
     atom   19 type  1   force =     0.00000000    0.00000000    0.00000000
     atom   20 type  1   force =     0.00000000    0.00000000    0.00000000
     atom   21 type  1   force =     0.00000000    0.00000000    0.00000000
     atom   22 type  1   force =     0.00000000    0.00000000    0.00000000
     atom   23 type  1   force =     0.00000000    0.00000000    0.00000000
     atom   24 type  1   force =     0.00000000    0.00000000    0.00000000
     atom   25 type  1   force =     0.00000000    0.00000000    0.00000000
     atom   26 type  1   force =     0.00000000    0.00000000    0.00000000
     atom   27 type  1   force =     0.00000000    0.00000000    0.00000000
     atom   28 type  1   force =     0.00000000    0.00000000    0.00000000
     atom   29 type  1   force =     0.00000000    0.00000000    0.00000000
     atom   30 type  1   force =     0.00000000    0.00000000    0.00000000
     atom   31 type  1   force =     0.00000000    0.00000000    0.00000000
     atom   32 type  1   force =     0.00000000    0.00000000    0.00000000
     atom   33 type  1   force =     0.00000000    0.00000000    0.00000000
     atom   34 type  1   force =     0.00000000    0.00000000    0.00000000
     atom   35 type  1   force =     0.00000000    0.00000000    0.00000000
     atom   36 type  1   force =     0.00000000    0.00000000    0.00000000
     atom   37 type  1   force =     0.00000000    0.00000000    0.00000000
     atom   38 type  1   force =     0.00000000    0.00000000    0.00000000
     atom   39 type  1   force =     0.00000000    0.00000000    0.00000000
     atom   40 type  1   force =     0.00000000    0.00000000    0.00000000
     atom   41 type  1   force =     0.00000000    0.00000000    0.00000000
     atom   42 type  1   force =     0.00000000    0.00000000    0.00000000
     atom   43 type  1   force =     0.00000000    0.00000000    0.00000000
     atom   44 type  1   force =     0.00000000    0.00000000    0.00000000
     The Hubbard contrib.    to forces
     atom    1 type  1   force =     0.00000000    0.00000000    0.00000000
     atom    2 type  1   force =     0.00000000    0.00000000    0.00000000
     atom    3 type  1   force =     0.00000000    0.00000000    0.00000000
     atom    4 type  1   force =     0.00000000    0.00000000    0.00000000
     atom    5 type  1   force =     0.00000000    0.00000000    0.00000000
     atom    6 type  1   force =     0.00000000    0.00000000    0.00000000
     atom    7 type  1   force =     0.00000000    0.00000000    0.00000000
     atom    8 type  1   force =     0.00000000    0.00000000    0.00000000
     atom    9 type  1   force =     0.00000000    0.00000000    0.00000000
     atom   10 type  1   force =     0.00000000    0.00000000    0.00000000
     atom   11 type  1   force =     0.00000000    0.00000000    0.00000000
     atom   12 type  1   force =     0.00000000    0.00000000    0.00000000
     atom   13 type  1   force =     0.00000000    0.00000000    0.00000000
     atom   14 type  1   force =     0.00000000    0.00000000    0.00000000
     atom   15 type  1   force =     0.00000000    0.00000000    0.00000000
     atom   16 type  1   force =     0.00000000    0.00000000    0.00000000
     atom   17 type  1   force =     0.00000000    0.00000000    0.00000000
     atom   18 type  1   force =     0.00000000    0.00000000    0.00000000
     atom   19 type  1   force =     0.00000000    0.00000000    0.00000000
     atom   20 type  1   force =     0.00000000    0.00000000    0.00000000
     atom   21 type  1   force =     0.00000000    0.00000000    0.00000000
     atom   22 type  1   force =     0.00000000    0.00000000    0.00000000
     atom   23 type  1   force =     0.00000000    0.00000000    0.00000000
     atom   24 type  1   force =     0.00000000    0.00000000    0.00000000
     atom   25 type  1   force =     0.00000000    0.00000000    0.00000000
     atom   26 type  1   force =     0.00000000    0.00000000    0.00000000
     atom   27 type  1   force =     0.00000000    0.00000000    0.00000000
     atom   28 type  1   force =     0.00000000    0.00000000    0.00000000
     atom   29 type  1   force =     0.00000000    0.00000000    0.00000000
     atom   30 type  1   force =     0.00000000    0.00000000    0.00000000
     atom   31 type  1   force =     0.00000000    0.00000000    0.00000000
     atom   32 type  1   force =     0.00000000    0.00000000    0.00000000
     atom   33 type  1   force =     0.00000000    0.00000000    0.00000000
     atom   34 type  1   force =     0.00000000    0.00000000    0.00000000
     atom   35 type  1   force =     0.00000000    0.00000000    0.00000000
     atom   36 type  1   force =     0.00000000    0.00000000    0.00000000
     atom   37 type  1   force =     0.00000000    0.00000000    0.00000000
     atom   38 type  1   force =     0.00000000    0.00000000    0.00000000
     atom   39 type  1   force =     0.00000000    0.00000000    0.00000000
     atom   40 type  1   force =     0.00000000    0.00000000    0.00000000
     atom   41 type  1   force =     0.00000000    0.00000000    0.00000000
     atom   42 type  1   force =     0.00000000    0.00000000    0.00000000
     atom   43 type  1   force =     0.00000000    0.00000000    0.00000000
     atom   44 type  1   force =     0.00000000    0.00000000    0.00000000
     The SCF correction term to forces
     atom    1 type  1   force =    -0.00000000    0.00000001    0.00000002
     atom    2 type  1   force =     0.00000000    0.00000000   -0.00000000
     atom    3 type  1   force =     0.00000001    0.00000000   -0.00000002
     atom    4 type  1   force =    -0.00000000   -0.00000000   -0.00000002
     atom    5 type  1   force =     0.00000000    0.00000001   -0.00000001
     atom    6 type  1   force =    -0.00000000   -0.00000000   -0.00000002
     atom    7 type  1   force =    -0.00000000    0.00000000   -0.00000000
     atom    8 type  1   force =    -0.00000000    0.00000001   -0.00000001
     atom    9 type  1   force =     0.00000000    0.00000001   -0.00000001
     atom   10 type  1   force =    -0.00000000   -0.00000001   -0.00000001
     atom   11 type  1   force =    -0.00000000    0.00000000   -0.00000000
     atom   12 type  1   force =     0.00000000    0.00000001    0.00000000
     atom   13 type  1   force =     0.00000000   -0.00000001   -0.00000002
     atom   14 type  1   force =     0.00000000   -0.00000000   -0.00000001
     atom   15 type  1   force =    -0.00000001    0.00000001    0.00000000
     atom   16 type  1   force =     0.00000000    0.00000000    0.00000000
     atom   17 type  1   force =     0.00000000   -0.00000001    0.00000001
     atom   18 type  1   force =    -0.00000000    0.00000001    0.00000001
     atom   19 type  1   force =     0.00000000    0.00000001    0.00000001
     atom   20 type  1   force =     0.00000000   -0.00000000    0.00000001
     atom   21 type  1   force =     0.00000000   -0.00000000   -0.00000000
     atom   22 type  1   force =     0.00000000   -0.00000000   -0.00000000
     atom   23 type  1   force =     0.00000000    0.00000001    0.00000002
     atom   24 type  1   force =     0.00000000    0.00000000   -0.00000000
     atom   25 type  1   force =    -0.00000000    0.00000000   -0.00000002
     atom   26 type  1   force =     0.00000000    0.00000000   -0.00000001
     atom   27 type  1   force =    -0.00000000    0.00000001   -0.00000002
     atom   28 type  1   force =    -0.00000000   -0.00000000   -0.00000000
     atom   29 type  1   force =     0.00000000   -0.00000001   -0.00000000
     atom   30 type  1   force =     0.00000000    0.00000000   -0.00000001
     atom   31 type  1   force =    -0.00000000    0.00000001    0.00000000
     atom   32 type  1   force =     0.00000000   -0.00000000    0.00000000
     atom   33 type  1   force =     0.00000000    0.00000001   -0.00000001
     atom   34 type  1   force =    -0.00000000    0.00000001   -0.00000000
     atom   35 type  1   force =    -0.00000000   -0.00000001   -0.00000001
     atom   36 type  1   force =    -0.00000000   -0.00000000   -0.00000000
     atom   37 type  1   force =     0.00000000   -0.00000000   -0.00000001
     atom   38 type  1   force =     0.00000000   -0.00000001   -0.00000000
     atom   39 type  1   force =    -0.00000000   -0.00000001    0.00000001
     atom   40 type  1   force =     0.00000000    0.00000000   -0.00000000
     atom   41 type  1   force =    -0.00000000   -0.00000000    0.00000001
     atom   42 type  1   force =    -0.00000000   -0.00000001    0.00000001
     atom   43 type  1   force =     0.00000000   -0.00000000   -0.00000001
     atom   44 type  1   force =    -0.00000000   -0.00000000    0.00000000

     Total force =     0.000106     Total SCF correction =     0.000000
     Message from routine punch:
     Nothing written, as per user request (disk_io='none')
 
     init_run     :     15.33s CPU     16.38s WALL (       1 calls)
     electrons    :   4771.56s CPU   4828.10s WALL (       1 calls)
     forces       :     24.57s CPU     24.82s WALL (       1 calls)

     Called by init_run:
     wfcinit      :      5.99s CPU      6.23s WALL (       1 calls)
     wfcinit:wfcr :      5.61s CPU      5.84s WALL (      29 calls)
     potinit      :      0.13s CPU      0.20s WALL (       1 calls)
     hinit0       :      2.77s CPU      3.32s WALL (       1 calls)

     Called by electrons:
     c_bands      :   3024.17s CPU   3049.07s WALL (     202 calls)
     sum_band     :    527.80s CPU    539.12s WALL (     202 calls)
     v_of_rho     :     16.76s CPU     18.05s WALL (     203 calls)
     v_h          :      1.58s CPU      1.59s WALL (     203 calls)
     v_xc         :     15.18s CPU     16.45s WALL (     203 calls)
     newd         :     12.52s CPU     18.59s WALL (     203 calls)
     PAW_pot      :      2.64s CPU      2.73s WALL (     203 calls)
     mix_rho      :     47.77s CPU     48.86s WALL (     202 calls)

     Called by c_bands:
     init_us_2    :    104.35s CPU    105.42s WALL (   11774 calls)
     cegterg      :   2905.79s CPU   2929.02s WALL (    5858 calls)

     Called by sum_band:
     sum_band:wei :      0.44s CPU      0.47s WALL (     202 calls)
     sum_band:loo :    511.06s CPU    515.66s WALL (     202 calls)
     sum_band:buf :     11.00s CPU     11.12s WALL (    5858 calls)
     sum_band:ini :     48.79s CPU     49.19s WALL (    5858 calls)
     sum_band:cal :    120.79s CPU    121.64s WALL (    5858 calls)
     sum_band:bec :      3.42s CPU      3.47s WALL (    5858 calls)
     addusdens    :     13.74s CPU     20.30s WALL (     202 calls)
                                        0.00s GPU  (     202 calls)
     addusd:skk   :      2.58s CPU      5.25s WALL (     202 calls)
                                        0.00s GPU  (     202 calls)

     Called by *egterg:
     cdiaghg      :    211.59s CPU    212.91s WALL (   22332 calls)
     cegterg:over :    189.46s CPU    190.74s WALL (   16474 calls)
     cegterg:upda :     99.14s CPU     99.90s WALL (   16474 calls)
     cegterg:last :    161.59s CPU    162.70s WALL (    9711 calls)
     h_psi        :   1857.83s CPU   1874.23s WALL (   22361 calls)
     s_psi        :    226.81s CPU    228.39s WALL (   22361 calls)
     g_psi        :      1.94s CPU      1.95s WALL (   16474 calls)

     Called by h_psi:
     h_psi:calbec :    294.35s CPU    296.78s WALL (   22361 calls)
     vloc_psi     :   1278.45s CPU   1290.48s WALL (   22361 calls)
                                        0.00s GPU  (   22361 calls)
     add_vuspsi   :    269.16s CPU    271.02s WALL (   22361 calls)

     General routines
     calbec       :    417.16s CPU    420.52s WALL (   28335 calls)
     fft          :     15.19s CPU     15.39s WALL (    2639 calls)
     ffts         :     26.66s CPU     26.92s WALL (   25128 calls)
     fftw         :   1506.43s CPU   1521.01s WALL ( 3049694 calls)
     interpolate  :      1.32s CPU      1.33s WALL (     203 calls)
 
     Parallel routines

     PAW routines
     PAW_pot      :      2.64s CPU      2.73s WALL (     203 calls)
 
     Environ routines
 
     PWSCF        :      1h20m CPU      1h21m WALL

 
   This run was terminated on:  21:18:42  27Dec2024            

=------------------------------------------------------------------------------=
   JOB DONE.
=------------------------------------------------------------------------------=
