
     Program PWSCF v.7.4 starts on 12Jan2025 at  5:20: 5 
        Git branch: develop
        Last git commit: e877ff360aceba4b8d76ffc2fb1c70545fc5dd57
        Last git commit date: Sat Jan 4 12:56:15 2025 +0000
        Last git commit subject: Merge branch 'orthoU' into 'develop'

     This program is part of the open-source Quantum ESPRESSO suite
     for quantum simulation of materials; please cite
         "P. Giannozzi et al., J. Phys.:Condens. Matter 21 395502 (2009);
         "P. Giannozzi et al., J. Phys.:Condens. Matter 29 465901 (2017);
         "P. Giannozzi et al., J. Chem. Phys. 152 154105 (2020);
          URL http://www.quantum-espresso.org", 
     in publications or presentations arising from this work. More details at
     http://www.quantum-espresso.org/quote

     Parallel version (MPI), running on   440 processors

     MPI processes distributed on    11 nodes
     177199 MiB available memory on the printing compute node when the environment starts
 
     Reading input from espresso.pwi
Warning: card &CELL ignored
Warning: card    PRESS_CONV_THR   = 0.1 ignored
Warning: card    CELL_DOFREE      = 'ALL' ignored
Warning: card / ignored
Warning: card &FCP ignored
Warning: card / ignored
Warning: card &RISM ignored
Warning: card / ignored

     Current dimensions of program PWSCF are:
     Max number of different atomic species (ntypx) = 10
     Max number of k-points (npk) =  40000
     Max angular momentum in pseudopotentials (lmaxx) =  4

     IMPORTANT: XC functional enforced from input :
     Exchange-correlation= PBE
                           (   1   4   3   4   0   0   0)
     Any further DFT definition will be discarded
     Please, verify this is what you really want

 
     Reading input from environ.in:
     * using ionic solvent mode
     * setting boundary derivatives method to SSCS default
     * setting electrolyte-boundary derivatives method to SSCS default

Environ Warning (1001): card EOF ignored

     
 
     K-points division:     npool     =       2
     R & G space division:  proc/nbgrp/npool/nimage =     220
     Subspace diagonalization in iterative solution of the eigenvalue problem:
     a serial algorithm will be used

 
     Parallelization info
     --------------------
     sticks:   dense  smooth     PW     G-vecs:    dense   smooth      PW
     Min          45      18      4                26763     6756     878
     Max          46      19      5                26842     6799     983
     Sum       10033    4007   1075              5896473  1491071  208783
 
     Using Slab Decomposition
 


     bravais-lattice index     =           12
     lattice parameter (alat)  =      11.2436  a.u.
     unit-cell volume          =   15431.5264 (a.u.)^3
     number of atoms/cell      =           28
     number of atomic types    =            1
     number of electrons       =        84.00
     number of Kohn-Sham states=           63
     kinetic-energy cutoff     =      80.0000  Ry
     charge density cutoff     =     800.0000  Ry
     scf convergence threshold =      1.0E-14
     mixing beta               =       0.2000
     number of iterations used =            8  local-TF  mixing
     Exchange-correlation= PBE
                           (   1   4   3   4   0   0   0)

     ================================================================================
 
                                  Environ Setup Summary

     ================================================================================
 
     Please cite

          O. Andreussi, I. Dabo and N. Marzari, J. Chem. Phys. 136, 064102 (2012)
          F. Nattino, M. Truscott, N. Marzari, and O. Andreussi, J. Chem. Phys. 150, 041722 (2019)

     in publications or presentations arising from this work.

     ================================================================================
 
     Parameters
     ==========

     compensation onset threshold      =               0.1000E+00
     static permittivity               =                    89.90
     surface tension in input (dyn/cm) =                    37.30
     surface tension in internal units =               0.4792E-04

     Solvent Boundary
     ================

     solvent mode                      =                    ionic
     derivatives method                =                   lowmem
     electrolyte derivatives method    =                   lowmem
     numerical core for derivatives    =                      fft
     switching function adopted        =                     SCCS
     density limit for vacuum region   =               0.5000E-02
     density limit for bulk solvent    =               0.1000E-03
     soft-sphere radius mode           =                    bondi
     soft-sphere softness              =                     0.50
     alpha                             =                     1.32

     Electrostatic Setup
     ===================

     electrostatic problem to solve    =                    modpb
     numerical solver adopted          =                   newton
     type of auxiliary density adopted =                     none
     numerical core for poisson        =                      fft
     adopting a nested solver scheme
     inner solver                      =                       cg
     inner core                        =                      fft
     type of pbc corrections           =                parabolic
     numerical core for corrections    =                      1da

     ================================================================================
 

     >>>>> Grand-Canonical SCF is activated <<<<<
     Initial Total Charge  =     0.000000 e
     Target Fermi Energy   =    -4.404000 eV
     Thr. of Fermi Energy  =     0.001000 eV
     Wave-shift of Kerker  =     0.400000 bohr^-1
     Wave-shift of Hartree =     1.500000 bohr^-1
     Mixing Rate of Fermi  =     0.050000

     celldm(1)=  11.243615  celldm(2)=   1.258306  celldm(3)=   8.704589
     celldm(4)=  -0.132454  celldm(5)=   0.000000  celldm(6)=   0.000000

     crystal axes: (cart. coord. in units of alat)
               a(1) = (   1.000000   0.000000   0.000000 )  
               a(2) = (  -0.166667   1.247219   0.000000 )  
               a(3) = (   0.000000   0.000000   8.704589 )  

     reciprocal axes: (cart. coord. in units 2 pi/alat)
               b(1) = (  1.000000  0.133631  0.000000 )  
               b(2) = (  0.000000  0.801784  0.000000 )  
               b(3) = (  0.000000  0.000000  0.114882 )  


     PseudoPot. # 1 for Li read from file:
     /home/mmm1182/Repos/Pseudopotentials/pslibrary/Li.pbe-sl-kjpaw_psl.1.0.0.UPF
     MD5 check sum: f40bb4162937df3f7c561f1969c76545
     Pseudo is Projector augmented-wave, Zval =  3.0
     Generated using 'atomic' code by A. Dal Corso  v.7.3.1
     Shape of augmentation charge: PSQ
     Using radial grid of 1017 points,  4 beta functions with: 
                l(1) =   0
                l(2) =   0
                l(3) =   1
                l(4) =   1
     Q(r) pseudized with 0 coefficients 


     atomic species   valence    mass     pseudopotential
     Li                3.00     6.94000     Li( 1.00)

     No symmetry found


                                    s                        frac. trans.

      isym =  1     identity                                     

 cryst.   s( 1) = (     1          0          0      )
                  (     0          1          0      )
                  (     0          0          1      )

 cart.    s( 1) = (  1.0000000  0.0000000  0.0000000 )
                  (  0.0000000  1.0000000  0.0000000 )
                  (  0.0000000  0.0000000  1.0000000 )


     point group C_1 (1)    
     there are  1 classes
     the character table:

       E    
A      1.00

     the symmetry operations in each class and the name of the first element:

     E        1
          identity                                               

   Cartesian axes

     site n.     atom                  positions (alat units)
         1        Li     tau(   1) = (   0.0554293  -0.0442395   5.3989589  )
         2        Li     tau(   2) = (  -0.0554348   0.8460242   3.3056301  )
         3        Li     tau(   3) = (   0.1247211   0.3611380   3.4813432  )
         4        Li     tau(   4) = (   0.1591989   1.1550410   3.6793261  )
         5        Li     tau(   5) = (   0.3297359   0.7081753   3.7717539  )
         6        Li     tau(   6) = (   0.0018368   0.2741874   3.9632014  )
         7        Li     tau(   7) = (  -0.0288702   1.0604121   4.1176799  )
         8        Li     tau(   8) = (   0.1834750   0.6311817   4.2686222  )
         9        Li     tau(   9) = (   0.3165259   0.1706008   4.4359677  )
        10        Li     tau(  10) = (   0.3622030   0.9885896   4.5869102  )
        11        Li     tau(  11) = (  -0.0018395   0.5275961   4.7413878  )
        12        Li     tau(  12) = (   0.1702624   0.0936090   4.9328349  )
        13        Li     tau(  13) = (   0.1741347   0.8939615   5.0252634  )
        14        Li     tau(  14) = (   0.3752841   0.4406476   5.2232469  )
        15        Li     tau(  15) = (   0.5554284  -0.0442397   5.3989593  )
        16        Li     tau(  16) = (   0.4445764   0.8460240   3.3056305  )
        17        Li     tau(  17) = (   0.6247159   0.3611376   3.4813423  )
        18        Li     tau(  18) = (   0.6591971   1.1550413   3.6793256  )
        19        Li     tau(  19) = (   0.8297401   0.7081748   3.7717553  )
        20        Li     tau(  20) = (   0.5018377   0.2741868   3.9632019  )
        21        Li     tau(  21) = (   0.4711307   1.0604125   4.1176797  )
        22        Li     tau(  22) = (   0.6834747   0.6311819   4.2686217  )
        23        Li     tau(  23) = (   0.8165259   0.1706007   4.4359679  )
        24        Li     tau(  24) = (   0.8622032   0.9885896   4.5869097  )
        25        Li     tau(  25) = (   0.4981601   0.5275963   4.7413877  )
        26        Li     tau(  26) = (   0.6702632   0.0936088   4.9328354  )
        27        Li     tau(  27) = (   0.6741343   0.8939617   5.0252633  )
        28        Li     tau(  28) = (   0.8752835   0.4406476   5.2232470  )

   Crystallographic axes

     site n.     atom                  positions (cryst. coord.)
         1        Li     tau(   1) = (  0.0495175 -0.0354705  0.6202428  )
         2        Li     tau(   2) = (  0.0576202  0.6783285  0.3797572  )
         3        Li     tau(   3) = (  0.1729803  0.2895546  0.3999434  )
         4        Li     tau(   4) = (  0.3135481  0.9260931  0.4226881  )
         5        Li     tau(   5) = (  0.4243700  0.5678035  0.4333064  )
         6        Li     tau(   6) = (  0.0384767  0.2198390  0.4553002  )
         7        Li     tau(   7) = (  0.1128337  0.8502213  0.4730470  )
         8        Li     tau(   8) = (  0.2678203  0.5060713  0.4903876  )
         9        Li     tau(   9) = (  0.3393234  0.1367850  0.5096125  )
        10        Li     tau(  10) = (  0.4943091  0.7926351  0.5269531  )
        11        Li     tau(  11) = (  0.0686636  0.4230180  0.5446998  )
        12        Li     tau(  12) = (  0.1827714  0.0750542  0.5666936  )
        13        Li     tau(  13) = (  0.2935956  0.7167639  0.5773120  )
        14        Li     tau(  14) = (  0.4341682  0.3533041  0.6000567  )
        15        Li     tau(  15) = (  0.5495166 -0.0354707  0.6202429  )
        16        Li     tau(  16) = (  0.5576314  0.6783284  0.3797572  )
        17        Li     tau(  17) = (  0.6729751  0.2895543  0.3999433  )
        18        Li     tau(  18) = (  0.8135463  0.9260934  0.4226880  )
        19        Li     tau(  19) = (  0.9243741  0.5678031  0.4333065  )
        20        Li     tau(  20) = (  0.5384775  0.2198385  0.4553003  )
        21        Li     tau(  21) = (  0.6128346  0.8502216  0.4730470  )
        22        Li     tau(  22) = (  0.7678201  0.5060714  0.4903875  )
        23        Li     tau(  23) = (  0.8393234  0.1367849  0.5096126  )
        24        Li     tau(  24) = (  0.9943093  0.7926352  0.5269531  )
        25        Li     tau(  25) = (  0.5686632  0.4230181  0.5446998  )
        26        Li     tau(  26) = (  0.6827722  0.0750540  0.5666937  )
        27        Li     tau(  27) = (  0.7935952  0.7167640  0.5773120  )
        28        Li     tau(  28) = (  0.9341676  0.3533041  0.6000567  )

     number of k points=    50  Marzari-Vanderbilt smearing, width (Ry)=  0.0100
                       cart. coord. in units 2pi/alat
        k(    1) = (   0.0000000   0.0000000   0.0000000), wk =   0.0202020
        k(    2) = (   0.0000000   0.0890871   0.0000000), wk =   0.0404040
        k(    3) = (   0.0000000   0.1781742   0.0000000), wk =   0.0404040
        k(    4) = (   0.0000000   0.2672613   0.0000000), wk =   0.0404040
        k(    5) = (   0.0000000   0.3563484   0.0000000), wk =   0.0404040
        k(    6) = (   0.0909091   0.0121483   0.0000000), wk =   0.0404040
        k(    7) = (   0.0909091   0.1012354   0.0000000), wk =   0.0404040
        k(    8) = (   0.0909091   0.1903224   0.0000000), wk =   0.0404040
        k(    9) = (   0.0909091   0.2794095   0.0000000), wk =   0.0404040
        k(   10) = (   0.0909091   0.3684966   0.0000000), wk =   0.0404040
        k(   11) = (   0.0909091  -0.3442001   0.0000000), wk =   0.0404040
        k(   12) = (   0.0909091  -0.2551130   0.0000000), wk =   0.0404040
        k(   13) = (   0.0909091  -0.1660259   0.0000000), wk =   0.0404040
        k(   14) = (   0.0909091  -0.0769388   0.0000000), wk =   0.0404040
        k(   15) = (   0.1818182   0.0242965   0.0000000), wk =   0.0404040
        k(   16) = (   0.1818182   0.1133836   0.0000000), wk =   0.0404040
        k(   17) = (   0.1818182   0.2024707   0.0000000), wk =   0.0404040
        k(   18) = (   0.1818182   0.2915578   0.0000000), wk =   0.0404040
        k(   19) = (   0.1818182   0.3806449   0.0000000), wk =   0.0404040
        k(   20) = (   0.1818182  -0.3320518   0.0000000), wk =   0.0404040
        k(   21) = (   0.1818182  -0.2429647   0.0000000), wk =   0.0404040
        k(   22) = (   0.1818182  -0.1538777   0.0000000), wk =   0.0404040
        k(   23) = (   0.1818182  -0.0647906   0.0000000), wk =   0.0404040
        k(   24) = (   0.2727273   0.0364448   0.0000000), wk =   0.0404040
        k(   25) = (   0.2727273   0.1255319   0.0000000), wk =   0.0404040
        k(   26) = (   0.2727273   0.2146190   0.0000000), wk =   0.0404040
        k(   27) = (   0.2727273   0.3037061   0.0000000), wk =   0.0404040
        k(   28) = (   0.2727273   0.3927932   0.0000000), wk =   0.0404040
        k(   29) = (   0.2727273  -0.3199036   0.0000000), wk =   0.0404040
        k(   30) = (   0.2727273  -0.2308165   0.0000000), wk =   0.0404040
        k(   31) = (   0.2727273  -0.1417294   0.0000000), wk =   0.0404040
        k(   32) = (   0.2727273  -0.0526423   0.0000000), wk =   0.0404040
        k(   33) = (   0.3636364   0.0485931   0.0000000), wk =   0.0404040
        k(   34) = (   0.3636364   0.1376801   0.0000000), wk =   0.0404040
        k(   35) = (   0.3636364   0.2267672   0.0000000), wk =   0.0404040
        k(   36) = (   0.3636364   0.3158543   0.0000000), wk =   0.0404040
        k(   37) = (   0.3636364   0.4049414   0.0000000), wk =   0.0404040
        k(   38) = (   0.3636364  -0.3077553   0.0000000), wk =   0.0404040
        k(   39) = (   0.3636364  -0.2186682   0.0000000), wk =   0.0404040
        k(   40) = (   0.3636364  -0.1295811   0.0000000), wk =   0.0404040
        k(   41) = (   0.3636364  -0.0404940   0.0000000), wk =   0.0404040
        k(   42) = (   0.4545455   0.0607413   0.0000000), wk =   0.0404040
        k(   43) = (   0.4545455   0.1498284   0.0000000), wk =   0.0404040
        k(   44) = (   0.4545455   0.2389155   0.0000000), wk =   0.0404040
        k(   45) = (   0.4545455   0.3280026   0.0000000), wk =   0.0404040
        k(   46) = (   0.4545455   0.4170897   0.0000000), wk =   0.0404040
        k(   47) = (   0.4545455  -0.2956070   0.0000000), wk =   0.0404040
        k(   48) = (   0.4545455  -0.2065200   0.0000000), wk =   0.0404040
        k(   49) = (   0.4545455  -0.1174329   0.0000000), wk =   0.0404040
        k(   50) = (   0.4545455  -0.0283458   0.0000000), wk =   0.0404040

                       cryst. coord.
        k(    1) = (   0.0000000   0.0000000   0.0000000), wk =   0.0202020
        k(    2) = (   0.0000000   0.1111111   0.0000000), wk =   0.0404040
        k(    3) = (   0.0000000   0.2222222   0.0000000), wk =   0.0404040
        k(    4) = (   0.0000000   0.3333333   0.0000000), wk =   0.0404040
        k(    5) = (   0.0000000   0.4444444   0.0000000), wk =   0.0404040
        k(    6) = (   0.0909091  -0.0000000   0.0000000), wk =   0.0404040
        k(    7) = (   0.0909091   0.1111111   0.0000000), wk =   0.0404040
        k(    8) = (   0.0909091   0.2222222   0.0000000), wk =   0.0404040
        k(    9) = (   0.0909091   0.3333333   0.0000000), wk =   0.0404040
        k(   10) = (   0.0909091   0.4444444   0.0000000), wk =   0.0404040
        k(   11) = (   0.0909091  -0.4444444   0.0000000), wk =   0.0404040
        k(   12) = (   0.0909091  -0.3333333   0.0000000), wk =   0.0404040
        k(   13) = (   0.0909091  -0.2222222   0.0000000), wk =   0.0404040
        k(   14) = (   0.0909091  -0.1111111   0.0000000), wk =   0.0404040
        k(   15) = (   0.1818182  -0.0000000   0.0000000), wk =   0.0404040
        k(   16) = (   0.1818182   0.1111111   0.0000000), wk =   0.0404040
        k(   17) = (   0.1818182   0.2222222   0.0000000), wk =   0.0404040
        k(   18) = (   0.1818182   0.3333333   0.0000000), wk =   0.0404040
        k(   19) = (   0.1818182   0.4444444   0.0000000), wk =   0.0404040
        k(   20) = (   0.1818182  -0.4444444   0.0000000), wk =   0.0404040
        k(   21) = (   0.1818182  -0.3333333   0.0000000), wk =   0.0404040
        k(   22) = (   0.1818182  -0.2222222   0.0000000), wk =   0.0404040
        k(   23) = (   0.1818182  -0.1111111   0.0000000), wk =   0.0404040
        k(   24) = (   0.2727273   0.0000000   0.0000000), wk =   0.0404040
        k(   25) = (   0.2727273   0.1111111   0.0000000), wk =   0.0404040
        k(   26) = (   0.2727273   0.2222222   0.0000000), wk =   0.0404040
        k(   27) = (   0.2727273   0.3333333   0.0000000), wk =   0.0404040
        k(   28) = (   0.2727273   0.4444444   0.0000000), wk =   0.0404040
        k(   29) = (   0.2727273  -0.4444444   0.0000000), wk =   0.0404040
        k(   30) = (   0.2727273  -0.3333333   0.0000000), wk =   0.0404040
        k(   31) = (   0.2727273  -0.2222222   0.0000000), wk =   0.0404040
        k(   32) = (   0.2727273  -0.1111111   0.0000000), wk =   0.0404040
        k(   33) = (   0.3636364  -0.0000000   0.0000000), wk =   0.0404040
        k(   34) = (   0.3636364   0.1111111   0.0000000), wk =   0.0404040
        k(   35) = (   0.3636364   0.2222222   0.0000000), wk =   0.0404040
        k(   36) = (   0.3636364   0.3333333   0.0000000), wk =   0.0404040
        k(   37) = (   0.3636364   0.4444444   0.0000000), wk =   0.0404040
        k(   38) = (   0.3636364  -0.4444444   0.0000000), wk =   0.0404040
        k(   39) = (   0.3636364  -0.3333333   0.0000000), wk =   0.0404040
        k(   40) = (   0.3636364  -0.2222222   0.0000000), wk =   0.0404040
        k(   41) = (   0.3636364  -0.1111111   0.0000000), wk =   0.0404040
        k(   42) = (   0.4545455  -0.0000000   0.0000000), wk =   0.0404040
        k(   43) = (   0.4545455   0.1111111   0.0000000), wk =   0.0404040
        k(   44) = (   0.4545455   0.2222222   0.0000000), wk =   0.0404040
        k(   45) = (   0.4545455   0.3333333   0.0000000), wk =   0.0404040
        k(   46) = (   0.4545455   0.4444444   0.0000000), wk =   0.0404040
        k(   47) = (   0.4545455  -0.4444444   0.0000000), wk =   0.0404040
        k(   48) = (   0.4545455  -0.3333333   0.0000000), wk =   0.0404040
        k(   49) = (   0.4545455  -0.2222222   0.0000000), wk =   0.0404040
        k(   50) = (   0.4545455  -0.1111111   0.0000000), wk =   0.0404040

     Dense  grid:  5896473 G-vectors     FFT dimensions: ( 108, 128, 900)

     Smooth grid:  1491071 G-vectors     FFT dimensions: (  72,  81, 576)

     Dynamical RAM for                 wfc:       0.81 MB

     Dynamical RAM for     wfc (w. buffer):      21.17 MB

     Dynamical RAM for           str. fact:       0.41 MB

     Dynamical RAM for           local pot:       0.00 MB

     Dynamical RAM for          nlocal pot:       2.90 MB

     Dynamical RAM for                qrad:       0.65 MB

     Dynamical RAM for          rho,v,vnew:       2.81 MB

     Dynamical RAM for               rhoin:       0.94 MB

     Dynamical RAM for            rho*nmix:       6.54 MB

     Dynamical RAM for           G-vectors:       1.58 MB

     Dynamical RAM for          h,s,v(r/c):       2.91 MB

     Dynamical RAM for          <psi|beta>:       0.22 MB

     Dynamical RAM for                 psi:       3.26 MB

     Dynamical RAM for                hpsi:       3.26 MB

     Dynamical RAM for                spsi:       3.26 MB

     Dynamical RAM for      wfcinit/wfcrot:       1.72 MB

     Dynamical RAM for           addusdens:      14.71 MB

     Dynamical RAM for          addusforce:      25.76 MB

     Estimated static dynamical RAM per process >      33.90 MB

     Estimated max dynamical RAM per process >      89.97 MB

     Estimated total dynamical RAM >      27.04 GB

     Initial potential from superposition of free atoms

     starting charge      83.8710, renormalised to      84.0000

     negative rho (up, down):  2.568E-03 0.000E+00
     Starting wfcs are random
     Checking if some PAW data can be deallocated... 

     total cpu time spent up to now is       11.3 secs

     per-process dynamical memory:   116.2 Mb

     Self-consistent Calculation

     iteration #  1     ecut=    80.00 Ry     beta= 0.20
     Davidson diagonalization with overlap

---- Real-time Memory Report at c_bands before calling an iterative solver
           376 MiB given to the printing process from OS
           113 MiB allocation reported by mallinfo(arena+hblkhd)
        173478 MiB available memory on the node where the printing process lives
------------------
     c_bands:  1 eigenvalues not converged
     c_bands:  1 eigenvalues not converged
     ethr =  1.00E-12,  avg # of iterations =105.1

     negative rho (up, down):  1.908E-03 0.000E+00

     add environment contribution to local potential

     total cpu time spent up to now is      151.3 secs

     total energy              =    -420.98693704 Ry
     estimated scf accuracy    <       0.08418514 Ry

     total charge of GC-SCF    =       0.05677358 e
     the Fermi energy          =      -4.37796252 eV
                        (error :       0.02603748 eV)
     electrostatic embedding   =       0.00000000 Ry
     cavitation energy         =       0.01922012 Ry
     electrolyte free energy   =       0.00664192 Ry
     correction to one-el term =       0.00000000 Ry

     iteration #  2     ecut=    80.00 Ry     beta= 0.20
     Davidson diagonalization with overlap

---- Real-time Memory Report at c_bands before calling an iterative solver
           376 MiB given to the printing process from OS
           142 MiB allocation reported by mallinfo(arena+hblkhd)
        172496 MiB available memory on the node where the printing process lives
------------------
     ethr =  1.00E-05,  avg # of iterations = 16.8

     negative rho (up, down):  1.462E-03 0.000E+00

     add environment contribution to local potential

     total cpu time spent up to now is      176.0 secs

     total energy              =    -421.07113426 Ry
     estimated scf accuracy    <       0.02842957 Ry

     total charge of GC-SCF    =       0.10167045 e
     the Fermi energy          =      -3.56740124 eV
                        (error :       0.83659876 eV)
     electrostatic embedding   =      -0.02392957 Ry
     cavitation energy         =       0.01922012 Ry
     electrolyte free energy   =      -0.00433859 Ry
     correction to one-el term =      -1.43852968 Ry

     iteration #  3     ecut=    80.00 Ry     beta= 0.20
     Davidson diagonalization with overlap

---- Real-time Memory Report at c_bands before calling an iterative solver
           376 MiB given to the printing process from OS
           142 MiB allocation reported by mallinfo(arena+hblkhd)
        172485 MiB available memory on the node where the printing process lives
------------------
     ethr =  1.00E-05,  avg # of iterations =  8.9

     negative rho (up, down):  1.067E-03 0.000E+00

     add environment contribution to local potential

     total cpu time spent up to now is      193.7 secs

     total energy              =    -421.02258451 Ry
     estimated scf accuracy    <       0.01650095 Ry

     total charge of GC-SCF    =       0.27361082 e
     the Fermi energy          =      -3.47766643 eV
                        (error :       0.92633357 eV)
     electrostatic embedding   =      -0.02195555 Ry
     cavitation energy         =       0.01922012 Ry
     electrolyte free energy   =      -0.00424293 Ry
     correction to one-el term =      -2.67804652 Ry

     iteration #  4     ecut=    80.00 Ry     beta= 0.20
     Davidson diagonalization with overlap

---- Real-time Memory Report at c_bands before calling an iterative solver
           376 MiB given to the printing process from OS
           142 MiB allocation reported by mallinfo(arena+hblkhd)
        172480 MiB available memory on the node where the printing process lives
------------------
     ethr =  1.00E-05,  avg # of iterations = 19.2

     negative rho (up, down):  8.878E-04 0.000E+00

     add environment contribution to local potential

     total cpu time spent up to now is      223.7 secs

     total energy              =    -421.05400723 Ry
     estimated scf accuracy    <       0.00378612 Ry

     total charge of GC-SCF    =       0.52649871 e
     the Fermi energy          =      -3.14494073 eV
                        (error :       1.25905927 eV)
     electrostatic embedding   =      -0.02614983 Ry
     cavitation energy         =       0.01922012 Ry
     electrolyte free energy   =      -0.00317609 Ry
     correction to one-el term =      -7.58028949 Ry

     iteration #  5     ecut=    80.00 Ry     beta= 0.20
     Davidson diagonalization with overlap

---- Real-time Memory Report at c_bands before calling an iterative solver
           376 MiB given to the printing process from OS
           142 MiB allocation reported by mallinfo(arena+hblkhd)
        172487 MiB available memory on the node where the printing process lives
------------------
     ethr =  4.54E-06,  avg # of iterations = 11.1

     negative rho (up, down):  7.444E-04 0.000E+00

     add environment contribution to local potential

     total cpu time spent up to now is      243.0 secs

     total energy              =    -421.08752013 Ry
     estimated scf accuracy    <       0.00257134 Ry

     total charge of GC-SCF    =       0.72673208 e
     the Fermi energy          =      -3.28577552 eV
                        (error :       1.11822448 eV)
     electrostatic embedding   =      -0.05567735 Ry
     cavitation energy         =       0.01922012 Ry
     electrolyte free energy   =      -0.00396170 Ry
     correction to one-el term =     -14.62518016 Ry

     iteration #  6     ecut=    80.00 Ry     beta= 0.20
     Davidson diagonalization with overlap

---- Real-time Memory Report at c_bands before calling an iterative solver
           376 MiB given to the printing process from OS
           142 MiB allocation reported by mallinfo(arena+hblkhd)
        172479 MiB available memory on the node where the printing process lives
------------------
     ethr =  3.09E-06,  avg # of iterations =  9.0

     negative rho (up, down):  6.573E-04 0.000E+00

     add environment contribution to local potential

     total cpu time spent up to now is      260.5 secs

     total energy              =    -421.06600034 Ry
     estimated scf accuracy    <       0.00222305 Ry

     total charge of GC-SCF    =       1.12460118 e
     the Fermi energy          =      -3.27733147 eV
                        (error :       1.12666853 eV)
     electrostatic embedding   =      -0.09937974 Ry
     cavitation energy         =       0.01922012 Ry
     electrolyte free energy   =      -0.00428402 Ry
     correction to one-el term =     -20.44252926 Ry

     iteration #  7     ecut=    80.00 Ry     beta= 0.20
     Davidson diagonalization with overlap

---- Real-time Memory Report at c_bands before calling an iterative solver
           376 MiB given to the printing process from OS
           142 MiB allocation reported by mallinfo(arena+hblkhd)
        172481 MiB available memory on the node where the printing process lives
------------------
     ethr =  2.68E-06,  avg # of iterations = 14.3

     negative rho (up, down):  6.143E-04 0.000E+00

     add environment contribution to local potential

     total cpu time spent up to now is      285.4 secs

     total energy              =    -421.12715606 Ry
     estimated scf accuracy    <       0.00176561 Ry

     total charge of GC-SCF    =       1.32602294 e
     the Fermi energy          =      -3.42142004 eV
                        (error :       0.98257996 eV)
     electrostatic embedding   =      -0.23436475 Ry
     cavitation energy         =       0.01922012 Ry
     electrolyte free energy   =      -0.00629203 Ry
     correction to one-el term =     -32.40972858 Ry

     iteration #  8     ecut=    80.00 Ry     beta= 0.20
     Davidson diagonalization with overlap

---- Real-time Memory Report at c_bands before calling an iterative solver
           376 MiB given to the printing process from OS
           142 MiB allocation reported by mallinfo(arena+hblkhd)
        172478 MiB available memory on the node where the printing process lives
------------------
     ethr =  2.14E-06,  avg # of iterations = 15.1

     negative rho (up, down):  4.531E-03 0.000E+00

     add environment contribution to local potential

     total cpu time spent up to now is      310.0 secs

     total energy              =    -421.11614862 Ry
     estimated scf accuracy    <       0.00105740 Ry

     total charge of GC-SCF    =       1.72116975 e
     the Fermi energy          =      -3.57170103 eV
                        (error :       0.83229897 eV)
     electrostatic embedding   =      -0.32846981 Ry
     cavitation energy         =       0.01922012 Ry
     electrolyte free energy   =      -0.00800125 Ry
     correction to one-el term =     -38.92002822 Ry

     iteration #  9     ecut=    80.00 Ry     beta= 0.20
     Davidson diagonalization with overlap

---- Real-time Memory Report at c_bands before calling an iterative solver
           376 MiB given to the printing process from OS
           142 MiB allocation reported by mallinfo(arena+hblkhd)
        172479 MiB available memory on the node where the printing process lives
------------------
     ethr =  1.29E-06,  avg # of iterations = 21.2

     negative rho (up, down):  3.749E-03 0.000E+00

     add environment contribution to local potential

     total cpu time spent up to now is      338.5 secs

     total energy              =    -421.16090401 Ry
     estimated scf accuracy    <       0.00044617 Ry

     total charge of GC-SCF    =       1.98110036 e
     the Fermi energy          =      -3.83071728 eV
                        (error :       0.57328272 eV)
     electrostatic embedding   =      -0.56820560 Ry
     cavitation energy         =       0.01922012 Ry
     electrolyte free energy   =      -0.01178605 Ry
     correction to one-el term =     -51.68013457 Ry

     iteration # 10     ecut=    80.00 Ry     beta= 0.20
     Davidson diagonalization with overlap

---- Real-time Memory Report at c_bands before calling an iterative solver
           376 MiB given to the printing process from OS
           142 MiB allocation reported by mallinfo(arena+hblkhd)
        172473 MiB available memory on the node where the printing process lives
------------------
     ethr =  5.44E-07,  avg # of iterations = 19.3

     negative rho (up, down):  2.792E-03 0.000E+00

     add environment contribution to local potential

     total cpu time spent up to now is      368.5 secs

     total energy              =    -421.17676538 Ry
     estimated scf accuracy    <       0.00025319 Ry

     total charge of GC-SCF    =       2.16932252 e
     the Fermi energy          =      -4.01477967 eV
                        (error :       0.38922033 eV)
     electrostatic embedding   =      -0.76920874 Ry
     cavitation energy         =       0.01922012 Ry
     electrolyte free energy   =      -0.01489224 Ry
     correction to one-el term =     -60.16610855 Ry

     iteration # 11     ecut=    80.00 Ry     beta= 0.20
     Davidson diagonalization with overlap

---- Real-time Memory Report at c_bands before calling an iterative solver
           376 MiB given to the printing process from OS
           142 MiB allocation reported by mallinfo(arena+hblkhd)
        172471 MiB available memory on the node where the printing process lives
------------------
     ethr =  3.09E-07,  avg # of iterations = 24.4

     negative rho (up, down):  4.717E-04 0.000E+00

     add environment contribution to local potential

     total cpu time spent up to now is      400.0 secs

     total energy              =    -421.18688524 Ry
     estimated scf accuracy    <       0.00013137 Ry

     total charge of GC-SCF    =       2.22937256 e
     the Fermi energy          =      -4.19759416 eV
                        (error :       0.20640584 eV)
     electrostatic embedding   =      -0.93714467 Ry
     cavitation energy         =       0.01922012 Ry
     electrolyte free energy   =      -0.01761524 Ry
     correction to one-el term =     -66.52730505 Ry

     iteration # 12     ecut=    80.00 Ry     beta= 0.20
     Davidson diagonalization with overlap

---- Real-time Memory Report at c_bands before calling an iterative solver
           376 MiB given to the printing process from OS
           142 MiB allocation reported by mallinfo(arena+hblkhd)
        172464 MiB available memory on the node where the printing process lives
------------------
     ethr =  1.61E-07,  avg # of iterations = 12.4

     negative rho (up, down):  3.824E-04 0.000E+00

     add environment contribution to local potential

     total cpu time spent up to now is      422.4 secs

     total energy              =    -421.18838924 Ry
     estimated scf accuracy    <       0.00007436 Ry

     total charge of GC-SCF    =       2.30518101 e
     the Fermi energy          =      -4.31745419 eV
                        (error :       0.08654581 eV)
     electrostatic embedding   =      -0.99758401 Ry
     cavitation energy         =       0.01922012 Ry
     electrolyte free energy   =      -0.01861653 Ry
     correction to one-el term =     -68.72968812 Ry

     iteration # 13     ecut=    80.00 Ry     beta= 0.20
     Davidson diagonalization with overlap

---- Real-time Memory Report at c_bands before calling an iterative solver
           376 MiB given to the printing process from OS
           142 MiB allocation reported by mallinfo(arena+hblkhd)
        172470 MiB available memory on the node where the printing process lives
------------------
     ethr =  9.10E-08,  avg # of iterations = 11.0

     negative rho (up, down):  3.564E-04 0.000E+00

     add environment contribution to local potential

     total cpu time spent up to now is      445.9 secs

     total energy              =    -421.18872869 Ry
     estimated scf accuracy    <       0.00002568 Ry

     total charge of GC-SCF    =       2.30034466 e
     the Fermi energy          =      -4.37935446 eV
                        (error :       0.02464554 eV)
     electrostatic embedding   =      -1.07134151 Ry
     cavitation energy         =       0.01922012 Ry
     electrolyte free energy   =      -0.01985615 Ry
     correction to one-el term =     -71.17366634 Ry

     iteration # 14     ecut=    80.00 Ry     beta= 0.20
     Davidson diagonalization with overlap

---- Real-time Memory Report at c_bands before calling an iterative solver
           376 MiB given to the printing process from OS
           142 MiB allocation reported by mallinfo(arena+hblkhd)
        172468 MiB available memory on the node where the printing process lives
------------------
     ethr =  3.14E-08,  avg # of iterations =  8.0

     negative rho (up, down):  3.487E-04 0.000E+00

     add environment contribution to local potential

     total cpu time spent up to now is      463.6 secs

     total energy              =    -421.18883269 Ry
     estimated scf accuracy    <       0.00001585 Ry

     total charge of GC-SCF    =       2.29964820 e
     the Fermi energy          =      -4.36543019 eV
                        (error :       0.03856981 eV)
     electrostatic embedding   =      -1.06652999 Ry
     cavitation energy         =       0.01922012 Ry
     electrolyte free energy   =      -0.01977094 Ry
     correction to one-el term =     -71.00478343 Ry

     iteration # 15     ecut=    80.00 Ry     beta= 0.20
     Davidson diagonalization with overlap

---- Real-time Memory Report at c_bands before calling an iterative solver
           376 MiB given to the printing process from OS
           142 MiB allocation reported by mallinfo(arena+hblkhd)
        172468 MiB available memory on the node where the printing process lives
------------------
     ethr =  1.94E-08,  avg # of iterations =  8.9

     negative rho (up, down):  6.057E-04 0.000E+00

     add environment contribution to local potential

     total cpu time spent up to now is      481.5 secs

     total energy              =    -421.18889408 Ry
     estimated scf accuracy    <       0.00001042 Ry

     total charge of GC-SCF    =       2.35267036 e
     the Fermi energy          =      -4.36100467 eV
                        (error :       0.04299533 eV)
     electrostatic embedding   =      -1.06433180 Ry
     cavitation energy         =       0.01922012 Ry
     electrolyte free energy   =      -0.01974643 Ry
     correction to one-el term =     -70.90700857 Ry

     iteration # 16     ecut=    80.00 Ry     beta= 0.20
     Davidson diagonalization with overlap

---- Real-time Memory Report at c_bands before calling an iterative solver
           376 MiB given to the printing process from OS
           142 MiB allocation reported by mallinfo(arena+hblkhd)
        172463 MiB available memory on the node where the printing process lives
------------------
     ethr =  1.28E-08,  avg # of iterations = 20.6

     negative rho (up, down):  6.258E-04 0.000E+00

     add environment contribution to local potential

     total cpu time spent up to now is      510.6 secs

     total energy              =    -421.18858506 Ry
     estimated scf accuracy    <       0.00000316 Ry

     total charge of GC-SCF    =       2.34108610 e
     the Fermi energy          =      -4.41136348 eV
                        (error :       0.00736348 eV)
     electrostatic embedding   =      -1.11364399 Ry
     cavitation energy         =       0.01922012 Ry
     electrolyte free energy   =      -0.02062846 Ry
     correction to one-el term =     -72.45817450 Ry

     iteration # 17     ecut=    80.00 Ry     beta= 0.20
     Davidson diagonalization with overlap

---- Real-time Memory Report at c_bands before calling an iterative solver
           376 MiB given to the printing process from OS
           142 MiB allocation reported by mallinfo(arena+hblkhd)
        172464 MiB available memory on the node where the printing process lives
------------------
     ethr =  3.87E-09,  avg # of iterations =  8.9

     negative rho (up, down):  7.568E-04 0.000E+00

     add environment contribution to local potential

     total cpu time spent up to now is      531.7 secs

     total energy              =    -421.18865420 Ry
     estimated scf accuracy    <       0.00000225 Ry

     total charge of GC-SCF    =       2.35292173 e
     the Fermi energy          =      -4.40725264 eV
                        (error :       0.00325264 eV)
     electrostatic embedding   =      -1.10184216 Ry
     cavitation energy         =       0.01922012 Ry
     electrolyte free energy   =      -0.02042790 Ry
     correction to one-el term =     -72.07818620 Ry

     iteration # 18     ecut=    80.00 Ry     beta= 0.20
     Davidson diagonalization with overlap

---- Real-time Memory Report at c_bands before calling an iterative solver
           376 MiB given to the printing process from OS
           142 MiB allocation reported by mallinfo(arena+hblkhd)
        172457 MiB available memory on the node where the printing process lives
------------------
     ethr =  2.75E-09,  avg # of iterations = 11.5

     negative rho (up, down):  4.530E-04 0.000E+00

     add environment contribution to local potential

     total cpu time spent up to now is      553.7 secs

     total energy              =    -421.18855593 Ry
     estimated scf accuracy    <       0.00000068 Ry

     total charge of GC-SCF    =       2.34794955 e
     the Fermi energy          =      -4.41481512 eV
                        (error :       0.01081512 eV)
     electrostatic embedding   =      -1.11371334 Ry
     cavitation energy         =       0.01922012 Ry
     electrolyte free energy   =      -0.02063118 Ry
     correction to one-el term =     -72.45082597 Ry

     iteration # 19     ecut=    80.00 Ry     beta= 0.20
     Davidson diagonalization with overlap

---- Real-time Memory Report at c_bands before calling an iterative solver
           376 MiB given to the printing process from OS
           142 MiB allocation reported by mallinfo(arena+hblkhd)
        172449 MiB available memory on the node where the printing process lives
------------------
     ethr =  8.29E-10,  avg # of iterations = 11.0

     negative rho (up, down):  3.624E-04 0.000E+00

     add environment contribution to local potential

     total cpu time spent up to now is      574.9 secs

     total energy              =    -421.18857991 Ry
     estimated scf accuracy    <       0.00000029 Ry

     total charge of GC-SCF    =       2.34525941 e
     the Fermi energy          =      -4.41179245 eV
                        (error :       0.00779245 eV)
     electrostatic embedding   =      -1.10936357 Ry
     cavitation energy         =       0.01922012 Ry
     electrolyte free energy   =      -0.02054871 Ry
     correction to one-el term =     -72.31472126 Ry

     iteration # 20     ecut=    80.00 Ry     beta= 0.20
     Davidson diagonalization with overlap

---- Real-time Memory Report at c_bands before calling an iterative solver
           376 MiB given to the printing process from OS
           142 MiB allocation reported by mallinfo(arena+hblkhd)
        172459 MiB available memory on the node where the printing process lives
------------------
     ethr =  3.55E-10,  avg # of iterations = 12.8

     negative rho (up, down):  3.483E-04 0.000E+00

     add environment contribution to local potential

     total cpu time spent up to now is      599.3 secs

     total energy              =    -421.18861006 Ry
     estimated scf accuracy    <       0.00000014 Ry

     total charge of GC-SCF    =       2.34431090 e
     the Fermi energy          =      -4.40728249 eV
                        (error :       0.00328249 eV)
     electrostatic embedding   =      -1.10684870 Ry
     cavitation energy         =       0.01922012 Ry
     electrolyte free energy   =      -0.02050158 Ry
     correction to one-el term =     -72.22947252 Ry

     iteration # 21     ecut=    80.00 Ry     beta= 0.20
     Davidson diagonalization with overlap

---- Real-time Memory Report at c_bands before calling an iterative solver
           376 MiB given to the printing process from OS
           142 MiB allocation reported by mallinfo(arena+hblkhd)
        172451 MiB available memory on the node where the printing process lives
------------------
     ethr =  1.74E-10,  avg # of iterations =  8.9

     negative rho (up, down):  3.533E-04 0.000E+00

     add environment contribution to local potential

     total cpu time spent up to now is      617.1 secs

     total energy              =    -421.18861892 Ry
     estimated scf accuracy    <       0.00000011 Ry

     total charge of GC-SCF    =       2.34392479 e
     the Fermi energy          =      -4.40605670 eV
                        (error :       0.00205670 eV)
     electrostatic embedding   =      -1.10590275 Ry
     cavitation energy         =       0.01922012 Ry
     electrolyte free energy   =      -0.02048488 Ry
     correction to one-el term =     -72.19791363 Ry

     iteration # 22     ecut=    80.00 Ry     beta= 0.20
     Davidson diagonalization with overlap

---- Real-time Memory Report at c_bands before calling an iterative solver
           376 MiB given to the printing process from OS
           142 MiB allocation reported by mallinfo(arena+hblkhd)
        172458 MiB available memory on the node where the printing process lives
------------------
     ethr =  1.29E-10,  avg # of iterations = 11.2

     negative rho (up, down):  3.487E-04 0.000E+00

     add environment contribution to local potential

     total cpu time spent up to now is      638.2 secs

     total energy              =    -421.18862062 Ry
     estimated scf accuracy    <       0.00000004 Ry

     total charge of GC-SCF    =       2.34041722 e
     the Fermi energy          =      -4.40567676 eV
                        (error :       0.00167676 eV)
     electrostatic embedding   =      -1.10562126 Ry
     cavitation energy         =       0.01922012 Ry
     electrolyte free energy   =      -0.02047977 Ry
     correction to one-el term =     -72.19500927 Ry

     iteration # 23     ecut=    80.00 Ry     beta= 0.20
     Davidson diagonalization with overlap

---- Real-time Memory Report at c_bands before calling an iterative solver
           376 MiB given to the printing process from OS
           142 MiB allocation reported by mallinfo(arena+hblkhd)
        172450 MiB available memory on the node where the printing process lives
------------------
     ethr =  4.64E-11,  avg # of iterations = 18.0

     negative rho (up, down):  3.530E-04 0.000E+00

     add environment contribution to local potential

     total cpu time spent up to now is      664.6 secs

     total energy              =    -421.18863881 Ry
     estimated scf accuracy    <       0.00000002 Ry

     total charge of GC-SCF    =       2.34065323 e
     the Fermi energy          =      -4.40269475 eV
                        (error :       0.00130525 eV)
     electrostatic embedding   =      -1.10216469 Ry
     cavitation energy         =       0.01922012 Ry
     electrolyte free energy   =      -0.02041977 Ry
     correction to one-el term =     -72.08610161 Ry

     iteration # 24     ecut=    80.00 Ry     beta= 0.20
     Davidson diagonalization with overlap

---- Real-time Memory Report at c_bands before calling an iterative solver
           376 MiB given to the printing process from OS
           142 MiB allocation reported by mallinfo(arena+hblkhd)
        172456 MiB available memory on the node where the printing process lives
------------------
     ethr =  1.86E-11,  avg # of iterations = 11.5

     negative rho (up, down):  3.555E-04 0.000E+00

     add environment contribution to local potential

     total cpu time spent up to now is      684.9 secs

     total energy              =    -421.18863853 Ry
     estimated scf accuracy    <          9.1E-09 Ry

     total charge of GC-SCF    =       2.34112338 e
     the Fermi energy          =      -4.40271224 eV
                        (error :       0.00128776 eV)
     electrostatic embedding   =      -1.10235417 Ry
     cavitation energy         =       0.01922012 Ry
     electrolyte free energy   =      -0.02042353 Ry
     correction to one-el term =     -72.09219702 Ry

     iteration # 25     ecut=    80.00 Ry     beta= 0.20
     Davidson diagonalization with overlap

---- Real-time Memory Report at c_bands before calling an iterative solver
           376 MiB given to the printing process from OS
           142 MiB allocation reported by mallinfo(arena+hblkhd)
        172452 MiB available memory on the node where the printing process lives
------------------
     ethr =  1.12E-11,  avg # of iterations = 12.0

     negative rho (up, down):  3.556E-04 0.000E+00

     add environment contribution to local potential

     total cpu time spent up to now is      706.7 secs

     total energy              =    -421.18863654 Ry
     estimated scf accuracy    <          6.0E-09 Ry

     total charge of GC-SCF    =       2.34196953 e
     the Fermi energy          =      -4.40304006 eV
                        (error :       0.00095994 eV)
     electrostatic embedding   =      -1.10277982 Ry
     cavitation energy         =       0.01922012 Ry
     electrolyte free energy   =      -0.02043129 Ry
     correction to one-el term =     -72.10536927 Ry

     iteration # 26     ecut=    80.00 Ry     beta= 0.20
     Davidson diagonalization with overlap

---- Real-time Memory Report at c_bands before calling an iterative solver
           376 MiB given to the printing process from OS
           142 MiB allocation reported by mallinfo(arena+hblkhd)
        172450 MiB available memory on the node where the printing process lives
------------------
     ethr =  7.33E-12,  avg # of iterations = 13.4

     negative rho (up, down):  3.531E-04 0.000E+00

     add environment contribution to local potential

     total cpu time spent up to now is      728.0 secs

     total energy              =    -421.18863180 Ry
     estimated scf accuracy    <          3.7E-09 Ry

     total charge of GC-SCF    =       2.34259456 e
     the Fermi energy          =      -4.40381564 eV
                        (error :       0.00018436 eV)
     electrostatic embedding   =      -1.10359673 Ry
     cavitation energy         =       0.01922012 Ry
     electrolyte free energy   =      -0.02044571 Ry
     correction to one-el term =     -72.13123437 Ry

     iteration # 27     ecut=    80.00 Ry     beta= 0.20
     Davidson diagonalization with overlap

---- Real-time Memory Report at c_bands before calling an iterative solver
           376 MiB given to the printing process from OS
           142 MiB allocation reported by mallinfo(arena+hblkhd)
        172450 MiB available memory on the node where the printing process lives
------------------
     ethr =  4.59E-12,  avg # of iterations = 12.1

     negative rho (up, down):  3.508E-04 0.000E+00

     add environment contribution to local potential

     total cpu time spent up to now is      750.0 secs

     total energy              =    -421.18862807 Ry
     estimated scf accuracy    <          1.6E-09 Ry

     total charge of GC-SCF    =       2.34241961 e
     the Fermi energy          =      -4.40435376 eV
                        (error :       0.00035376 eV)
     electrostatic embedding   =      -1.10422499 Ry
     cavitation energy         =       0.01922012 Ry
     electrolyte free energy   =      -0.02045654 Ry
     correction to one-el term =     -72.15147836 Ry

     iteration # 28     ecut=    80.00 Ry     beta= 0.20
     Davidson diagonalization with overlap

---- Real-time Memory Report at c_bands before calling an iterative solver
           376 MiB given to the printing process from OS
           142 MiB allocation reported by mallinfo(arena+hblkhd)
        172452 MiB available memory on the node where the printing process lives
------------------
     ethr =  1.97E-12,  avg # of iterations = 10.4

     negative rho (up, down):  3.496E-04 0.000E+00

     add environment contribution to local potential

     total cpu time spent up to now is      772.0 secs

     total energy              =    -421.18862882 Ry
     estimated scf accuracy    <          6.6E-10 Ry

     total charge of GC-SCF    =       2.34239203 e
     the Fermi energy          =      -4.40425780 eV
                        (error :       0.00025780 eV)
     electrostatic embedding   =      -1.10404407 Ry
     cavitation energy         =       0.01922012 Ry
     electrolyte free energy   =      -0.02045347 Ry
     correction to one-el term =     -72.14534683 Ry

     iteration # 29     ecut=    80.00 Ry     beta= 0.20
     Davidson diagonalization with overlap

---- Real-time Memory Report at c_bands before calling an iterative solver
           376 MiB given to the printing process from OS
           142 MiB allocation reported by mallinfo(arena+hblkhd)
        172450 MiB available memory on the node where the printing process lives
------------------
     ethr =  8.08E-13,  avg # of iterations = 10.5

     negative rho (up, down):  3.474E-04 0.000E+00

     add environment contribution to local potential

     total cpu time spent up to now is      793.3 secs

     total energy              =    -421.18862865 Ry
     estimated scf accuracy    <          2.7E-10 Ry

     total charge of GC-SCF    =       2.34225351 e
     the Fermi energy          =      -4.40430635 eV
                        (error :       0.00030635 eV)
     electrostatic embedding   =      -1.10400891 Ry
     cavitation energy         =       0.01922012 Ry
     electrolyte free energy   =      -0.02045293 Ry
     correction to one-el term =     -72.14391588 Ry

     iteration # 30     ecut=    80.00 Ry     beta= 0.20
     Davidson diagonalization with overlap

---- Real-time Memory Report at c_bands before calling an iterative solver
           376 MiB given to the printing process from OS
           142 MiB allocation reported by mallinfo(arena+hblkhd)
        172429 MiB available memory on the node where the printing process lives
------------------
     ethr =  3.27E-13,  avg # of iterations = 16.9

     negative rho (up, down):  3.458E-04 0.000E+00

     add environment contribution to local potential

     total cpu time spent up to now is      818.0 secs

     total energy              =    -421.18862960 Ry
     estimated scf accuracy    <          2.3E-10 Ry

     total charge of GC-SCF    =       2.34206341 e
     the Fermi energy          =      -4.40413154 eV
                        (error :       0.00013154 eV)
     electrostatic embedding   =      -1.10388822 Ry
     cavitation energy         =       0.01922012 Ry
     electrolyte free energy   =      -0.02045063 Ry
     correction to one-el term =     -72.14018616 Ry

     iteration # 31     ecut=    80.00 Ry     beta= 0.20
     Davidson diagonalization with overlap

---- Real-time Memory Report at c_bands before calling an iterative solver
           376 MiB given to the printing process from OS
           142 MiB allocation reported by mallinfo(arena+hblkhd)
        172446 MiB available memory on the node where the printing process lives
------------------
     ethr =  2.83E-13,  avg # of iterations = 13.8

     negative rho (up, down):  3.446E-04 0.000E+00

     add environment contribution to local potential

     total cpu time spent up to now is      842.5 secs

     total energy              =    -421.18863071 Ry
     estimated scf accuracy    <          8.4E-11 Ry

     total charge of GC-SCF    =       2.34205210 e
     the Fermi energy          =      -4.40396845 eV
                        (error :       0.00003155 eV)
     electrostatic embedding   =      -1.10370160 Ry
     cavitation energy         =       0.01922012 Ry
     electrolyte free energy   =      -0.02044736 Ry
     correction to one-el term =     -72.13416726 Ry

     iteration # 32     ecut=    80.00 Ry     beta= 0.20
     Davidson diagonalization with overlap

---- Real-time Memory Report at c_bands before calling an iterative solver
           376 MiB given to the printing process from OS
           142 MiB allocation reported by mallinfo(arena+hblkhd)
        172443 MiB available memory on the node where the printing process lives
------------------
     ethr =  1.03E-13,  avg # of iterations = 12.2

     negative rho (up, down):  3.440E-04 0.000E+00

     add environment contribution to local potential

     total cpu time spent up to now is      863.8 secs

     total energy              =    -421.18863080 Ry
     estimated scf accuracy    <          2.6E-11 Ry

     total charge of GC-SCF    =       2.34205806 e
     the Fermi energy          =      -4.40394094 eV
                        (error :       0.00005906 eV)
     electrostatic embedding   =      -1.10369918 Ry
     cavitation energy         =       0.01922012 Ry
     electrolyte free energy   =      -0.02044722 Ry
     correction to one-el term =     -72.13423314 Ry

     iteration # 33     ecut=    80.00 Ry     beta= 0.20
     Davidson diagonalization with overlap

---- Real-time Memory Report at c_bands before calling an iterative solver
           376 MiB given to the printing process from OS
           142 MiB allocation reported by mallinfo(arena+hblkhd)
        172439 MiB available memory on the node where the printing process lives
------------------
     ethr =  1.00E-13,  avg # of iterations =  8.3

     negative rho (up, down):  3.437E-04 0.000E+00

     add environment contribution to local potential

     total cpu time spent up to now is      880.0 secs

     total energy              =    -421.18863076 Ry
     estimated scf accuracy    <          1.4E-11 Ry

     total charge of GC-SCF    =       2.34208886 e
     the Fermi energy          =      -4.40394774 eV
                        (error :       0.00005226 eV)
     electrostatic embedding   =      -1.10370563 Ry
     cavitation energy         =       0.01922012 Ry
     electrolyte free energy   =      -0.02044733 Ry
     correction to one-el term =     -72.13446549 Ry

     iteration # 34     ecut=    80.00 Ry     beta= 0.20
     Davidson diagonalization with overlap

---- Real-time Memory Report at c_bands before calling an iterative solver
           376 MiB given to the printing process from OS
           142 MiB allocation reported by mallinfo(arena+hblkhd)
        172431 MiB available memory on the node where the printing process lives
------------------
     ethr =  1.00E-13,  avg # of iterations = 10.3

     negative rho (up, down):  3.435E-04 0.000E+00

     add environment contribution to local potential

     total cpu time spent up to now is      900.7 secs

     total energy              =    -421.18863059 Ry
     estimated scf accuracy    <          2.8E-12 Ry

     total charge of GC-SCF    =       2.34210657 e
     the Fermi energy          =      -4.40397486 eV
                        (error :       0.00002514 eV)
     electrostatic embedding   =      -1.10373472 Ry
     cavitation energy         =       0.01922012 Ry
     electrolyte free energy   =      -0.02044785 Ry
     correction to one-el term =     -72.13538102 Ry

     iteration # 35     ecut=    80.00 Ry     beta= 0.20
     Davidson diagonalization with overlap

---- Real-time Memory Report at c_bands before calling an iterative solver
           376 MiB given to the printing process from OS
           142 MiB allocation reported by mallinfo(arena+hblkhd)
        172436 MiB available memory on the node where the printing process lives
------------------
     ethr =  1.00E-13,  avg # of iterations =  9.8

     negative rho (up, down):  3.434E-04 0.000E+00

     add environment contribution to local potential

     total cpu time spent up to now is      918.0 secs

     total energy              =    -421.18863048 Ry
     estimated scf accuracy    <          1.0E-12 Ry

     total charge of GC-SCF    =       2.34211812 e
     the Fermi energy          =      -4.40399270 eV
                        (error :       0.00000730 eV)
     electrostatic embedding   =      -1.10375130 Ry
     cavitation energy         =       0.01922012 Ry
     electrolyte free energy   =      -0.02044815 Ry
     correction to one-el term =     -72.13589861 Ry

     iteration # 36     ecut=    80.00 Ry     beta= 0.20
     Davidson diagonalization with overlap

---- Real-time Memory Report at c_bands before calling an iterative solver
           376 MiB given to the printing process from OS
           142 MiB allocation reported by mallinfo(arena+hblkhd)
        172429 MiB available memory on the node where the printing process lives
------------------
     ethr =  1.00E-13,  avg # of iterations =  8.8

     negative rho (up, down):  3.432E-04 0.000E+00

     add environment contribution to local potential

     total cpu time spent up to now is      934.0 secs

     total energy              =    -421.18863041 Ry
     estimated scf accuracy    <          4.0E-13 Ry

     total charge of GC-SCF    =       2.34211892 e
     the Fermi energy          =      -4.40400408 eV
                        (error :       0.00000408 eV)
     electrostatic embedding   =      -1.10376229 Ry
     cavitation energy         =       0.01922012 Ry
     electrolyte free energy   =      -0.02044834 Ry
     correction to one-el term =     -72.13623995 Ry

     iteration # 37     ecut=    80.00 Ry     beta= 0.20
     Davidson diagonalization with overlap

---- Real-time Memory Report at c_bands before calling an iterative solver
           376 MiB given to the printing process from OS
           142 MiB allocation reported by mallinfo(arena+hblkhd)
        172434 MiB available memory on the node where the printing process lives
------------------
     ethr =  1.00E-13,  avg # of iterations =  5.8

     negative rho (up, down):  3.431E-04 0.000E+00

     add environment contribution to local potential

     total cpu time spent up to now is      950.0 secs

     total energy              =    -421.18863040 Ry
     estimated scf accuracy    <          3.2E-13 Ry

     total charge of GC-SCF    =       2.34211837 e
     the Fermi energy          =      -4.40400386 eV
                        (error :       0.00000386 eV)
     electrostatic embedding   =      -1.10376282 Ry
     cavitation energy         =       0.01922012 Ry
     electrolyte free energy   =      -0.02044836 Ry
     correction to one-el term =     -72.13625145 Ry

     iteration # 38     ecut=    80.00 Ry     beta= 0.20
     Davidson diagonalization with overlap

---- Real-time Memory Report at c_bands before calling an iterative solver
           376 MiB given to the printing process from OS
           142 MiB allocation reported by mallinfo(arena+hblkhd)
        172432 MiB available memory on the node where the printing process lives
------------------
     ethr =  1.00E-13,  avg # of iterations =  4.5

     negative rho (up, down):  3.429E-04 0.000E+00

     add environment contribution to local potential

     total cpu time spent up to now is      964.8 secs

     total energy              =    -421.18863041 Ry
     estimated scf accuracy    <          1.8E-13 Ry

     total charge of GC-SCF    =       2.34211740 e
     the Fermi energy          =      -4.40400379 eV
                        (error :       0.00000379 eV)
     electrostatic embedding   =      -1.10376208 Ry
     cavitation energy         =       0.01922012 Ry
     electrolyte free energy   =      -0.02044834 Ry
     correction to one-el term =     -72.13622277 Ry

     iteration # 39     ecut=    80.00 Ry     beta= 0.20
     Davidson diagonalization with overlap

---- Real-time Memory Report at c_bands before calling an iterative solver
           376 MiB given to the printing process from OS
           142 MiB allocation reported by mallinfo(arena+hblkhd)
        172430 MiB available memory on the node where the printing process lives
------------------
     ethr =  1.00E-13,  avg # of iterations =  4.5

     negative rho (up, down):  3.428E-04 0.000E+00

     add environment contribution to local potential

     total cpu time spent up to now is      977.6 secs

     total energy              =    -421.18863041 Ry
     estimated scf accuracy    <          6.6E-14 Ry

     total charge of GC-SCF    =       2.34211698 e
     the Fermi energy          =      -4.40400236 eV
                        (error :       0.00000236 eV)
     electrostatic embedding   =      -1.10376101 Ry
     cavitation energy         =       0.01922012 Ry
     electrolyte free energy   =      -0.02044833 Ry
     correction to one-el term =     -72.13618724 Ry

     iteration # 40     ecut=    80.00 Ry     beta= 0.20
     Davidson diagonalization with overlap

---- Real-time Memory Report at c_bands before calling an iterative solver
           376 MiB given to the printing process from OS
           142 MiB allocation reported by mallinfo(arena+hblkhd)
        172427 MiB available memory on the node where the printing process lives
------------------
     ethr =  1.00E-13,  avg # of iterations =  2.4

     negative rho (up, down):  3.427E-04 0.000E+00

     add environment contribution to local potential

     total cpu time spent up to now is      989.7 secs

     total energy              =    -421.18863042 Ry
     estimated scf accuracy    <          2.5E-14 Ry

     total charge of GC-SCF    =       2.34211635 e
     the Fermi energy          =      -4.40400160 eV
                        (error :       0.00000160 eV)
     electrostatic embedding   =      -1.10376066 Ry
     cavitation energy         =       0.01922012 Ry
     electrolyte free energy   =      -0.02044832 Ry
     correction to one-el term =     -72.13617749 Ry

     iteration # 41     ecut=    80.00 Ry     beta= 0.20
     Davidson diagonalization with overlap

---- Real-time Memory Report at c_bands before calling an iterative solver
           376 MiB given to the printing process from OS
           142 MiB allocation reported by mallinfo(arena+hblkhd)
        172425 MiB available memory on the node where the printing process lives
------------------
     ethr =  1.00E-13,  avg # of iterations =  2.1

     negative rho (up, down):  3.427E-04 0.000E+00

     add environment contribution to local potential

     total cpu time spent up to now is     1002.2 secs

     total energy              =    -421.18863042 Ry
     estimated scf accuracy    <          2.0E-14 Ry

     total charge of GC-SCF    =       2.34211561 e
     the Fermi energy          =      -4.40400107 eV
                        (error :       0.00000107 eV)
     electrostatic embedding   =      -1.10376011 Ry
     cavitation energy         =       0.01922012 Ry
     electrolyte free energy   =      -0.02044831 Ry
     correction to one-el term =     -72.13616113 Ry

     iteration # 42     ecut=    80.00 Ry     beta= 0.20
     Davidson diagonalization with overlap

---- Real-time Memory Report at c_bands before calling an iterative solver
           376 MiB given to the printing process from OS
           142 MiB allocation reported by mallinfo(arena+hblkhd)
        172420 MiB available memory on the node where the printing process lives
------------------
     ethr =  1.00E-13,  avg # of iterations =  2.4

     negative rho (up, down):  3.426E-04 0.000E+00

     add environment contribution to local potential

     total cpu time spent up to now is     1014.4 secs

     total energy              =    -421.18863042 Ry
     estimated scf accuracy    <          1.0E-14 Ry

     total charge of GC-SCF    =       2.34211525 e
     the Fermi energy          =      -4.40400045 eV
                        (error :       0.00000045 eV)
     electrostatic embedding   =      -1.10375948 Ry
     cavitation energy         =       0.01922012 Ry
     electrolyte free energy   =      -0.02044830 Ry
     correction to one-el term =     -72.13614293 Ry

     iteration # 43     ecut=    80.00 Ry     beta= 0.20
     Davidson diagonalization with overlap

---- Real-time Memory Report at c_bands before calling an iterative solver
           376 MiB given to the printing process from OS
           142 MiB allocation reported by mallinfo(arena+hblkhd)
        172421 MiB available memory on the node where the printing process lives
------------------
     ethr =  1.00E-13,  avg # of iterations =  2.0

     negative rho (up, down):  3.424E-04 0.000E+00

     total cpu time spent up to now is     1020.9 secs

     End of self-consistent calculation

          k = 0.0000 0.0000 0.0000 (186229 PWs)   bands (ev):

   -52.1788 -52.1788 -52.1712 -52.1712 -51.7449 -51.7448 -51.7370 -51.7370
   -51.1640 -51.1640 -51.1558 -51.1558 -50.9505 -50.9439 -50.9424 -50.9405
   -50.9384 -50.9375 -50.9351 -50.9329 -50.9276 -50.9229 -50.9202 -50.9150
   -50.8575 -50.8575 -50.8495 -50.8495  -7.7990  -7.3995  -6.7018  -5.9011
    -5.7659  -5.6521  -5.3980  -5.3941  -4.7440  -4.6634  -4.6459  -4.5708
    -4.5549  -4.3190  -4.2577  -3.9690  -3.8648  -3.7805  -3.6116  -3.5871
    -3.4927  -3.0867  -2.9629  -2.9613  -2.5927  -2.2534  -1.9603  -1.7054
    -1.4891  -1.4784  -1.3582  -1.0983  -1.0246  -0.8754  -0.7469

     occupation numbers 
     1.0000   1.0000   1.0000   1.0000   1.0000   1.0000   1.0000   1.0000
     1.0000   1.0000   1.0000   1.0000   1.0000   1.0000   1.0000   1.0000
     1.0000   1.0000   1.0000   1.0000   1.0000   1.0000   1.0000   1.0000
     1.0000   1.0000   1.0000   1.0000   1.0000   1.0000   1.0000   1.0000
     1.0000   1.0000   1.0000   1.0000   1.0104   1.0497   1.0618   1.0732
     1.0546   0.0974   0.0225   0.0000   0.0000   0.0000   0.0000   0.0000
     0.0000   0.0000   0.0000   0.0000   0.0000   0.0000   0.0000   0.0000
     0.0000   0.0000   0.0000   0.0000   0.0000   0.0000   0.0000

          k = 0.0000 0.0891 0.0000 (186265 PWs)   bands (ev):

   -52.1788 -52.1788 -52.1712 -52.1712 -51.7449 -51.7448 -51.7370 -51.7370
   -51.1640 -51.1640 -51.1558 -51.1558 -50.9504 -50.9439 -50.9425 -50.9406
   -50.9384 -50.9375 -50.9351 -50.9329 -50.9275 -50.9229 -50.9202 -50.9150
   -50.8575 -50.8575 -50.8495 -50.8495  -7.7739  -7.3748  -6.6799  -6.2023
    -5.7967  -5.7707  -5.2909  -5.1018  -4.9119  -4.6716  -4.6545  -4.5065
    -4.3152  -4.2720  -4.2214  -4.0123  -3.8779  -3.8447  -3.6598  -3.5671
    -3.4242  -3.1269  -2.9653  -2.9419  -2.5478  -2.3766  -2.0267  -1.7490
    -1.6714  -1.3852  -1.1273  -1.0583  -0.9386  -0.8844  -0.7447

     occupation numbers 
     1.0000   1.0000   1.0000   1.0000   1.0000   1.0000   1.0000   1.0000
     1.0000   1.0000   1.0000   1.0000   1.0000   1.0000   1.0000   1.0000
     1.0000   1.0000   1.0000   1.0000   1.0000   1.0000   1.0000   1.0000
     1.0000   1.0000   1.0000   1.0000   1.0000   1.0000   1.0000   1.0000
     1.0000   1.0000   1.0000   1.0000   1.0000   1.0442   1.0559   0.9241
     0.0900   0.0328   0.0079   0.0000   0.0000   0.0000   0.0000   0.0000
     0.0000   0.0000   0.0000   0.0000   0.0000   0.0000   0.0000   0.0000
     0.0000   0.0000   0.0000   0.0000   0.0000   0.0000   0.0000

          k = 0.0000 0.1782 0.0000 (186243 PWs)   bands (ev):

   -52.1788 -52.1788 -52.1712 -52.1712 -51.7449 -51.7448 -51.7370 -51.7370
   -51.1640 -51.1640 -51.1558 -51.1558 -50.9501 -50.9439 -50.9430 -50.9406
   -50.9383 -50.9375 -50.9352 -50.9330 -50.9274 -50.9229 -50.9202 -50.9150
   -50.8575 -50.8575 -50.8495 -50.8495  -7.6985  -7.3007  -6.6223  -6.5641
    -6.1465  -5.7650  -5.3415  -4.8424  -4.7957  -4.6453  -4.4708  -4.4024
    -4.2829  -4.1434  -4.1086  -4.0826  -3.7977  -3.7924  -3.7552  -3.5526
    -3.4158  -3.2090  -3.0228  -2.8924  -2.5774  -2.4010  -2.3265  -1.7776
    -1.6353  -1.3402  -1.0568  -0.8970  -0.8385  -0.7951  -0.7494

     occupation numbers 
     1.0000   1.0000   1.0000   1.0000   1.0000   1.0000   1.0000   1.0000
     1.0000   1.0000   1.0000   1.0000   1.0000   1.0000   1.0000   1.0000
     1.0000   1.0000   1.0000   1.0000   1.0000   1.0000   1.0000   1.0000
     1.0000   1.0000   1.0000   1.0000   1.0000   1.0000   1.0000   1.0000
     1.0000   1.0000   1.0000   1.0005   1.0025   1.0622   0.7605   0.3925
     0.0431   0.0005   0.0001   0.0000   0.0000   0.0000   0.0000   0.0000
     0.0000   0.0000   0.0000   0.0000   0.0000   0.0000   0.0000   0.0000
     0.0000   0.0000   0.0000   0.0000   0.0000   0.0000   0.0000

          k = 0.0000 0.2673 0.0000 (186330 PWs)   bands (ev):

   -52.1788 -52.1788 -52.1712 -52.1712 -51.7449 -51.7448 -51.7370 -51.7370
   -51.1640 -51.1640 -51.1558 -51.1558 -50.9497 -50.9440 -50.9434 -50.9407
   -50.9382 -50.9375 -50.9352 -50.9331 -50.9272 -50.9229 -50.9202 -50.9149
   -50.8575 -50.8575 -50.8495 -50.8495  -7.5731  -7.1784  -6.8913  -6.5902
    -6.3737  -5.8773  -5.4227  -4.9639  -4.6030  -4.3541  -4.2984  -4.2690
    -4.2264  -4.2048  -4.0307  -3.8834  -3.8637  -3.7360  -3.6188  -3.5501
    -3.3942  -3.2935  -3.1493  -2.8394  -2.7853  -2.5417  -2.2615  -1.8572
    -1.6008  -1.2790  -1.1282  -0.9313  -0.7661  -0.6708  -0.6337

     occupation numbers 
     1.0000   1.0000   1.0000   1.0000   1.0000   1.0000   1.0000   1.0000
     1.0000   1.0000   1.0000   1.0000   1.0000   1.0000   1.0000   1.0000
     1.0000   1.0000   1.0000   1.0000   1.0000   1.0000   1.0000   1.0000
     1.0000   1.0000   1.0000   1.0000   1.0000   1.0000   1.0000   1.0000
     1.0000   1.0000   1.0000   1.0000   1.0828   0.1904   0.0622   0.0304
     0.0092   0.0047   0.0000   0.0000   0.0000   0.0000   0.0000   0.0000
     0.0000   0.0000   0.0000   0.0000   0.0000   0.0000   0.0000   0.0000
     0.0000   0.0000   0.0000   0.0000   0.0000   0.0000   0.0000

          k = 0.0000 0.3563 0.0000 (186318 PWs)   bands (ev):

   -52.1788 -52.1788 -52.1712 -52.1712 -51.7449 -51.7448 -51.7370 -51.7370
   -51.1640 -51.1640 -51.1558 -51.1558 -50.9494 -50.9443 -50.9435 -50.9407
   -50.9382 -50.9375 -50.9352 -50.9332 -50.9271 -50.9229 -50.9202 -50.9149
   -50.8575 -50.8575 -50.8495 -50.8495  -7.3985  -7.1706  -7.0024  -6.7904
    -6.2814  -6.0875  -5.3339  -5.1337  -4.5389  -4.3689  -4.2241  -4.1525
    -4.1039  -4.0271  -4.0165  -3.9373  -3.7307  -3.6790  -3.5471  -3.5059
    -3.3854  -3.2449  -3.2180  -2.9590  -2.9135  -2.6120  -2.2119  -1.9519
    -1.5915  -1.1942  -1.1890  -1.0039  -0.9567  -0.6769  -0.6205

     occupation numbers 
     1.0000   1.0000   1.0000   1.0000   1.0000   1.0000   1.0000   1.0000
     1.0000   1.0000   1.0000   1.0000   1.0000   1.0000   1.0000   1.0000
     1.0000   1.0000   1.0000   1.0000   1.0000   1.0000   1.0000   1.0000
     1.0000   1.0000   1.0000   1.0000   1.0000   1.0000   1.0000   1.0000
     1.0000   1.0000   1.0000   1.0000   1.0241   0.2433   0.0086   0.0007
     0.0001   0.0000   0.0000   0.0000   0.0000   0.0000   0.0000   0.0000
     0.0000   0.0000   0.0000   0.0000   0.0000   0.0000   0.0000   0.0000
     0.0000   0.0000   0.0000   0.0000   0.0000   0.0000   0.0000

          k = 0.0909 0.0121 0.0000 (186373 PWs)   bands (ev):

   -52.1787 -52.1787 -52.1714 -52.1714 -51.7447 -51.7447 -51.7372 -51.7372
   -51.1639 -51.1638 -51.1560 -51.1560 -50.9503 -50.9437 -50.9422 -50.9404
   -50.9388 -50.9375 -50.9353 -50.9330 -50.9274 -50.9227 -50.9204 -50.9151
   -50.8573 -50.8573 -50.8497 -50.8497  -7.7722  -7.3726  -6.6746  -5.8852
    -5.7415  -5.6090  -5.4210  -5.3137  -5.1413  -4.7854  -4.7246  -4.6381
    -4.5257  -4.2026  -4.1016  -3.9944  -3.7872  -3.7510  -3.6761  -3.4593
    -3.4545  -3.2140  -2.9596  -2.9346  -2.5600  -2.4345  -2.0231  -1.6864
    -1.6768  -1.4555  -1.2608  -1.0594  -1.0274  -0.8506  -0.7866

     occupation numbers 
     1.0000   1.0000   1.0000   1.0000   1.0000   1.0000   1.0000   1.0000
     1.0000   1.0000   1.0000   1.0000   1.0000   1.0000   1.0000   1.0000
     1.0000   1.0000   1.0000   1.0000   1.0000   1.0000   1.0000   1.0000
     1.0000   1.0000   1.0000   1.0000   1.0000   1.0000   1.0000   1.0000
     1.0000   1.0000   1.0000   1.0000   1.0000   1.0034   1.0164   1.0670
     0.9896   0.0043   0.0001   0.0000   0.0000   0.0000   0.0000   0.0000
     0.0000   0.0000   0.0000   0.0000   0.0000   0.0000   0.0000   0.0000
     0.0000   0.0000   0.0000   0.0000   0.0000   0.0000   0.0000

          k = 0.0909 0.1012 0.0000 (186296 PWs)   bands (ev):

   -52.1787 -52.1787 -52.1714 -52.1714 -51.7447 -51.7447 -51.7372 -51.7372
   -51.1639 -51.1638 -51.1560 -51.1560 -50.9502 -50.9437 -50.9424 -50.9404
   -50.9388 -50.9375 -50.9353 -50.9330 -50.9274 -50.9227 -50.9204 -50.9151
   -50.8573 -50.8573 -50.8497 -50.8496  -7.7403  -7.3412  -6.6470  -6.2274
    -5.8197  -5.7412  -5.2056  -5.1792  -5.0849  -4.8614  -4.8136  -4.6332
    -4.2093  -4.1991  -3.9754  -3.8891  -3.8580  -3.7446  -3.5822  -3.4783
    -3.3843  -3.2970  -2.9478  -2.9086  -2.6637  -2.5012  -2.0830  -1.9375
    -1.7329  -1.3457  -1.1979  -1.1379  -0.9791  -0.8543  -0.7887

     occupation numbers 
     1.0000   1.0000   1.0000   1.0000   1.0000   1.0000   1.0000   1.0000
     1.0000   1.0000   1.0000   1.0000   1.0000   1.0000   1.0000   1.0000
     1.0000   1.0000   1.0000   1.0000   1.0000   1.0000   1.0000   1.0000
     1.0000   1.0000   1.0000   1.0000   1.0000   1.0000   1.0000   1.0000
     1.0000   1.0000   1.0000   1.0000   1.0000   1.0003   1.0014   1.0700
     0.0054   0.0039   0.0000   0.0000   0.0000   0.0000   0.0000   0.0000
     0.0000   0.0000   0.0000   0.0000   0.0000   0.0000   0.0000   0.0000
     0.0000   0.0000   0.0000   0.0000   0.0000   0.0000   0.0000

          k = 0.0909 0.1903 0.0000 (186330 PWs)   bands (ev):

   -52.1787 -52.1787 -52.1714 -52.1714 -51.7447 -51.7447 -51.7372 -51.7372
   -51.1639 -51.1638 -51.1560 -51.1560 -50.9498 -50.9437 -50.9429 -50.9404
   -50.9388 -50.9374 -50.9353 -50.9331 -50.9272 -50.9227 -50.9204 -50.9151
   -50.8573 -50.8573 -50.8497 -50.8496  -7.6580  -7.2605  -6.5999  -6.5703
    -6.1621  -5.7424  -5.3384  -5.1710  -4.8171  -4.7969  -4.7062  -4.4002
    -4.1782  -4.0371  -3.9135  -3.8094  -3.7712  -3.7259  -3.5615  -3.5029
    -3.3883  -3.3771  -2.9969  -2.8552  -2.8181  -2.4250  -2.3474  -1.8210
    -1.7556  -1.3097  -1.1554  -1.1189  -0.9278  -0.8185  -0.7473

     occupation numbers 
     1.0000   1.0000   1.0000   1.0000   1.0000   1.0000   1.0000   1.0000
     1.0000   1.0000   1.0000   1.0000   1.0000   1.0000   1.0000   1.0000
     1.0000   1.0000   1.0000   1.0000   1.0000   1.0000   1.0000   1.0000
     1.0000   1.0000   1.0000   1.0000   1.0000   1.0000   1.0000   1.0000
     1.0000   1.0000   1.0000   1.0000   1.0013   1.0024   1.0242   0.3819
     0.0019   0.0000   0.0000   0.0000   0.0000   0.0000   0.0000   0.0000
     0.0000   0.0000   0.0000   0.0000   0.0000   0.0000   0.0000   0.0000
     0.0000   0.0000   0.0000   0.0000   0.0000   0.0000   0.0000

          k = 0.0909 0.2794 0.0000 (186389 PWs)   bands (ev):

   -52.1787 -52.1787 -52.1714 -52.1714 -51.7447 -51.7447 -51.7372 -51.7372
   -51.1639 -51.1638 -51.1560 -51.1560 -50.9494 -50.9439 -50.9432 -50.9405
   -50.9387 -50.9374 -50.9354 -50.9332 -50.9271 -50.9227 -50.9204 -50.9151
   -50.8573 -50.8573 -50.8497 -50.8496  -7.5257  -7.1320  -6.9048  -6.5804
    -6.3503  -5.8757  -5.3889  -5.1178  -4.9566  -4.7364  -4.2794  -4.2130
    -4.1272  -4.0116  -3.8720  -3.8121  -3.7906  -3.5940  -3.5816  -3.4679
    -3.3582  -3.3427  -3.1159  -2.8858  -2.8069  -2.6119  -2.2206  -1.8456
    -1.6969  -1.2266  -1.1769  -0.9587  -0.9465  -0.8842  -0.8029

     occupation numbers 
     1.0000   1.0000   1.0000   1.0000   1.0000   1.0000   1.0000   1.0000
     1.0000   1.0000   1.0000   1.0000   1.0000   1.0000   1.0000   1.0000
     1.0000   1.0000   1.0000   1.0000   1.0000   1.0000   1.0000   1.0000
     1.0000   1.0000   1.0000   1.0000   1.0000   1.0000   1.0000   1.0000
     1.0000   1.0000   1.0000   1.0000   1.0000   1.0125   0.0396   0.0060
     0.0003   0.0000   0.0000   0.0000   0.0000   0.0000   0.0000   0.0000
     0.0000   0.0000   0.0000   0.0000   0.0000   0.0000   0.0000   0.0000
     0.0000   0.0000   0.0000   0.0000   0.0000   0.0000   0.0000

          k = 0.0909 0.3685 0.0000 (186431 PWs)   bands (ev):

[...]
     atom   15 type  1   force =     0.00011930   -0.01722810    0.01589550
     atom   16 type  1   force =    -0.00012006    0.01722822   -0.01589548
     atom   17 type  1   force =     0.00008225   -0.02521515   -0.07578554
     atom   18 type  1   force =     0.00015484    0.01191426   -0.08741268
     atom   19 type  1   force =    -0.00003108    0.00055217   -0.05846239
     atom   20 type  1   force =    -0.00002097   -0.00312997   -0.04692116
     atom   21 type  1   force =     0.00002805    0.00144372   -0.02786098
     atom   22 type  1   force =    -0.00002480   -0.00022189   -0.00874934
     atom   23 type  1   force =     0.00002479    0.00022189    0.00874946
     atom   24 type  1   force =    -0.00002806   -0.00144372    0.02786110
     atom   25 type  1   force =     0.00002098    0.00312996    0.04692127
     atom   26 type  1   force =     0.00003115   -0.00055224    0.05846270
     atom   27 type  1   force =    -0.00015476   -0.01191399    0.08741290
     atom   28 type  1   force =    -0.00008202    0.02521490    0.07578594
 

     Forces acting on atoms (cartesian axes, Ry/au):

     atom    1 type  1   force =     0.00021076    0.00016185   -0.00007494
     atom    2 type  1   force =    -0.00020759   -0.00016206    0.00007499
     atom    3 type  1   force =     0.00008357    0.00006498    0.00002349
     atom    4 type  1   force =    -0.00001844   -0.00015172    0.00000300
     atom    5 type  1   force =     0.00016270    0.00005825    0.00001055
     atom    6 type  1   force =    -0.00012726   -0.00003107    0.00000955
     atom    7 type  1   force =     0.00008851    0.00009029   -0.00020745
     atom    8 type  1   force =     0.00002145   -0.00016077   -0.00002660
     atom    9 type  1   force =    -0.00002155    0.00016083    0.00002648
     atom   10 type  1   force =    -0.00008818   -0.00009008    0.00020719
     atom   11 type  1   force =     0.00012750    0.00003101   -0.00000936
     atom   12 type  1   force =    -0.00016093   -0.00005843   -0.00001002
     atom   13 type  1   force =     0.00001773    0.00015185   -0.00000313
     atom   14 type  1   force =    -0.00008544   -0.00006514   -0.00002379
     atom   15 type  1   force =     0.00021136    0.00016184   -0.00007492
     atom   16 type  1   force =    -0.00021487   -0.00016195    0.00007483
     atom   17 type  1   force =     0.00008687    0.00006525    0.00002404
     atom   18 type  1   force =    -0.00001722   -0.00015200    0.00000331
     atom   19 type  1   force =     0.00015997    0.00005862    0.00000960
     atom   20 type  1   force =    -0.00012789   -0.00003068    0.00000923
     atom   21 type  1   force =     0.00008793    0.00009007   -0.00020724
     atom   22 type  1   force =     0.00002163   -0.00016090   -0.00002631
     atom   23 type  1   force =    -0.00002157    0.00016092    0.00002643
     atom   24 type  1   force =    -0.00008833   -0.00009018    0.00020743
     atom   25 type  1   force =     0.00012776    0.00003091   -0.00000935
     atom   26 type  1   force =    -0.00016144   -0.00005831   -0.00001012
     atom   27 type  1   force =     0.00001802    0.00015172   -0.00000314
     atom   28 type  1   force =    -0.00008504   -0.00006508   -0.00002373
     The non-local contrib.  to forces
     atom    1 type  1   force =     0.00030809   -0.02181149    0.09843665
     atom    2 type  1   force =    -0.00030645    0.02181139   -0.09843658
     atom    3 type  1   force =     0.00020699   -0.02830752   -0.07841008
     atom    4 type  1   force =     0.00092534    0.00842690   -0.02869069
     atom    5 type  1   force =    -0.00078436   -0.00199282    0.00618527
     atom    6 type  1   force =     0.00006878    0.00011159    0.00404462
     atom    7 type  1   force =    -0.00037132   -0.00054789    0.00051221
     atom    8 type  1   force =     0.00072090   -0.00071852   -0.00032498
     atom    9 type  1   force =    -0.00072056    0.00071853    0.00032484
     atom   10 type  1   force =     0.00037148    0.00054803   -0.00051224
     atom   11 type  1   force =    -0.00006905   -0.00011187   -0.00404458
     atom   12 type  1   force =     0.00078553    0.00199272   -0.00618492
     atom   13 type  1   force =    -0.00092605   -0.00842690    0.02869014
     atom   14 type  1   force =    -0.00020782    0.02830746    0.07840972
     atom   15 type  1   force =     0.00030841   -0.02181149    0.09843666
     atom   16 type  1   force =    -0.00031030    0.02181191   -0.09843690
     atom   17 type  1   force =     0.00020885   -0.02830754   -0.07840932
     atom   18 type  1   force =     0.00092640    0.00842754   -0.02868979
     atom   19 type  1   force =    -0.00078620   -0.00199302    0.00618481
     atom   20 type  1   force =     0.00006834    0.00011234    0.00404481
     atom   21 type  1   force =    -0.00037163   -0.00054835    0.00051224
     atom   22 type  1   force =     0.00072063   -0.00071857   -0.00032480
     atom   23 type  1   force =    -0.00072063    0.00071866    0.00032484
     atom   24 type  1   force =     0.00037149    0.00054784   -0.00051211
     atom   25 type  1   force =    -0.00006870   -0.00011206   -0.00404461
     atom   26 type  1   force =     0.00078524    0.00199279   -0.00618509
     atom   27 type  1   force =    -0.00092571   -0.00842693    0.02869009
     atom   28 type  1   force =    -0.00020763    0.02830755    0.07840985
     The ionic contribution  to forces
     atom    1 type  1   force =    -0.00060050   -0.19920238   13.11667679
     atom    2 type  1   force =     0.00064695    0.19920278  -13.11668002
     atom    3 type  1   force =     0.00173507   -0.36028020  -11.76659756
     atom    4 type  1   force =    -0.00360578    0.21318032   -9.38717307
     atom    5 type  1   force =     0.00023132   -0.05314673   -7.75340982
     atom    6 type  1   force =    -0.00122872    0.01197117   -5.27562830
     atom    7 type  1   force =     0.00457681    0.02190888   -3.17953722
     atom    8 type  1   force =    -0.00275318   -0.06969906   -1.12611070
     atom    9 type  1   force =     0.00275473    0.06969847    1.12611201
     atom   10 type  1   force =    -0.00457367   -0.02190166    3.17953951
     atom   11 type  1   force =     0.00123042   -0.01197707    5.27562154
     atom   12 type  1   force =    -0.00021396    0.05314915    7.75340462
     atom   13 type  1   force =     0.00359425   -0.21317937    9.38716831
     atom   14 type  1   force =    -0.00175951    0.36027383   11.76659944
     atom   15 type  1   force =    -0.00059333   -0.19920263   13.11667911
     atom   16 type  1   force =     0.00054673    0.19920524  -13.11667911
     atom   17 type  1   force =     0.00177720   -0.36028250  -11.76659619
     atom   18 type  1   force =    -0.00358785    0.21318801   -9.38716863
     atom   19 type  1   force =     0.00020375   -0.05315070   -7.75339473
     atom   20 type  1   force =    -0.00123416    0.01198146   -5.27561977
     atom   21 type  1   force =     0.00457150    0.02190125   -3.17953848
     atom   22 type  1   force =    -0.00275671   -0.06969985   -1.12611728
     atom   23 type  1   force =     0.00275336    0.06970069    1.12611599
     atom   24 type  1   force =    -0.00457453   -0.02190440    3.17953737
     atom   25 type  1   force =     0.00123579   -0.01197967    5.27561912
     atom   26 type  1   force =    -0.00022095    0.05315057    7.75340918
     atom   27 type  1   force =     0.00359970   -0.21318075    9.38716741
     atom   28 type  1   force =    -0.00175471    0.36027515   11.76660047
     The local contribution  to forces
     atom    1 type  1   force =     0.00038403    0.23840381  -13.23108411
     atom    2 type  1   force =    -0.00042970   -0.23840439   13.23108684
     atom    3 type  1   force =    -0.00194032    0.41386766   11.92081698
     atom    4 type  1   force =     0.00250727   -0.23367296    9.50327959
     atom    5 type  1   force =     0.00074696    0.05464554    7.80569767
     atom    6 type  1   force =     0.00105364   -0.00898385    5.31851446
     atom    7 type  1   force =    -0.00414504   -0.02271444    3.20667848
     atom    8 type  1   force =     0.00207852    0.07047869    1.13515834
     atom    9 type  1   force =    -0.00208050   -0.07047804   -1.13515980
     atom   10 type  1   force =     0.00414206    0.02270726   -3.20668121
     atom   11 type  1   force =    -0.00105484    0.00898998   -5.31850760
     atom   12 type  1   force =    -0.00076365   -0.05464808   -7.80569238
     atom   13 type  1   force =    -0.00249566    0.23367212   -9.50327446
     atom   14 type  1   force =     0.00196400   -0.41386134  -11.92081889
     atom   15 type  1   force =     0.00037700    0.23840406  -13.23108620
     atom   16 type  1   force =    -0.00033123   -0.23840733   13.23108634
     atom   17 type  1   force =    -0.00198144    0.41387043   11.92081512
     atom   18 type  1   force =     0.00248939   -0.23368181    9.50327441
     atom   19 type  1   force =     0.00077350    0.05465017    7.80568187
     atom   20 type  1   force =     0.00105891   -0.00899452    5.31850531
     atom   21 type  1   force =    -0.00413998   -0.02270654    3.20667995
     atom   22 type  1   force =     0.00208252    0.07047941    1.13516508
     atom   23 type  1   force =    -0.00207908   -0.07048031   -1.13516388
     atom   24 type  1   force =     0.00414277    0.02271010   -3.20667893
     atom   25 type  1   force =    -0.00106030    0.00899269   -5.31850511
     atom   26 type  1   force =    -0.00075687   -0.05464943   -7.80569689
     atom   27 type  1   force =    -0.00250121    0.23367339   -9.50327353
     atom   28 type  1   force =     0.00195934   -0.41386267  -11.92081999
     The core correction contribution to forces
     atom    1 type  1   force =     0.00000000    0.00000000    0.00000000
     atom    2 type  1   force =     0.00000000    0.00000000    0.00000000
     atom    3 type  1   force =     0.00000000    0.00000000    0.00000000
     atom    4 type  1   force =     0.00000000    0.00000000    0.00000000
     atom    5 type  1   force =     0.00000000    0.00000000    0.00000000
     atom    6 type  1   force =     0.00000000    0.00000000    0.00000000
     atom    7 type  1   force =     0.00000000    0.00000000    0.00000000
     atom    8 type  1   force =     0.00000000    0.00000000    0.00000000
     atom    9 type  1   force =     0.00000000    0.00000000    0.00000000
     atom   10 type  1   force =     0.00000000    0.00000000    0.00000000
     atom   11 type  1   force =     0.00000000    0.00000000    0.00000000
     atom   12 type  1   force =     0.00000000    0.00000000    0.00000000
     atom   13 type  1   force =     0.00000000    0.00000000    0.00000000
     atom   14 type  1   force =     0.00000000    0.00000000    0.00000000
     atom   15 type  1   force =     0.00000000    0.00000000    0.00000000
     atom   16 type  1   force =     0.00000000    0.00000000    0.00000000
     atom   17 type  1   force =     0.00000000    0.00000000    0.00000000
     atom   18 type  1   force =     0.00000000    0.00000000    0.00000000
     atom   19 type  1   force =     0.00000000    0.00000000    0.00000000
     atom   20 type  1   force =     0.00000000    0.00000000    0.00000000
     atom   21 type  1   force =     0.00000000    0.00000000    0.00000000
     atom   22 type  1   force =     0.00000000    0.00000000    0.00000000
     atom   23 type  1   force =     0.00000000    0.00000000    0.00000000
     atom   24 type  1   force =     0.00000000    0.00000000    0.00000000
     atom   25 type  1   force =     0.00000000    0.00000000    0.00000000
     atom   26 type  1   force =     0.00000000    0.00000000    0.00000000
     atom   27 type  1   force =     0.00000000    0.00000000    0.00000000
     atom   28 type  1   force =     0.00000000    0.00000000    0.00000000
     The Hubbard contrib.    to forces
     atom    1 type  1   force =     0.00000000    0.00000000    0.00000000
     atom    2 type  1   force =     0.00000000    0.00000000    0.00000000
     atom    3 type  1   force =     0.00000000    0.00000000    0.00000000
     atom    4 type  1   force =     0.00000000    0.00000000    0.00000000
     atom    5 type  1   force =     0.00000000    0.00000000    0.00000000
     atom    6 type  1   force =     0.00000000    0.00000000    0.00000000
     atom    7 type  1   force =     0.00000000    0.00000000    0.00000000
     atom    8 type  1   force =     0.00000000    0.00000000    0.00000000
     atom    9 type  1   force =     0.00000000    0.00000000    0.00000000
     atom   10 type  1   force =     0.00000000    0.00000000    0.00000000
     atom   11 type  1   force =     0.00000000    0.00000000    0.00000000
     atom   12 type  1   force =     0.00000000    0.00000000    0.00000000
     atom   13 type  1   force =     0.00000000    0.00000000    0.00000000
     atom   14 type  1   force =     0.00000000    0.00000000    0.00000000
     atom   15 type  1   force =     0.00000000    0.00000000    0.00000000
     atom   16 type  1   force =     0.00000000    0.00000000    0.00000000
     atom   17 type  1   force =     0.00000000    0.00000000    0.00000000
     atom   18 type  1   force =     0.00000000    0.00000000    0.00000000
     atom   19 type  1   force =     0.00000000    0.00000000    0.00000000
     atom   20 type  1   force =     0.00000000    0.00000000    0.00000000
     atom   21 type  1   force =     0.00000000    0.00000000    0.00000000
     atom   22 type  1   force =     0.00000000    0.00000000    0.00000000
     atom   23 type  1   force =     0.00000000    0.00000000    0.00000000
     atom   24 type  1   force =     0.00000000    0.00000000    0.00000000
     atom   25 type  1   force =     0.00000000    0.00000000    0.00000000
     atom   26 type  1   force =     0.00000000    0.00000000    0.00000000
     atom   27 type  1   force =     0.00000000    0.00000000    0.00000000
     atom   28 type  1   force =     0.00000000    0.00000000    0.00000000
     The SCF correction term to forces
     atom    1 type  1   force =    -0.00000001   -0.00000001    0.00000003
     atom    2 type  1   force =    -0.00000000    0.00000001   -0.00000002
     atom    3 type  1   force =    -0.00000000   -0.00000002   -0.00000000
     atom    4 type  1   force =     0.00000001   -0.00000001    0.00000005
     atom    5 type  1   force =     0.00000000   -0.00000000    0.00000002
     atom    6 type  1   force =     0.00000000    0.00000001    0.00000003
     atom    7 type  1   force =    -0.00000000   -0.00000000    0.00000004
     atom    8 type  1   force =    -0.00000000    0.00000001    0.00000002
     atom    9 type  1   force =     0.00000000   -0.00000001    0.00000000
     atom   10 type  1   force =     0.00000000    0.00000000   -0.00000001
     atom   11 type  1   force =     0.00000000   -0.00000000   -0.00000002
     atom   12 type  1   force =     0.00000000    0.00000001   -0.00000002
     atom   13 type  1   force =     0.00000000    0.00000000   -0.00000001
     atom   14 type  1   force =    -0.00000001   -0.00000000    0.00000001
     atom   15 type  1   force =    -0.00000002   -0.00000001    0.00000002
     atom   16 type  1   force =    -0.00000001    0.00000002   -0.00000002
     atom   17 type  1   force =    -0.00000000    0.00000000   -0.00000002
     atom   18 type  1   force =     0.00000000   -0.00000000    0.00000001
     atom   19 type  1   force =    -0.00000000   -0.00000000    0.00000003
     atom   20 type  1   force =     0.00000000    0.00000001    0.00000004
     atom   21 type  1   force =    -0.00000000   -0.00000000    0.00000004
     atom   22 type  1   force =    -0.00000000    0.00000000    0.00000002
     atom   23 type  1   force =     0.00000000   -0.00000001    0.00000001
     atom   24 type  1   force =     0.00000000    0.00000000   -0.00000001
     atom   25 type  1   force =     0.00000000   -0.00000001   -0.00000002
     atom   26 type  1   force =     0.00000000    0.00000000   -0.00000002
     atom   27 type  1   force =     0.00000000    0.00000000   -0.00000001
     atom   28 type  1   force =    -0.00000001   -0.00000001    0.00000001

     Total force =     0.000989     Total SCF correction =     0.000000

     Writing all to output data dir ./Li/Lithium.save/ :
     XML data file
     init_run     :     10.76s CPU     11.11s WALL (       1 calls)
     electrons    :   1000.64s CPU   1009.59s WALL (       1 calls)
     forces       :     14.33s CPU     14.38s WALL (       1 calls)

     Called by init_run:
     wfcinit      :      2.66s CPU      2.71s WALL (       1 calls)
     wfcinit:wfcr :      2.54s CPU      2.58s WALL (      25 calls)
     potinit      :      0.85s CPU      0.86s WALL (       1 calls)
     hinit0       :      3.60s CPU      3.81s WALL (       1 calls)

     Called by electrons:
     c_bands      :    724.93s CPU    731.35s WALL (      43 calls)
     sum_band     :     53.68s CPU     54.24s WALL (      43 calls)
     v_of_rho     :      3.05s CPU      3.14s WALL (      44 calls)
     v_h          :      0.25s CPU      0.25s WALL (      44 calls)
     v_xc         :      2.80s CPU      2.89s WALL (      44 calls)
     newd         :      1.14s CPU      1.15s WALL (      44 calls)
     PAW_pot      :      1.26s CPU      1.30s WALL (      44 calls)
     mix_rho      :      8.32s CPU      8.96s WALL (      43 calls)

     Called by c_bands:
     init_us_2    :      5.06s CPU      5.10s WALL (    2200 calls)
     cegterg      :    686.73s CPU    692.91s WALL (    1360 calls)

     Called by sum_band:
     sum_band:wei :      0.27s CPU      0.28s WALL (      43 calls)
     sum_band:loo :     51.86s CPU     52.25s WALL (      43 calls)
     sum_band:buf :      0.44s CPU      0.45s WALL (    1075 calls)
     sum_band:ini :      2.47s CPU      2.49s WALL (    1075 calls)
     sum_band:cal :      5.90s CPU      5.95s WALL (    1075 calls)
     sum_band:bec :      0.22s CPU      0.25s WALL (    1075 calls)
     addusdens    :      0.61s CPU      0.69s WALL (      43 calls)
                                        0.00s GPU  (      43 calls)
     addusd:skk   :      0.11s CPU      0.11s WALL (      43 calls)
                                        0.00s GPU  (      43 calls)

     Called by *egterg:
     cdiaghg      :    143.51s CPU    145.51s WALL (   17313 calls)
     cegterg:over :     53.36s CPU     53.79s WALL (   16072 calls)
     cegterg:upda :     22.87s CPU     22.99s WALL (   16072 calls)
     cegterg:last :      6.44s CPU      6.46s WALL (    1849 calls)
     h_psi        :    423.75s CPU    427.19s WALL (   17457 calls)
     s_psi        :     19.46s CPU     19.62s WALL (   17457 calls)
     g_psi        :      0.71s CPU      0.72s WALL (   16072 calls)

     Called by h_psi:
     h_psi:calbec :     36.65s CPU     37.10s WALL (   17457 calls)
     vloc_psi     :    364.79s CPU    367.64s WALL (   17457 calls)
                                        0.00s GPU  (   17457 calls)
     add_vuspsi   :     20.92s CPU     21.06s WALL (   17457 calls)

     General routines
     calbec       :     42.96s CPU     43.47s WALL (   18632 calls)
     fft          :      4.55s CPU      4.71s WALL (     572 calls)
     ffts         :      4.84s CPU      4.88s WALL (    5253 calls)
     fftw         :    391.42s CPU    394.47s WALL (  702553 calls)
     interpolate  :      0.26s CPU      0.26s WALL (      44 calls)
 
     Parallel routines

     PAW routines
     PAW_pot      :      1.26s CPU      1.30s WALL (      44 calls)
 
     Environ routines
 
     PWSCF        :  17m 6.03s CPU  17m15.53s WALL

 
   This run was terminated on:   5:37:21  12Jan2025            

=------------------------------------------------------------------------------=
   JOB DONE.
=------------------------------------------------------------------------------=
