
     Program PWSCF v.7.4 starts on  5Jan2025 at  4: 3:22 
        Git branch: develop
        Last git commit: e877ff360aceba4b8d76ffc2fb1c70545fc5dd57
        Last git commit date: Sat Jan 4 12:56:15 2025 +0000
        Last git commit subject: Merge branch 'orthoU' into 'develop'

     This program is part of the open-source Quantum ESPRESSO suite
     for quantum simulation of materials; please cite
         "P. Giannozzi et al., J. Phys.:Condens. Matter 21 395502 (2009);
         "P. Giannozzi et al., J. Phys.:Condens. Matter 29 465901 (2017);
         "P. Giannozzi et al., J. Chem. Phys. 152 154105 (2020);
          URL http://www.quantum-espresso.org", 
     in publications or presentations arising from this work. More details at
     http://www.quantum-espresso.org/quote

     Parallel version (MPI), running on   440 processors

     MPI processes distributed on    11 nodes
     176931 MiB available memory on the printing compute node when the environment starts
 
     Reading input from espresso.pwi
Warning: card &CELL ignored
Warning: card    PRESS_CONV_THR   = 0.1 ignored
Warning: card    CELL_DOFREE      = 'ALL' ignored
Warning: card / ignored
Warning: card &FCP ignored
Warning: card / ignored
Warning: card &RISM ignored
Warning: card / ignored

     Current dimensions of program PWSCF are:
     Max number of different atomic species (ntypx) = 10
     Max number of k-points (npk) =  40000
     Max angular momentum in pseudopotentials (lmaxx) =  4

     IMPORTANT: XC functional enforced from input :
     Exchange-correlation= PBE
                           (   1   4   3   4   0   0   0)
     Any further DFT definition will be discarded
     Please, verify this is what you really want

 
     Reading input from environ.in:
     * using ionic solvent mode
     * setting boundary derivatives method to SSCS default
     * setting electrolyte-boundary derivatives method to SSCS default

Environ Warning (1001): card EOF ignored

     
     Found identity + (  0.5000  0.0000  0.0000) symmetry
     This is a supercell, fractional translations are disabled
 
     K-points division:     npool     =       2
     R & G space division:  proc/nbgrp/npool/nimage =     220
     Subspace diagonalization in iterative solution of the eigenvalue problem:
     a serial algorithm will be used

 
     Parallelization info
     --------------------
     sticks:   dense  smooth     PW     G-vecs:    dense   smooth      PW
     Min          88      35      9                51884    13111    1783
     Max          94      36     10                51932    13145    1822
     Sum       19367    7745   2063             11420683  2888861  395615
 
     Using Slab Decomposition
 


     bravais-lattice index     =            8
     lattice parameter (alat)  =      12.9830  a.u.
     unit-cell volume          =   29886.2289 (a.u.)^3
     number of atoms/cell      =           52
     number of atomic types    =            1
     number of electrons       =       156.00
     number of Kohn-Sham states=          117
     kinetic-energy cutoff     =      80.0000  Ry
     charge density cutoff     =     800.0000  Ry
     scf convergence threshold =      1.0E-06
     mixing beta               =       0.2000
     number of iterations used =            8  local-TF  mixing
     energy convergence thresh.=      1.0E-05
     force convergence thresh. =      3.9E-04
     Exchange-correlation= PBE
                           (   1   4   3   4   0   0   0)
     nstep                     =          999


     ================================================================================
 
                                  Environ Setup Summary

     ================================================================================
 
     Please cite

          O. Andreussi, I. Dabo and N. Marzari, J. Chem. Phys. 136, 064102 (2012)
          F. Nattino, M. Truscott, N. Marzari, and O. Andreussi, J. Chem. Phys. 150, 041722 (2019)

     in publications or presentations arising from this work.

     ================================================================================
 
     Parameters
     ==========

     compensation onset threshold      =               0.1000E+00
     static permittivity               =                    89.90
     surface tension in input (dyn/cm) =                    37.30
     surface tension in internal units =               0.4792E-04

     Solvent Boundary
     ================

     solvent mode                      =                    ionic
     derivatives method                =                   lowmem
     electrolyte derivatives method    =                   lowmem
     numerical core for derivatives    =                      fft
     switching function adopted        =                     SCCS
     density limit for vacuum region   =               0.5000E-02
     density limit for bulk solvent    =               0.1000E-03
     soft-sphere radius mode           =                    bondi
     soft-sphere softness              =                     0.50
     alpha                             =                     1.32

     Electrostatic Setup
     ===================

     electrostatic problem to solve    =                    modpb
     numerical solver adopted          =                   newton
     type of auxiliary density adopted =                     none
     numerical core for poisson        =                      fft
     adopting a nested solver scheme
     inner solver                      =                       cg
     inner core                        =                      fft
     type of pbc corrections           =                parabolic
     numerical core for corrections    =                      1da

     ================================================================================
 

     >>>>> Grand-Canonical SCF is activated <<<<<
     Initial Total Charge  =     0.000000 e
     Target Fermi Energy   =    -3.904000 eV
     Thr. of Fermi Energy  =     0.001000 eV
     Wave-shift of Kerker  =     0.400000 bohr^-1
     Wave-shift of Hartree =     1.500000 bohr^-1
     Mixing Rate of Fermi  =     0.050000

     celldm(1)=  12.983009  celldm(2)=   1.802776  celldm(3)=   7.575360
     celldm(4)=   0.000000  celldm(5)=   0.000000  celldm(6)=   0.000000

     crystal axes: (cart. coord. in units of alat)
               a(1) = (   1.000000   0.000000   0.000000 )  
               a(2) = (   0.000000   1.802776   0.000000 )  
               a(3) = (   0.000000   0.000000   7.575360 )  

     reciprocal axes: (cart. coord. in units 2 pi/alat)
               b(1) = (  1.000000  0.000000  0.000000 )  
               b(2) = (  0.000000  0.554700  0.000000 )  
               b(3) = (  0.000000  0.000000  0.132007 )  


     PseudoPot. # 1 for Li read from file:
     /home/mmm1182/Repos/Pseudopotentials/pslibrary/Li.pbe-sl-kjpaw_psl.1.0.0.UPF
     MD5 check sum: f40bb4162937df3f7c561f1969c76545
     Pseudo is Projector augmented-wave, Zval =  3.0
     Generated using 'atomic' code by A. Dal Corso  v.7.3.1
     Shape of augmentation charge: PSQ
     Using radial grid of 1017 points,  4 beta functions with: 
                l(1) =   0
                l(2) =   0
                l(3) =   1
                l(4) =   1
     Q(r) pseudized with 0 coefficients 


     atomic species   valence    mass     pseudopotential
     Li                3.00     6.94000     Li( 1.00)

      2 Sym. Ops. (no inversion) found


                                    s                        frac. trans.

      isym =  1     identity                                     

 cryst.   s( 1) = (     1          0          0      )
                  (     0          1          0      )
                  (     0          0          1      )

 cart.    s( 1) = (  1.0000000  0.0000000  0.0000000 )
                  (  0.0000000  1.0000000  0.0000000 )
                  (  0.0000000  0.0000000  1.0000000 )


      isym =  2     inv. 180 deg rotation - cart. axis [1,0,0]   

 cryst.   s( 2) = (    -1          0          0      )
                  (     0          1          0      )
                  (     0          0          1      )

 cart.    s( 2) = ( -1.0000000  0.0000000  0.0000000 )
                  (  0.0000000  1.0000000  0.0000000 )
                  (  0.0000000  0.0000000  1.0000000 )


     point group C_s (m)    
     there are  2 classes
     the character table:

       E     s    
A'     1.00  1.00
A''    1.00 -1.00

     the symmetry operations in each class and the name of the first element:

     E        1
          identity                                               
     s        2
          inv. 180 deg rotation - cart. axis [1,0,0]             

   Cartesian axes

     site n.     atom                  positions (alat units)
         1        Li     tau(   1) = (   0.0000000   1.1408627   4.5290013  )
         2        Li     tau(   2) = (   0.0000000   1.5083429   4.2831397  )
         3        Li     tau(   3) = (   0.0000000   0.4033906   4.3119646  )
         4        Li     tau(   4) = (   0.0000000   0.8242923   4.1276752  )
         5        Li     tau(   5) = (   0.0000000   1.2464047   3.8146454  )
         6        Li     tau(   6) = (   0.0000000   1.6573967   3.5919490  )
         7        Li     tau(   7) = (   0.0000000   0.1273960   3.9643992  )
         8        Li     tau(   8) = (   0.0000000   0.5703469   3.6387473  )
         9        Li     tau(   9) = (   0.0000000   0.9790287   3.3980843  )
        10        Li     tau(  10) = (   0.0000000   1.4171604   3.0971784  )
        11        Li     tau(  11) = (   0.0000000   0.2936256   3.2481915  )
        12        Li     tau(  12) = (   0.0000000   0.5994817   2.9363953  )
        13        Li     tau(  13) = (   0.0000000   0.1753817   4.6790279  )
        14        Li     tau(  14) = (   0.2500000   1.1704332   4.1772763  )
        15        Li     tau(  15) = (   0.2500000   1.5791168   3.9366146  )
        16        Li     tau(  16) = (   0.2500000   0.4920655   3.9834128  )
        17        Li     tau(  17) = (   0.2500000   0.9030598   3.7607165  )
        18        Li     tau(  18) = (   0.2500000   1.3251712   3.4476865  )
        19        Li     tau(  19) = (   0.2500000   1.7460729   3.2633963  )
        20        Li     tau(  20) = (   0.2500000   0.2192919   3.6109622  )
        21        Li     tau(  21) = (   0.2500000   0.6411212   3.2922229  )
        22        Li     tau(  22) = (   0.2500000   1.0086003   3.0463611  )
        23        Li     tau(  23) = (   0.2500000   1.5499835   4.6389663  )
        24        Li     tau(  24) = (   0.2500000   0.1713057   2.8963340  )
        25        Li     tau(  25) = (   0.2500000   0.7323006   4.4781832  )
        26        Li     tau(  26) = (   0.2500000   0.0530606   4.3271700  )
        27        Li     tau(  27) = (   0.5000000   1.1408627   4.5290013  )
        28        Li     tau(  28) = (   0.5000000   1.5083430   4.2831397  )
        29        Li     tau(  29) = (   0.5000000   0.4033905   4.3119647  )
        30        Li     tau(  30) = (   0.5000000   0.8242923   4.1276752  )
        31        Li     tau(  31) = (   0.5000000   1.2464047   3.8146454  )
        32        Li     tau(  32) = (   0.5000000   1.6573967   3.5919490  )
        33        Li     tau(  33) = (   0.5000000   0.1273960   3.9643992  )
        34        Li     tau(  34) = (   0.5000000   0.5703469   3.6387474  )
        35        Li     tau(  35) = (   0.5000000   0.9790288   3.3980843  )
        36        Li     tau(  36) = (   0.5000000   1.4171604   3.0971785  )
        37        Li     tau(  37) = (   0.5000000   0.2936255   3.2481915  )
        38        Li     tau(  38) = (   0.5000000   0.5994817   2.9363952  )
        39        Li     tau(  39) = (   0.5000000   0.1753816   4.6790278  )
        40        Li     tau(  40) = (   0.7500000   1.1704332   4.1772763  )
        41        Li     tau(  41) = (   0.7500000   1.5791168   3.9366146  )
        42        Li     tau(  42) = (   0.7500000   0.4920655   3.9834128  )
        43        Li     tau(  43) = (   0.7500000   0.9030598   3.7607165  )
        44        Li     tau(  44) = (   0.7500000   1.3251712   3.4476865  )
        45        Li     tau(  45) = (   0.7500000   1.7460729   3.2633963  )
        46        Li     tau(  46) = (   0.7500000   0.2192919   3.6109622  )
        47        Li     tau(  47) = (   0.7500000   0.6411212   3.2922229  )
        48        Li     tau(  48) = (   0.7500000   1.0086003   3.0463611  )
        49        Li     tau(  49) = (   0.7500000   1.5499835   4.6389663  )
        50        Li     tau(  50) = (   0.7500000   0.1713057   2.8963340  )
        51        Li     tau(  51) = (   0.7500000   0.7323006   4.4781832  )
        52        Li     tau(  52) = (   0.7500000   0.0530606   4.3271700  )

   Crystallographic axes

     site n.     atom                  positions (cryst. coord.)
         1        Li     tau(   1) = (  0.0000000  0.6328366  0.5978595  )
         2        Li     tau(   2) = (  0.0000000  0.8366779  0.5654041  )
         3        Li     tau(   3) = (  0.0000000  0.2237608  0.5692092  )
         4        Li     tau(   4) = (  0.0000000  0.4572350  0.5448817  )
         5        Li     tau(   5) = (  0.0000000  0.6913808  0.5035596  )
         6        Li     tau(   6) = (  0.0000000  0.9193581  0.4741621  )
         7        Li     tau(   7) = (  0.0000000  0.0706666  0.5233282  )
         8        Li     tau(   8) = (  0.0000000  0.3163715  0.4803398  )
         9        Li     tau(   9) = (  0.0000000  0.5430673  0.4485707  )
        10        Li     tau(  10) = (  0.0000000  0.7860990  0.4088490  )
        11        Li     tau(  11) = (  0.0000000  0.1628741  0.4287838  )
        12        Li     tau(  12) = (  0.0000000  0.3325325  0.3876245  )
        13        Li     tau(  13) = (  0.0000000  0.0972842  0.6176641  )
        14        Li     tau(  14) = (  0.2500000  0.6492394  0.5514294  )
        15        Li     tau(  15) = (  0.2500000  0.8759362  0.5196604  )
        16        Li     tau(  16) = (  0.2500000  0.2729488  0.5258381  )
        17        Li     tau(  17) = (  0.2500000  0.5009273  0.4964406  )
        18        Li     tau(  18) = (  0.2500000  0.7350726  0.4551185  )
        19        Li     tau(  19) = (  0.2500000  0.9685468  0.4307909  )
        20        Li     tau(  20) = (  0.2500000  0.1216412  0.4766720  )
        21        Li     tau(  21) = (  0.2500000  0.3556300  0.4345962  )
        22        Li     tau(  22) = (  0.2500000  0.5594707  0.4021408  )
        23        Li     tau(  23) = (  0.2500000  0.8597760  0.6123757  )
        24        Li     tau(  24) = (  0.2500000  0.0950233  0.3823362  )
        25        Li     tau(  25) = (  0.2500000  0.4062072  0.5911512  )
        26        Li     tau(  26) = (  0.2500000  0.0294327  0.5712164  )
        27        Li     tau(  27) = (  0.5000000  0.6328366  0.5978595  )
        28        Li     tau(  28) = (  0.5000000  0.8366780  0.5654041  )
        29        Li     tau(  29) = (  0.5000000  0.2237607  0.5692092  )
        30        Li     tau(  30) = (  0.5000000  0.4572350  0.5448817  )
        31        Li     tau(  31) = (  0.5000000  0.6913808  0.5035596  )
        32        Li     tau(  32) = (  0.5000000  0.9193581  0.4741621  )
        33        Li     tau(  33) = (  0.5000000  0.0706666  0.5233282  )
        34        Li     tau(  34) = (  0.5000000  0.3163715  0.4803399  )
        35        Li     tau(  35) = (  0.5000000  0.5430674  0.4485707  )
        36        Li     tau(  36) = (  0.5000000  0.7860990  0.4088490  )
        37        Li     tau(  37) = (  0.5000000  0.1628741  0.4287838  )
        38        Li     tau(  38) = (  0.5000000  0.3325325  0.3876245  )
        39        Li     tau(  39) = (  0.5000000  0.0972842  0.6176641  )
        40        Li     tau(  40) = (  0.7500000  0.6492394  0.5514294  )
        41        Li     tau(  41) = (  0.7500000  0.8759362  0.5196604  )
        42        Li     tau(  42) = (  0.7500000  0.2729488  0.5258381  )
        43        Li     tau(  43) = (  0.7500000  0.5009273  0.4964406  )
        44        Li     tau(  44) = (  0.7500000  0.7350726  0.4551185  )
        45        Li     tau(  45) = (  0.7500000  0.9685468  0.4307909  )
        46        Li     tau(  46) = (  0.7500000  0.1216412  0.4766720  )
        47        Li     tau(  47) = (  0.7500000  0.3556300  0.4345962  )
        48        Li     tau(  48) = (  0.7500000  0.5594707  0.4021408  )
        49        Li     tau(  49) = (  0.7500000  0.8597760  0.6123757  )
        50        Li     tau(  50) = (  0.7500000  0.0950233  0.3823362  )
        51        Li     tau(  51) = (  0.7500000  0.4062072  0.5911512  )
        52        Li     tau(  52) = (  0.7500000  0.0294327  0.5712164  )

     number of k points=    24  Marzari-Vanderbilt smearing, width (Ry)=  0.0100
                       cart. coord. in units 2pi/alat
        k(    1) = (   0.0000000   0.0000000   0.0000000), wk =   0.0333333
        k(    2) = (   0.0000000   0.0924500   0.0000000), wk =   0.0666667
        k(    3) = (   0.0000000   0.1849000   0.0000000), wk =   0.0666667
        k(    4) = (   0.0000000  -0.2773500   0.0000000), wk =   0.0333333
        k(    5) = (   0.1000000   0.0000000   0.0000000), wk =   0.0666667
        k(    6) = (   0.1000000   0.0924500   0.0000000), wk =   0.1333333
        k(    7) = (   0.1000000   0.1849000   0.0000000), wk =   0.1333333
        k(    8) = (   0.1000000  -0.2773500   0.0000000), wk =   0.0666667
        k(    9) = (   0.2000000   0.0000000   0.0000000), wk =   0.0666667
        k(   10) = (   0.2000000   0.0924500   0.0000000), wk =   0.1333333
        k(   11) = (   0.2000000   0.1849000   0.0000000), wk =   0.1333333
        k(   12) = (   0.2000000  -0.2773500   0.0000000), wk =   0.0666667
        k(   13) = (   0.3000000   0.0000000   0.0000000), wk =   0.0666667
        k(   14) = (   0.3000000   0.0924500   0.0000000), wk =   0.1333333
        k(   15) = (   0.3000000   0.1849000   0.0000000), wk =   0.1333333
        k(   16) = (   0.3000000  -0.2773500   0.0000000), wk =   0.0666667
        k(   17) = (   0.4000000   0.0000000   0.0000000), wk =   0.0666667
        k(   18) = (   0.4000000   0.0924500   0.0000000), wk =   0.1333333
        k(   19) = (   0.4000000   0.1849000   0.0000000), wk =   0.1333333
        k(   20) = (   0.4000000  -0.2773500   0.0000000), wk =   0.0666667
        k(   21) = (  -0.5000000   0.0000000   0.0000000), wk =   0.0333333
        k(   22) = (  -0.5000000   0.0924500   0.0000000), wk =   0.0666667
        k(   23) = (  -0.5000000   0.1849000   0.0000000), wk =   0.0666667
        k(   24) = (  -0.5000000  -0.2773500   0.0000000), wk =   0.0333333

                       cryst. coord.
        k(    1) = (   0.0000000   0.0000000   0.0000000), wk =   0.0333333
        k(    2) = (   0.0000000   0.1666667   0.0000000), wk =   0.0666667
        k(    3) = (   0.0000000   0.3333333   0.0000000), wk =   0.0666667
        k(    4) = (   0.0000000  -0.5000000   0.0000000), wk =   0.0333333
        k(    5) = (   0.1000000   0.0000000   0.0000000), wk =   0.0666667
        k(    6) = (   0.1000000   0.1666667   0.0000000), wk =   0.1333333
        k(    7) = (   0.1000000   0.3333333   0.0000000), wk =   0.1333333
        k(    8) = (   0.1000000  -0.5000000   0.0000000), wk =   0.0666667
        k(    9) = (   0.2000000   0.0000000   0.0000000), wk =   0.0666667
        k(   10) = (   0.2000000   0.1666667   0.0000000), wk =   0.1333333
        k(   11) = (   0.2000000   0.3333333   0.0000000), wk =   0.1333333
        k(   12) = (   0.2000000  -0.5000000   0.0000000), wk =   0.0666667
        k(   13) = (   0.3000000   0.0000000   0.0000000), wk =   0.0666667
        k(   14) = (   0.3000000   0.1666667   0.0000000), wk =   0.1333333
        k(   15) = (   0.3000000   0.3333333   0.0000000), wk =   0.1333333
        k(   16) = (   0.3000000  -0.5000000   0.0000000), wk =   0.0666667
        k(   17) = (   0.4000000   0.0000000   0.0000000), wk =   0.0666667
        k(   18) = (   0.4000000   0.1666667   0.0000000), wk =   0.1333333
        k(   19) = (   0.4000000   0.3333333   0.0000000), wk =   0.1333333
        k(   20) = (   0.4000000  -0.5000000   0.0000000), wk =   0.0666667
        k(   21) = (  -0.5000000   0.0000000   0.0000000), wk =   0.0333333
        k(   22) = (  -0.5000000   0.1666667   0.0000000), wk =   0.0666667
        k(   23) = (  -0.5000000   0.3333333   0.0000000), wk =   0.0666667
        k(   24) = (  -0.5000000  -0.5000000   0.0000000), wk =   0.0333333

     Dense  grid: 11420683 G-vectors     FFT dimensions: ( 120, 216, 900)

     Smooth grid:  2888861 G-vectors     FFT dimensions: (  75, 135, 576)

     Dynamical RAM for                 wfc:       2.93 MB

     Dynamical RAM for     wfc (w. buffer):      38.09 MB

     Dynamical RAM for           str. fact:       0.79 MB

     Dynamical RAM for           local pot:       0.00 MB

     Dynamical RAM for          nlocal pot:      10.42 MB

     Dynamical RAM for                qrad:       0.65 MB

     Dynamical RAM for          rho,v,vnew:       5.34 MB

     Dynamical RAM for               rhoin:       1.78 MB

     Dynamical RAM for            rho*nmix:      12.68 MB

     Dynamical RAM for           G-vectors:       3.07 MB

     Dynamical RAM for          h,s,v(r/c):      10.03 MB

     Dynamical RAM for          <psi|beta>:       0.74 MB

     Dynamical RAM for                 psi:      11.72 MB

     Dynamical RAM for                hpsi:      11.72 MB

     Dynamical RAM for                spsi:      11.72 MB

     Dynamical RAM for      wfcinit/wfcrot:       6.17 MB

     Dynamical RAM for           addusdens:      38.03 MB

     Dynamical RAM for          addusforce:      78.48 MB

     Estimated static dynamical RAM per process >      66.67 MB

     Estimated max dynamical RAM per process >     174.27 MB

     Estimated total dynamical RAM >      65.09 GB

     Initial potential from superposition of free atoms

     starting charge     155.7603, renormalised to     156.0000

     negative rho (up, down):  5.052E-03 0.000E+00
     Starting wfcs are random
     Checking if some PAW data can be deallocated... 

     total cpu time spent up to now is       20.1 secs

     per-process dynamical memory:   191.4 Mb

     Self-consistent Calculation

     iteration #  1     ecut=    80.00 Ry     beta= 0.20
     Davidson diagonalization with overlap

---- Real-time Memory Report at c_bands before calling an iterative solver
           978 MiB given to the printing process from OS
           186 MiB allocation reported by mallinfo(arena+hblkhd)
        170072 MiB available memory on the node where the printing process lives
------------------
     c_bands:  1 eigenvalues not converged
     c_bands:  1 eigenvalues not converged
     c_bands:  1 eigenvalues not converged
     c_bands:  1 eigenvalues not converged
     c_bands:  1 eigenvalues not converged
     ethr =  1.00E-12,  avg # of iterations =145.8

     negative rho (up, down):  3.705E-03 0.000E+00

     total cpu time spent up to now is      302.7 secs

     total energy              =    -781.76474267 Ry
     estimated scf accuracy    <       0.16789820 Ry

     total charge of GC-SCF    =       0.09605938 e
     the Fermi energy          =      -4.42332703 eV
                        (error :       0.51932703 eV)
     electrostatic embedding   =       0.00000000 Ry
     cavitation energy         =       0.03502796 Ry
     electrolyte free energy   =       0.01286340 Ry
     correction to one-el term =       0.00000000 Ry

     iteration #  2     ecut=    80.00 Ry     beta= 0.20
     Davidson diagonalization with overlap

---- Real-time Memory Report at c_bands before calling an iterative solver
           978 MiB given to the printing process from OS
           253 MiB allocation reported by mallinfo(arena+hblkhd)
        167362 MiB available memory on the node where the printing process lives
------------------
     ethr =  1.00E-05,  avg # of iterations = 12.1

     negative rho (up, down):  2.806E-03 0.000E+00

     add environment contribution to local potential

     total cpu time spent up to now is      341.6 secs

     total energy              =    -781.94987214 Ry
     estimated scf accuracy    <       0.05866865 Ry

     total charge of GC-SCF    =       0.18425623 e
     the Fermi energy          =      -3.66313975 eV
                        (error :       0.24086025 eV)
     electrostatic embedding   =       0.00078761 Ry
     cavitation energy         =       0.03502796 Ry
     electrolyte free energy   =       0.01286340 Ry
     correction to one-el term =       0.00000000 Ry

     iteration #  3     ecut=    80.00 Ry     beta= 0.20
     Davidson diagonalization with overlap

---- Real-time Memory Report at c_bands before calling an iterative solver
           978 MiB given to the printing process from OS
           253 MiB allocation reported by mallinfo(arena+hblkhd)
        167327 MiB available memory on the node where the printing process lives
------------------
     ethr =  1.00E-05,  avg # of iterations = 26.4

     negative rho (up, down):  2.256E-03 0.000E+00

     add environment contribution to local potential

     total cpu time spent up to now is      401.2 secs

     total energy              =    -781.90994600 Ry
     estimated scf accuracy    <       0.03303737 Ry

     total charge of GC-SCF    =       0.28525610 e
     the Fermi energy          =      -3.08373305 eV
                        (error :       0.82026695 eV)
     electrostatic embedding   =      -0.03683145 Ry
     cavitation energy         =       0.03502796 Ry
     electrolyte free energy   =      -0.00630730 Ry
     correction to one-el term =      -6.31778259 Ry

     iteration #  4     ecut=    80.00 Ry     beta= 0.20
     Davidson diagonalization with overlap

---- Real-time Memory Report at c_bands before calling an iterative solver
           978 MiB given to the printing process from OS
           253 MiB allocation reported by mallinfo(arena+hblkhd)
        167324 MiB available memory on the node where the printing process lives
------------------
     ethr =  1.00E-05,  avg # of iterations = 12.9

     negative rho (up, down):  1.807E-03 0.000E+00

     add environment contribution to local potential

     total cpu time spent up to now is      444.1 secs

     total energy              =    -781.92134073 Ry
     estimated scf accuracy    <       0.02451642 Ry

     total charge of GC-SCF    =       0.44950463 e
     the Fermi energy          =      -3.46970493 eV
                        (error :       0.43429507 eV)
     electrostatic embedding   =      -0.03464546 Ry
     cavitation energy         =       0.03502796 Ry
     electrolyte free energy   =      -0.00846219 Ry
     correction to one-el term =      -8.15753237 Ry

     iteration #  5     ecut=    80.00 Ry     beta= 0.20
     Davidson diagonalization with overlap

---- Real-time Memory Report at c_bands before calling an iterative solver
           978 MiB given to the printing process from OS
           253 MiB allocation reported by mallinfo(arena+hblkhd)
        167324 MiB available memory on the node where the printing process lives
------------------
     ethr =  1.00E-05,  avg # of iterations = 18.3

     negative rho (up, down):  1.483E-03 0.000E+00

     add environment contribution to local potential

     total cpu time spent up to now is      489.6 secs

     total energy              =    -781.88134962 Ry
     estimated scf accuracy    <       0.01067471 Ry

     total charge of GC-SCF    =       0.95067855 e
     the Fermi energy          =      -3.19244841 eV
                        (error :       0.71155159 eV)
     electrostatic embedding   =      -0.03946364 Ry
     cavitation energy         =       0.03502796 Ry
     electrolyte free energy   =      -0.00645879 Ry
     correction to one-el term =     -13.03073958 Ry

     iteration #  6     ecut=    80.00 Ry     beta= 0.20
     Davidson diagonalization with overlap

---- Real-time Memory Report at c_bands before calling an iterative solver
           978 MiB given to the printing process from OS
           253 MiB allocation reported by mallinfo(arena+hblkhd)
        167278 MiB available memory on the node where the printing process lives
------------------
     ethr =  6.88E-06,  avg # of iterations = 22.6

     negative rho (up, down):  1.278E-03 0.000E+00

     add environment contribution to local potential

     total cpu time spent up to now is      546.6 secs

     total energy              =    -781.98418387 Ry
     estimated scf accuracy    <       0.00317230 Ry

     total charge of GC-SCF    =       1.42949907 e
     the Fermi energy          =      -2.88312014 eV
                        (error :       1.02087986 eV)
     electrostatic embedding   =      -0.10114264 Ry
     cavitation energy         =       0.03502796 Ry
     electrolyte free energy   =      -0.00491431 Ry
     correction to one-el term =     -27.14151887 Ry

     iteration #  7     ecut=    80.00 Ry     beta= 0.20
     Davidson diagonalization with overlap

---- Real-time Memory Report at c_bands before calling an iterative solver
           978 MiB given to the printing process from OS
           253 MiB allocation reported by mallinfo(arena+hblkhd)
        167271 MiB available memory on the node where the printing process lives
------------------
     ethr =  2.05E-06,  avg # of iterations = 14.7

     negative rho (up, down):  1.140E-03 0.000E+00

     add environment contribution to local potential

     total cpu time spent up to now is      592.1 secs

     total energy              =    -782.02291205 Ry
     estimated scf accuracy    <       0.00229323 Ry

     total charge of GC-SCF    =       1.73396704 e
     the Fermi energy          =      -2.90537211 eV
                        (error :       0.99862789 eV)
     electrostatic embedding   =      -0.21236970 Ry
     cavitation energy         =       0.03502796 Ry
     electrolyte free energy   =      -0.00622669 Ry
     correction to one-el term =     -40.91000026 Ry

     iteration #  8     ecut=    80.00 Ry     beta= 0.20
     Davidson diagonalization with overlap

---- Real-time Memory Report at c_bands before calling an iterative solver
           978 MiB given to the printing process from OS
           253 MiB allocation reported by mallinfo(arena+hblkhd)
        167268 MiB available memory on the node where the printing process lives
------------------
     ethr =  1.49E-06,  avg # of iterations = 15.2

     negative rho (up, down):  1.495E-03 0.000E+00

     add environment contribution to local potential

     total cpu time spent up to now is      636.2 secs

     total energy              =    -782.00617192 Ry
     estimated scf accuracy    <       0.00164785 Ry

     total charge of GC-SCF    =       2.17978699 e
     the Fermi energy          =      -3.04440631 eV
                        (error :       0.85959369 eV)
     electrostatic embedding   =      -0.30530177 Ry
     cavitation energy         =       0.03502796 Ry
     electrolyte free energy   =      -0.00795956 Ry
     correction to one-el term =     -50.75423587 Ry

     iteration #  9     ecut=    80.00 Ry     beta= 0.20
     Davidson diagonalization with overlap

---- Real-time Memory Report at c_bands before calling an iterative solver
           978 MiB given to the printing process from OS
           254 MiB allocation reported by mallinfo(arena+hblkhd)
        167256 MiB available memory on the node where the printing process lives
------------------
     ethr =  1.07E-06,  avg # of iterations = 23.8

     negative rho (up, down):  9.860E-04 0.000E+00

     add environment contribution to local potential

     total cpu time spent up to now is      689.3 secs

     total energy              =    -782.07592278 Ry
     estimated scf accuracy    <       0.00332406 Ry

     total charge of GC-SCF    =       2.27515314 e
     the Fermi energy          =      -3.28928087 eV
                        (error :       0.61471913 eV)
     electrostatic embedding   =      -0.47905141 Ry
     cavitation energy         =       0.03502796 Ry
     electrolyte free energy   =      -0.01153450 Ry
     correction to one-el term =     -64.78002748 Ry

     iteration # 10     ecut=    80.00 Ry     beta= 0.20
     Davidson diagonalization with overlap

---- Real-time Memory Report at c_bands before calling an iterative solver
           978 MiB given to the printing process from OS
           257 MiB allocation reported by mallinfo(arena+hblkhd)
        167242 MiB available memory on the node where the printing process lives
------------------
     ethr =  1.07E-06,  avg # of iterations = 22.8

     negative rho (up, down):  1.520E-03 0.000E+00

     add environment contribution to local potential

     total cpu time spent up to now is      749.9 secs

     total energy              =    -782.03263365 Ry
     estimated scf accuracy    <       0.00122615 Ry

     total charge of GC-SCF    =       2.79800030 e
     the Fermi energy          =      -3.14300374 eV
                        (error :       0.76099626 eV)
     electrostatic embedding   =      -0.53584263 Ry
     cavitation energy         =       0.03502796 Ry
     electrolyte free energy   =      -0.01124481 Ry
     correction to one-el term =     -68.62235402 Ry

     iteration # 11     ecut=    80.00 Ry     beta= 0.20
     Davidson diagonalization with overlap

---- Real-time Memory Report at c_bands before calling an iterative solver
           978 MiB given to the printing process from OS
           257 MiB allocation reported by mallinfo(arena+hblkhd)
        167229 MiB available memory on the node where the printing process lives
------------------
     ethr =  8.00E-07,  avg # of iterations = 30.1

     negative rho (up, down):  1.760E-03 0.000E+00

     add environment contribution to local potential

     total cpu time spent up to now is      817.5 secs

     total energy              =    -782.06832293 Ry
     estimated scf accuracy    <       0.00090841 Ry

     total charge of GC-SCF    =       3.07500145 e
     the Fermi energy          =      -3.33658767 eV
                        (error :       0.56741233 eV)
     electrostatic embedding   =      -0.82552709 Ry
     cavitation energy         =       0.03502796 Ry
     electrolyte free energy   =      -0.01602089 Ry
     correction to one-el term =     -85.92580726 Ry

     iteration # 12     ecut=    80.00 Ry     beta= 0.20
     Davidson diagonalization with overlap

---- Real-time Memory Report at c_bands before calling an iterative solver
           978 MiB given to the printing process from OS
           257 MiB allocation reported by mallinfo(arena+hblkhd)
        167217 MiB available memory on the node where the printing process lives
------------------
     ethr =  5.94E-07,  avg # of iterations = 25.8

     negative rho (up, down):  1.096E-03 0.000E+00

     add environment contribution to local potential

     total cpu time spent up to now is      877.3 secs

     total energy              =    -782.09613564 Ry
     estimated scf accuracy    <       0.00056652 Ry

     total charge of GC-SCF    =       3.16880108 e
     the Fermi energy          =      -3.59686353 eV
                        (error :       0.30713647 eV)
     electrostatic embedding   =      -1.00458735 Ry
     cavitation energy         =       0.03502796 Ry
     electrolyte free energy   =      -0.02006363 Ry
     correction to one-el term =     -95.44826301 Ry

     iteration # 13     ecut=    80.00 Ry     beta= 0.20
     Davidson diagonalization with overlap

---- Real-time Memory Report at c_bands before calling an iterative solver
           978 MiB given to the printing process from OS
           257 MiB allocation reported by mallinfo(arena+hblkhd)
        167217 MiB available memory on the node where the printing process lives
------------------
     ethr =  3.71E-07,  avg # of iterations = 12.3

     negative rho (up, down):  8.909E-04 0.000E+00

     add environment contribution to local potential

     total cpu time spent up to now is      917.3 secs

     total energy              =    -782.09213329 Ry
     estimated scf accuracy    <       0.00016169 Ry

     total charge of GC-SCF    =       3.37836154 e
     the Fermi energy          =      -3.61545379 eV
                        (error :       0.28854621 eV)
     electrostatic embedding   =      -1.07598081 Ry
     cavitation energy         =       0.03502796 Ry
     electrolyte free energy   =      -0.02123308 Ry
     correction to one-el term =     -98.93948470 Ry

     iteration # 14     ecut=    80.00 Ry     beta= 0.20
     Davidson diagonalization with overlap

---- Real-time Memory Report at c_bands before calling an iterative solver
           978 MiB given to the printing process from OS
           257 MiB allocation reported by mallinfo(arena+hblkhd)
        167108 MiB available memory on the node where the printing process lives
------------------
     ethr =  1.06E-07,  avg # of iterations = 35.8

     negative rho (up, down):  7.771E-04 0.000E+00

     add environment contribution to local potential

     total cpu time spent up to now is      992.5 secs

     total energy              =    -782.09987853 Ry
     estimated scf accuracy    <       0.00006927 Ry

     total charge of GC-SCF    =       3.55568047 e
     the Fermi energy          =      -3.75461062 eV
                        (error :       0.14938938 eV)
     electrostatic embedding   =      -1.23413195 Ry
     cavitation energy         =       0.03502796 Ry
     electrolyte free energy   =      -0.02416633 Ry
     correction to one-el term =    -106.04534594 Ry

     iteration # 15     ecut=    80.00 Ry     beta= 0.20
     Davidson diagonalization with overlap

---- Real-time Memory Report at c_bands before calling an iterative solver
           978 MiB given to the printing process from OS
           257 MiB allocation reported by mallinfo(arena+hblkhd)
        167104 MiB available memory on the node where the printing process lives
------------------
     ethr =  4.54E-08,  avg # of iterations = 32.6

     negative rho (up, down):  6.861E-04 0.000E+00

     add environment contribution to local potential

     total cpu time spent up to now is     1060.4 secs

     total energy              =    -782.10256879 Ry
     estimated scf accuracy    <       0.00006017 Ry

     total charge of GC-SCF    =       3.61906457 e
     the Fermi energy          =      -3.84355876 eV
                        (error :       0.06044124 eV)
     electrostatic embedding   =      -1.37455368 Ry
     cavitation energy         =       0.03502796 Ry
     electrolyte free energy   =      -0.02645621 Ry
     correction to one-el term =    -111.81116280 Ry

     iteration # 16     ecut=    80.00 Ry     beta= 0.20
     Davidson diagonalization with overlap

---- Real-time Memory Report at c_bands before calling an iterative solver
           978 MiB given to the printing process from OS
           257 MiB allocation reported by mallinfo(arena+hblkhd)
        167092 MiB available memory on the node where the printing process lives
------------------
     ethr =  3.95E-08,  avg # of iterations = 16.9

     negative rho (up, down):  6.502E-04 0.000E+00

     add environment contribution to local potential

     total cpu time spent up to now is     1111.6 secs

     total energy              =    -782.10287173 Ry
     estimated scf accuracy    <       0.00007164 Ry

     total charge of GC-SCF    =       3.60926480 e
     the Fermi energy          =      -3.88893662 eV
                        (error :       0.01506338 eV)
     electrostatic embedding   =      -1.42152496 Ry
     cavitation energy         =       0.03502796 Ry
     electrolyte free energy   =      -0.02726646 Ry
     correction to one-el term =    -113.58887576 Ry

     iteration # 17     ecut=    80.00 Ry     beta= 0.20
     Davidson diagonalization with overlap

---- Real-time Memory Report at c_bands before calling an iterative solver
           978 MiB given to the printing process from OS
           257 MiB allocation reported by mallinfo(arena+hblkhd)
        167094 MiB available memory on the node where the printing process lives
------------------
     ethr =  3.95E-08,  avg # of iterations = 10.7

     negative rho (up, down):  6.323E-04 0.000E+00

     add environment contribution to local potential

     total cpu time spent up to now is     1150.0 secs

     total energy              =    -782.10283160 Ry
     estimated scf accuracy    <       0.00001647 Ry

     total charge of GC-SCF    =       3.61054419 e
     the Fermi energy          =      -3.88273386 eV
                        (error :       0.02126614 eV)
     electrostatic embedding   =      -1.41401523 Ry
     cavitation energy         =       0.03502796 Ry
     electrolyte free energy   =      -0.02716881 Ry
     correction to one-el term =    -113.31685360 Ry

     iteration # 18     ecut=    80.00 Ry     beta= 0.20
     Davidson diagonalization with overlap

---- Real-time Memory Report at c_bands before calling an iterative solver
           978 MiB given to the printing process from OS
           257 MiB allocation reported by mallinfo(arena+hblkhd)
        167094 MiB available memory on the node where the printing process lives
------------------
     ethr =  1.08E-08,  avg # of iterations = 11.5

     negative rho (up, down):  6.758E-04 0.000E+00

     add environment contribution to local potential

     total cpu time spent up to now is     1191.5 secs

     total energy              =    -782.10281736 Ry
     estimated scf accuracy    <       0.00000821 Ry

     total charge of GC-SCF    =       3.66299064 e
     the Fermi energy          =      -3.88001556 eV
                        (error :       0.02398444 eV)
     electrostatic embedding   =      -1.41514523 Ry
     cavitation energy         =       0.03502796 Ry
     electrolyte free energy   =      -0.02717883 Ry
     correction to one-el term =    -113.35757183 Ry

     iteration # 19     ecut=    80.00 Ry     beta= 0.20
     Davidson diagonalization with overlap

---- Real-time Memory Report at c_bands before calling an iterative solver
           978 MiB given to the printing process from OS
           257 MiB allocation reported by mallinfo(arena+hblkhd)
        167095 MiB available memory on the node where the printing process lives
------------------
     ethr =  5.39E-09,  avg # of iterations = 26.1

     negative rho (up, down):  6.911E-04 0.000E+00

     add environment contribution to local potential

     total cpu time spent up to now is     1251.4 secs

     total energy              =    -782.10265562 Ry
     estimated scf accuracy    <       0.00000322 Ry

     total charge of GC-SCF    =       3.66722497 e
     the Fermi energy          =      -3.90331679 eV
                        (error :       0.00068321 eV)
     electrostatic embedding   =      -1.45777775 Ry
     cavitation energy         =       0.03502796 Ry
     electrolyte free energy   =      -0.02783437 Ry
     correction to one-el term =    -114.96665871 Ry

     iteration # 20     ecut=    80.00 Ry     beta= 0.20
     Davidson diagonalization with overlap

---- Real-time Memory Report at c_bands before calling an iterative solver
           978 MiB given to the printing process from OS
           257 MiB allocation reported by mallinfo(arena+hblkhd)
        167078 MiB available memory on the node where the printing process lives
------------------
     ethr =  2.11E-09,  avg # of iterations = 11.0

     negative rho (up, down):  7.322E-04 0.000E+00

     add environment contribution to local potential

     total cpu time spent up to now is     1289.1 secs

     total energy              =    -782.10264352 Ry
     estimated scf accuracy    <       0.00000148 Ry

     total charge of GC-SCF    =       3.67653918 e
     the Fermi energy          =      -3.90498189 eV
                        (error :       0.00098189 eV)
     electrostatic embedding   =      -1.46163040 Ry
     cavitation energy         =       0.03502796 Ry
     electrolyte free energy   =      -0.02788958 Ry
     correction to one-el term =    -115.11288965 Ry

     iteration # 21     ecut=    80.00 Ry     beta= 0.20
     Davidson diagonalization with overlap

---- Real-time Memory Report at c_bands before calling an iterative solver
           978 MiB given to the printing process from OS
           257 MiB allocation reported by mallinfo(arena+hblkhd)
        167061 MiB available memory on the node where the printing process lives
------------------
     ethr =  9.72E-10,  avg # of iterations = 12.0

     negative rho (up, down):  7.426E-04 0.000E+00

     add environment contribution to local potential

     total cpu time spent up to now is     1333.4 secs

     total energy              =    -782.10259171 Ry
     estimated scf accuracy    <       0.00000056 Ry

     total charge of GC-SCF    =       3.67692925 e
     the Fermi energy          =      -3.90764600 eV
                        (error :       0.00364600 eV)
     electrostatic embedding   =      -1.46972423 Ry
     cavitation energy         =       0.03502796 Ry
     electrolyte free energy   =      -0.02800749 Ry
     correction to one-el term =    -115.41945511 Ry

     iteration # 22     ecut=    80.00 Ry     beta= 0.20
     Davidson diagonalization with overlap

---- Real-time Memory Report at c_bands before calling an iterative solver
           978 MiB given to the printing process from OS
           257 MiB allocation reported by mallinfo(arena+hblkhd)
        167046 MiB available memory on the node where the printing process lives
------------------
     ethr =  3.66E-10,  avg # of iterations = 10.8

     negative rho (up, down):  7.279E-04 0.000E+00

     add environment contribution to local potential

     total cpu time spent up to now is     1372.5 secs

     total energy              =    -782.10258661 Ry
     estimated scf accuracy    <       0.00000032 Ry

     total charge of GC-SCF    =       3.67666402 e
     the Fermi energy          =      -3.90794652 eV
                        (error :       0.00394652 eV)
     electrostatic embedding   =      -1.46993360 Ry
     cavitation energy         =       0.03502796 Ry
     electrolyte free energy   =      -0.02801095 Ry
     correction to one-el term =    -115.42345294 Ry

     iteration # 23     ecut=    80.00 Ry     beta= 0.20
     Davidson diagonalization with overlap

---- Real-time Memory Report at c_bands before calling an iterative solver
           978 MiB given to the printing process from OS
           257 MiB allocation reported by mallinfo(arena+hblkhd)
        167042 MiB available memory on the node where the printing process lives
------------------
     ethr =  2.10E-10,  avg # of iterations = 10.6

     negative rho (up, down):  7.011E-04 0.000E+00

     add environment contribution to local potential

     total cpu time spent up to now is     1411.0 secs

     total energy              =    -782.10258866 Ry
     estimated scf accuracy    <       0.00000017 Ry

     total charge of GC-SCF    =       3.67508025 e
     the Fermi energy          =      -3.90756361 eV
                        (error :       0.00356361 eV)
     electrostatic embedding   =      -1.46956445 Ry
     cavitation energy         =       0.03502796 Ry
     electrolyte free energy   =      -0.02800499 Ry
     correction to one-el term =    -115.40615908 Ry

     iteration # 24     ecut=    80.00 Ry     beta= 0.20
     Davidson diagonalization with overlap

---- Real-time Memory Report at c_bands before calling an iterative solver
           978 MiB given to the printing process from OS
           257 MiB allocation reported by mallinfo(arena+hblkhd)
        167043 MiB available memory on the node where the printing process lives
------------------
     ethr =  1.14E-10,  avg # of iterations = 10.7

     negative rho (up, down):  6.711E-04 0.000E+00

     add environment contribution to local potential

     total cpu time spent up to now is     1452.6 secs

     total energy              =    -782.10259830 Ry
     estimated scf accuracy    <       0.00000010 Ry

     total charge of GC-SCF    =       3.67258311 e
     the Fermi energy          =      -3.90669770 eV
                        (error :       0.00269770 eV)
     electrostatic embedding   =      -1.46822418 Ry
     cavitation energy         =       0.03502796 Ry
     electrolyte free energy   =      -0.02798390 Ry
     correction to one-el term =    -115.35516473 Ry

     iteration # 25     ecut=    80.00 Ry     beta= 0.20
     Davidson diagonalization with overlap

---- Real-time Memory Report at c_bands before calling an iterative solver
           978 MiB given to the printing process from OS
           257 MiB allocation reported by mallinfo(arena+hblkhd)
        167042 MiB available memory on the node where the printing process lives
------------------
     ethr =  6.59E-11,  avg # of iterations = 12.9

     negative rho (up, down):  6.585E-04 0.000E+00

     add environment contribution to local potential

     total cpu time spent up to now is     1500.2 secs

     total energy              =    -782.10261157 Ry
     estimated scf accuracy    <       0.00000004 Ry

     total charge of GC-SCF    =       3.66965444 e
     the Fermi energy          =      -3.90567501 eV
                        (error :       0.00167501 eV)
     electrostatic embedding   =      -1.46617922 Ry
     cavitation energy         =       0.03502796 Ry
     electrolyte free energy   =      -0.02795216 Ry
     correction to one-el term =    -115.27904848 Ry

     iteration # 26     ecut=    80.00 Ry     beta= 0.20
     Davidson diagonalization with overlap

---- Real-time Memory Report at c_bands before calling an iterative solver
           978 MiB given to the printing process from OS
           257 MiB allocation reported by mallinfo(arena+hblkhd)
        167033 MiB available memory on the node where the printing process lives
------------------
     ethr =  2.85E-11,  avg # of iterations = 26.9

     negative rho (up, down):  6.439E-04 0.000E+00

     total cpu time spent up to now is     1548.1 secs

     End of self-consistent calculation

          k = 0.0000 0.0000 0.0000 (361215 PWs)   bands (ev):

   -51.7010 -51.7010 -51.6997 -51.6997 -51.3945 -51.3945 -51.3931 -51.3931
   -51.3146 -51.3145 -51.3131 -51.3131 -51.2635 -51.2635 -51.2621 -51.2621
   -50.6184 -50.6184 -50.6167 -50.6167 -50.4778 -50.4715 -50.4692 -50.4692
   -50.4689 -50.4677 -50.4676 -50.4666 -50.4545 -50.4543 -50.4543 -50.4540
   -50.4486 -50.4430 -50.4411 -50.4411 -50.4390 -50.4384 -50.4384 -50.4384
   -50.4281 -50.4281 -50.4280 -50.4266 -50.3954 -50.3954 -50.3939 -50.3939
   -50.3702 -50.3702 -50.3696 -50.3696  -7.3045  -6.8753  -6.5718  -6.5612
    -6.2482  -6.1335  -6.0276  -5.4923  -5.4156  -5.0738  -4.8847  -4.8847
    -4.5199  -4.4943  -4.4855  -4.4855  -4.4041  -4.3873  -4.2471  -4.2471
    -4.2099  -4.2099  -4.0236  -4.0236  -4.0091  -3.9774  -3.8713  -3.8467
    -3.8467  -3.7150  -3.7150  -3.4719  -3.4719  -3.3421  -3.1495  -3.1495
    -3.0690  -3.0188  -2.9413  -2.8246  -2.8245  -2.5814  -2.4995  -2.4995
    -2.4913  -2.1396  -2.1396  -2.0964  -1.9867  -1.9867  -1.9139  -1.5895
    -1.3178  -1.0025  -1.0025  -0.9392  -0.6627  -0.6627  -0.5739  -0.5739
    -0.4853  -0.4797  -0.3237  -0.3237  -0.2454

     occupation numbers 
     1.0000   1.0000   1.0000   1.0000   1.0000   1.0000   1.0000   1.0000
     1.0000   1.0000   1.0000   1.0000   1.0000   1.0000   1.0000   1.0000
     1.0000   1.0000   1.0000   1.0000   1.0000   1.0000   1.0000   1.0000
     1.0000   1.0000   1.0000   1.0000   1.0000   1.0000   1.0000   1.0000
     1.0000   1.0000   1.0000   1.0000   1.0000   1.0000   1.0000   1.0000
     1.0000   1.0000   1.0000   1.0000   1.0000   1.0000   1.0000   1.0000
     1.0000   1.0000   1.0000   1.0000   1.0000   1.0000   1.0000   1.0000
     1.0000   1.0000   1.0000   1.0000   1.0000   1.0000   1.0000   1.0000
     1.0000   1.0000   1.0000   1.0000   1.0000   1.0001   1.0097   1.0097
     1.0226   1.0226   0.9826   0.9825   0.9330   0.7928   0.2515   0.1661
     0.1661   0.0064   0.0064   0.0000   0.0000   0.0000   0.0000   0.0000
     0.0000   0.0000   0.0000   0.0000   0.0000   0.0000   0.0000   0.0000
     0.0000   0.0000   0.0000   0.0000   0.0000   0.0000   0.0000   0.0000
     0.0000   0.0000   0.0000   0.0000   0.0000   0.0000   0.0000   0.0000
     0.0000   0.0000   0.0000   0.0000   0.0000

          k = 0.0000 0.0925 0.0000 (361251 PWs)   bands (ev):

   -51.7010 -51.7010 -51.6997 -51.6997 -51.3945 -51.3945 -51.3931 -51.3931
   -51.3146 -51.3145 -51.3131 -51.3131 -51.2635 -51.2635 -51.2621 -51.2621
   -50.6184 -50.6184 -50.6167 -50.6167 -50.4778 -50.4715 -50.4692 -50.4692
   -50.4689 -50.4677 -50.4676 -50.4666 -50.4545 -50.4543 -50.4543 -50.4540
   -50.4486 -50.4430 -50.4411 -50.4411 -50.4390 -50.4384 -50.4384 -50.4384
   -50.4281 -50.4281 -50.4279 -50.4266 -50.3954 -50.3954 -50.3939 -50.3939
   -50.3702 -50.3702 -50.3696 -50.3696  -7.2841  -6.8594  -6.7864  -6.3771
    -6.3013  -6.1339  -5.8413  -5.6479  -5.2869  -4.9976  -4.8664  -4.8664
    -4.8491  -4.6722  -4.4795  -4.4795  -4.4130  -4.4130  -4.4020  -4.2891
    -4.1004  -4.1004  -4.0143  -4.0143  -4.0036  -3.8805  -3.8077  -3.8077
    -3.6645  -3.6645  -3.6104  -3.5202  -3.4729  -3.4729  -3.2424  -3.1514
    -3.1514  -2.8693  -2.8535  -2.8535  -2.6949  -2.5898  -2.5566  -2.5566
    -2.5280  -2.3528  -2.3528  -2.0580  -2.0431  -1.7395  -1.7395  -1.5254
    -1.2782  -1.0440  -0.9767  -0.9767  -0.6689  -0.6689  -0.5952  -0.5434
    -0.5434  -0.3826  -0.3019  -0.3019  -0.2553

     occupation numbers 
     1.0000   1.0000   1.0000   1.0000   1.0000   1.0000   1.0000   1.0000
     1.0000   1.0000   1.0000   1.0000   1.0000   1.0000   1.0000   1.0000
     1.0000   1.0000   1.0000   1.0000   1.0000   1.0000   1.0000   1.0000
     1.0000   1.0000   1.0000   1.0000   1.0000   1.0000   1.0000   1.0000
     1.0000   1.0000   1.0000   1.0000   1.0000   1.0000   1.0000   1.0000
     1.0000   1.0000   1.0000   1.0000   1.0000   1.0000   1.0000   1.0000
     1.0000   1.0000   1.0000   1.0000   1.0000   1.0000   1.0000   1.0000
     1.0000   1.0000   1.0000   1.0000   1.0000   1.0000   1.0000   1.0000
     1.0000   1.0000   1.0000   1.0000   1.0000   1.0000   1.0001   1.0031
     1.0831   1.0831   0.9518   0.9518   0.9116   0.2895   0.0761   0.0761
     0.0011   0.0011   0.0001   0.0000   0.0000   0.0000   0.0000   0.0000
     0.0000   0.0000   0.0000   0.0000   0.0000   0.0000   0.0000   0.0000
     0.0000   0.0000   0.0000   0.0000   0.0000   0.0000   0.0000   0.0000
     0.0000   0.0000   0.0000   0.0000   0.0000   0.0000   0.0000   0.0000
     0.0000   0.0000   0.0000   0.0000   0.0000

          k = 0.0000 0.1849 0.0000 (361298 PWs)   bands (ev):

   -51.7010 -51.7010 -51.6997 -51.6997 -51.3945 -51.3945 -51.3931 -51.3931
   -51.3146 -51.3145 -51.3131 -51.3131 -51.2635 -51.2635 -51.2621 -51.2621
   -50.6184 -50.6184 -50.6167 -50.6167 -50.4778 -50.4715 -50.4692 -50.4692
   -50.4689 -50.4677 -50.4676 -50.4666 -50.4545 -50.4543 -50.4543 -50.4540
   -50.4486 -50.4430 -50.4411 -50.4411 -50.4391 -50.4384 -50.4384 -50.4384
   -50.4281 -50.4281 -50.4279 -50.4266 -50.3954 -50.3954 -50.3939 -50.3939
   -50.3702 -50.3702 -50.3696 -50.3696  -7.2234  -6.9783  -6.7907  -6.5480
    -6.0831  -5.9953  -5.8195  -5.5428  -5.2811  -5.1810  -4.8465  -4.8118
    -4.8118  -4.7942  -4.7480  -4.5924  -4.5924  -4.4178  -4.4178  -4.2160
    -4.2160  -4.1700  -4.0113  -3.8504  -3.8504  -3.7498  -3.7172  -3.7171
    -3.5988  -3.5988  -3.5860  -3.4396  -3.4396  -3.3680  -3.2289  -3.1831
    -3.1831  -2.9437  -2.9273  -2.9273  -2.7326  -2.7326  -2.5491  -2.4533
    -2.4533  -2.4436  -2.3761  -2.1939  -2.0195  -1.7134  -1.5290  -1.5290
    -1.2077  -1.0220  -0.8530  -0.8530  -0.7662  -0.6782  -0.6782  -0.5312
    -0.5191  -0.5191  -0.3341  -0.2825  -0.2825

     occupation numbers 
     1.0000   1.0000   1.0000   1.0000   1.0000   1.0000   1.0000   1.0000
     1.0000   1.0000   1.0000   1.0000   1.0000   1.0000   1.0000   1.0000
     1.0000   1.0000   1.0000   1.0000   1.0000   1.0000   1.0000   1.0000
     1.0000   1.0000   1.0000   1.0000   1.0000   1.0000   1.0000   1.0000
     1.0000   1.0000   1.0000   1.0000   1.0000   1.0000   1.0000   1.0000
     1.0000   1.0000   1.0000   1.0000   1.0000   1.0000   1.0000   1.0000
     1.0000   1.0000   1.0000   1.0000   1.0000   1.0000   1.0000   1.0000
     1.0000   1.0000   1.0000   1.0000   1.0000   1.0000   1.0000   1.0000
     1.0000   1.0000   1.0000   1.0000   1.0000   1.0000   1.0000   1.0199
     1.0199   1.0454   0.9411   0.1775   0.1774   0.0180   0.0068   0.0068
     0.0001   0.0001   0.0000   0.0000   0.0000   0.0000   0.0000   0.0000
     0.0000   0.0000   0.0000   0.0000   0.0000   0.0000   0.0000   0.0000
     0.0000   0.0000   0.0000   0.0000   0.0000   0.0000   0.0000   0.0000
     0.0000   0.0000   0.0000   0.0000   0.0000   0.0000   0.0000   0.0000
     0.0000   0.0000   0.0000   0.0000   0.0000

          k = 0.0000-0.2774 0.0000 (361286 PWs)   bands (ev):

   -51.7010 -51.7010 -51.6997 -51.6997 -51.3945 -51.3945 -51.3931 -51.3931
   -51.3146 -51.3145 -51.3131 -51.3131 -51.2635 -51.2635 -51.2621 -51.2621
   -50.6184 -50.6184 -50.6167 -50.6167 -50.4778 -50.4715 -50.4692 -50.4692
   -50.4689 -50.4677 -50.4676 -50.4666 -50.4545 -50.4543 -50.4543 -50.4540
   -50.4486 -50.4430 -50.4411 -50.4411 -50.4391 -50.4384 -50.4384 -50.4384
   -50.4281 -50.4281 -50.4279 -50.4266 -50.3954 -50.3954 -50.3939 -50.3939
   -50.3702 -50.3702 -50.3696 -50.3696  -7.1342  -7.1075  -6.7092  -6.6692
    -6.0261  -5.9134  -5.6605  -5.6455  -5.2632  -5.1635  -5.1065  -4.9023
    -4.7350  -4.7350  -4.7035  -4.7035  -4.5056  -4.3751  -4.3751  -4.3600
    -4.2867  -4.2867  -4.0263  -3.8175  -3.8175  -3.6915  -3.6343  -3.6343
    -3.5404  -3.5404  -3.4489  -3.4279  -3.4279  -3.4156  -3.2303  -3.2303
    -3.1116  -3.0225  -2.9679  -2.9679  -2.8244  -2.8244  -2.4959  -2.4717
    -2.4717  -2.3618  -2.2952  -2.1207  -2.0711  -1.9023  -1.4653  -1.4653
    -1.2085  -0.9489  -0.8294  -0.7509  -0.7509  -0.6862  -0.6490  -0.6490
    -0.5253  -0.5253  -0.3842  -0.3592  -0.3592

     occupation numbers 
     1.0000   1.0000   1.0000   1.0000   1.0000   1.0000   1.0000   1.0000
     1.0000   1.0000   1.0000   1.0000   1.0000   1.0000   1.0000   1.0000
     1.0000   1.0000   1.0000   1.0000   1.0000   1.0000   1.0000   1.0000
     1.0000   1.0000   1.0000   1.0000   1.0000   1.0000   1.0000   1.0000
     1.0000   1.0000   1.0000   1.0000   1.0000   1.0000   1.0000   1.0000
     1.0000   1.0000   1.0000   1.0000   1.0000   1.0000   1.0000   1.0000
     1.0000   1.0000   1.0000   1.0000   1.0000   1.0000   1.0000   1.0000
     1.0000   1.0000   1.0000   1.0000   1.0000   1.0000   1.0000   1.0000
     1.0000   1.0000   1.0000   1.0000   1.0000   1.0002   1.0002   1.0003
     1.0033   1.0033   0.9905   0.0940   0.0940   0.0030   0.0004   0.0004
     0.0000   0.0000   0.0000   0.0000   0.0000   0.0000   0.0000   0.0000
     0.0000   0.0000   0.0000   0.0000   0.0000   0.0000   0.0000   0.0000
     0.0000   0.0000   0.0000   0.0000   0.0000   0.0000   0.0000   0.0000
     0.0000   0.0000   0.0000   0.0000   0.0000   0.0000   0.0000   0.0000
     0.0000   0.0000   0.0000   0.0000   0.0000

          k = 0.1000 0.0000 0.0000 (361205 PWs)   bands (ev):

   -51.7010 -51.7010 -51.6997 -51.6997 -51.3945 -51.3945 -51.3931 -51.3931
   -51.3145 -51.3145 -51.3131 -51.3131 -51.2635 -51.2635 -51.2622 -51.2621
   -50.6184 -50.6183 -50.6167 -50.6167 -50.4776 -50.4714 -50.4701 -50.4689
   -50.4685 -50.4677 -50.4676 -50.4666 -50.4545 -50.4543 -50.4543 -50.4540
   -50.4485 -50.4429 -50.4418 -50.4409 -50.4390 -50.4385 -50.4384 -50.4383
   -50.4281 -50.4281 -50.4280 -50.4266 -50.3953 -50.3953 -50.3939 -50.3939
   -50.3702 -50.3702 -50.3696 -50.3696  -7.2806  -6.8514  -6.5481  -6.5372
    -6.2243  -6.1096  -6.0036  -5.4683  -5.3915  -5.3485  -5.0493  -4.9337
    -4.6713  -4.6437  -4.4951  -4.4689  -4.3793  -4.3787  -4.3729  -4.3619
    -4.2748  -4.1717  -3.9846  -3.9719  -3.9524  -3.8568  -3.8456  -3.7654
    -3.6945  -3.6920  -3.5149  -3.4395  -3.3151  -3.2755  -3.2324  -3.0735
    -3.0475  -2.9954  -2.9577  -2.9173  -2.6877  -2.5638  -2.5541  -2.5043
    -2.4637  -2.3290  -2.2993  -2.0735  -1.9784  -1.8919  -1.8062  -1.5686
    -1.2966  -1.0563  -1.0516  -0.9123  -0.6575  -0.6460  -0.5519  -0.4752
    -0.4666  -0.4436  -0.3573  -0.2994  -0.2221

     occupation numbers 
     1.0000   1.0000   1.0000   1.0000   1.0000   1.0000   1.0000   1.0000
     1.0000   1.0000   1.0000   1.0000   1.0000   1.0000   1.0000   1.0000
     1.0000   1.0000   1.0000   1.0000   1.0000   1.0000   1.0000   1.0000
     1.0000   1.0000   1.0000   1.0000   1.0000   1.0000   1.0000   1.0000
     1.0000   1.0000   1.0000   1.0000   1.0000   1.0000   1.0000   1.0000
     1.0000   1.0000   1.0000   1.0000   1.0000   1.0000   1.0000   1.0000
     1.0000   1.0000   1.0000   1.0000   1.0000   1.0000   1.0000   1.0000
     1.0000   1.0000   1.0000   1.0000   1.0000   1.0000   1.0000   1.0000
     1.0000   1.0000   1.0000   1.0000   1.0001   1.0001   1.0002   1.0003
     1.0047   1.0443   0.8281   0.7647   0.6608   0.1985   0.1630   0.0274
     0.0033   0.0030   0.0000   0.0000   0.0000   0.0000   0.0000   0.0000
     0.0000   0.0000   0.0000   0.0000   0.0000   0.0000   0.0000   0.0000
     0.0000   0.0000   0.0000   0.0000   0.0000   0.0000   0.0000   0.0000
     0.0000   0.0000   0.0000   0.0000   0.0000   0.0000   0.0000   0.0000
     0.0000   0.0000   0.0000   0.0000   0.0000

          k = 0.1000 0.0925 0.0000 (361249 PWs)   bands (ev):

   -51.7010 -51.7010 -51.6997 -51.6997 -51.3945 -51.3945 -51.3931 -51.3931
   -51.3145 -51.3145 -51.3131 -51.3131 -51.2635 -51.2635 -51.2622 -51.2621
   -50.6184 -50.6183 -50.6167 -50.6167 -50.4776 -50.4714 -50.4701 -50.4689
   -50.4685 -50.4677 -50.4676 -50.4666 -50.4545 -50.4543 -50.4543 -50.4540
   -50.4485 -50.4429 -50.4418 -50.4409 -50.4390 -50.4385 -50.4384 -50.4383
   -50.4281 -50.4281 -50.4279 -50.4266 -50.3953 -50.3953 -50.3939 -50.3939
   -50.3702 -50.3702 -50.3696 -50.3696  -7.2603  -6.8355  -6.7625  -6.3532
    -6.2775  -6.1097  -5.8174  -5.6238  -5.3294  -5.2625  -4.9735  -4.9240
    -4.8574  -4.8243  -4.6473  -4.4983  -4.4143  -4.3777  -4.3551  -4.2640
    -4.2410  -4.0619  -3.9827  -3.9770  -3.9314  -3.8555  -3.8423  -3.6868
    -3.5839  -3.5655  -3.5141  -3.4956  -3.4300  -3.2616  -3.2296  -3.2187
    -3.1331  -2.9685  -2.8431  -2.7986  -2.6722  -2.6426  -2.5639  -2.5393
    -2.5020  -2.3908  -2.2028  -2.0335  -2.0215  -1.9493  -1.6344  -1.4993
    -1.2590  -1.1094  -1.0233  -0.9413  -0.7130  -0.6582  -0.5826  -0.5399
    -0.4254  -0.3958  -0.3723  -0.2908  -0.2370

     occupation numbers 
     1.0000   1.0000   1.0000   1.0000   1.0000   1.0000   1.0000   1.0000
     1.0000   1.0000   1.0000   1.0000   1.0000   1.0000   1.0000   1.0000
     1.0000   1.0000   1.0000   1.0000   1.0000   1.0000   1.0000   1.0000
     1.0000   1.0000   1.0000   1.0000   1.0000   1.0000   1.0000   1.0000
     1.0000   1.0000   1.0000   1.0000   1.0000   1.0000   1.0000   1.0000
     1.0000   1.0000   1.0000   1.0000   1.0000   1.0000   1.0000   1.0000
     1.0000   1.0000   1.0000   1.0000   1.0000   1.0000   1.0000   1.0000
     1.0000   1.0000   1.0000   1.0000   1.0000   1.0000   1.0000   1.0000
     1.0000   1.0000   1.0000   1.0000   1.0000   1.0001   1.0003   1.0063
     1.0113   1.0638   0.8189   0.7908   0.5447   0.1940   0.1533   0.0025
     0.0000   0.0000   0.0000   0.0000   0.0000   0.0000   0.0000   0.0000
     0.0000   0.0000   0.0000   0.0000   0.0000   0.0000   0.0000   0.0000
     0.0000   0.0000   0.0000   0.0000   0.0000   0.0000   0.0000   0.0000
     0.0000   0.0000   0.0000   0.0000   0.0000   0.0000   0.0000   0.0000
     0.0000   0.0000   0.0000   0.0000   0.0000

          k = 0.1000 0.1849 0.0000 (361237 PWs)   bands (ev):

   -51.7010 -51.7010 -51.6997 -51.6997 -51.3945 -51.3945 -51.3931 -51.3931
   -51.3145 -51.3145 -51.3131 -51.3131 -51.2635 -51.2635 -51.2622 -51.2621
   -50.6184 -50.6183 -50.6167 -50.6167 -50.4776 -50.4714 -50.4701 -50.4689
   -50.4685 -50.4677 -50.4676 -50.4666 -50.4545 -50.4543 -50.4543 -50.4540
   -50.4485 -50.4429 -50.4418 -50.4409 -50.4390 -50.4385 -50.4384 -50.4383
   -50.4281 -50.4281 -50.4279 -50.4267 -50.3953 -50.3953 -50.3939 -50.3939
   -50.3702 -50.3702 -50.3696 -50.3696  -7.1995  -6.9545  -6.7668  -6.5241
    -6.0589  -5.9714  -5.7953  -5.5190  -5.2726  -5.2568  -5.1565  -5.0432
    -4.8564  -4.8216  -4.7701  -4.7239  -4.6451  -4.3052  -4.2054  -4.1450
    -4.1403  -4.0924  -4.0170  -3.9868  -3.9179  -3.7912  -3.7249  -3.7163
    -3.5860  -3.5574  -3.4842  -3.3816  -3.3430  -3.3133  -3.2228  -3.2016
    -3.1905  -2.9857  -2.9182  -2.8844  -2.7414  -2.5896  -2.5242  -2.4920
    -2.4176  -2.3531  -2.2905  -2.1716  -1.9939  -1.6866  -1.6375  -1.4712
    -1.1916  -1.0588  -1.0045  -0.8171  -0.7490  -0.7484  -0.6471  -0.6374
    -0.5180  -0.5174  -0.3556  -0.3297  -0.2680

     occupation numbers 
     1.0000   1.0000   1.0000   1.0000   1.0000   1.0000   1.0000   1.0000
     1.0000   1.0000   1.0000   1.0000   1.0000   1.0000   1.0000   1.0000
     1.0000   1.0000   1.0000   1.0000   1.0000   1.0000   1.0000   1.0000
     1.0000   1.0000   1.0000   1.0000   1.0000   1.0000   1.0000   1.0000
     1.0000   1.0000   1.0000   1.0000   1.0000   1.0000   1.0000   1.0000
     1.0000   1.0000   1.0000   1.0000   1.0000   1.0000   1.0000   1.0000
     1.0000   1.0000   1.0000   1.0000   1.0000   1.0000   1.0000   1.0000
     1.0000   1.0000   1.0000   1.0000   1.0000   1.0000   1.0000   1.0000
     1.0000   1.0000   1.0000   1.0000   1.0000   1.0019   1.0247   1.0626
     1.0657   1.0831   0.9612   0.8385   0.4715   0.0522   0.0087   0.0067
     0.0000   0.0000   0.0000   0.0000   0.0000   0.0000   0.0000   0.0000
     0.0000   0.0000   0.0000   0.0000   0.0000   0.0000   0.0000   0.0000
     0.0000   0.0000   0.0000   0.0000   0.0000   0.0000   0.0000   0.0000
     0.0000   0.0000   0.0000   0.0000   0.0000   0.0000   0.0000   0.0000
     0.0000   0.0000   0.0000   0.0000   0.0000

          k = 0.1000-0.2774 0.0000 (361248 PWs)   bands (ev):

   -51.7010 -51.7010 -51.6997 -51.6997 -51.3945 -51.3945 -51.3931 -51.3931
   -51.3145 -51.3145 -51.3131 -51.3131 -51.2635 -51.2635 -51.2622 -51.2621
   -50.6184 -50.6183 -50.6167 -50.6167 -50.4776 -50.4714 -50.4701 -50.4689
   -50.4685 -50.4677 -50.4676 -50.4666 -50.4545 -50.4543 -50.4543 -50.4540
   -50.4484 -50.4430 -50.4418 -50.4409 -50.4390 -50.4385 -50.4384 -50.4383
   -50.4281 -50.4281 -50.4279 -50.4267 -50.3953 -50.3953 -50.3939 -50.3939
   -50.3702 -50.3702 -50.3696 -50.3696  -7.1104  -7.0836  -6.6853  -6.6453
    -6.0020  -5.8891  -5.6363  -5.6216  -5.2391  -5.1918  -5.1608  -5.1396
    -5.0822  -4.8773  -4.7884  -4.7473  -4.4814  -4.3360  -4.2379  -4.2155
    -4.1455  -4.0633  -4.0014  -3.8931  -3.8636  -3.8321  -3.7748  -3.6668
    -3.5959  -3.5061  -3.4473  -3.4184  -3.3897  -3.2952  -3.2209  -3.1763
    -3.0876  -2.9939  -2.9785  -2.8992  -2.7127  -2.6684  -2.6052  -2.4698
    -2.3377  -2.2821  -2.2710  -2.0999  -2.0473  -1.8736  -1.4831  -1.4495
    -1.1955  -0.9331  -0.9100  -0.8099  -0.7927  -0.7159  -0.6917  -0.6701
    -0.6180  -0.5535  -0.5476  -0.3775  -0.3739

     occupation numbers 
     1.0000   1.0000   1.0000   1.0000   1.0000   1.0000   1.0000   1.0000
     1.0000   1.0000   1.0000   1.0000   1.0000   1.0000   1.0000   1.0000
     1.0000   1.0000   1.0000   1.0000   1.0000   1.0000   1.0000   1.0000
     1.0000   1.0000   1.0000   1.0000   1.0000   1.0000   1.0000   1.0000
     1.0000   1.0000   1.0000   1.0000   1.0000   1.0000   1.0000   1.0000
     1.0000   1.0000   1.0000   1.0000   1.0000   1.0000   1.0000   1.0000
     1.0000   1.0000   1.0000   1.0000   1.0000   1.0000   1.0000   1.0000
     1.0000   1.0000   1.0000   1.0000   1.0000   1.0000   1.0000   1.0000
     1.0000   1.0000   1.0000   1.0000   1.0000   1.0007   1.0122   1.0201
     1.0622   1.0654   0.9027   0.3460   0.2225   0.1264   0.0349   0.0012
     0.0001   0.0000   0.0000   0.0000   0.0000   0.0000   0.0000   0.0000
     0.0000   0.0000   0.0000   0.0000   0.0000   0.0000   0.0000   0.0000
     0.0000   0.0000   0.0000   0.0000   0.0000   0.0000   0.0000   0.0000
     0.0000   0.0000   0.0000   0.0000   0.0000   0.0000   0.0000   0.0000
     0.0000   0.0000   0.0000   0.0000   0.0000

          k = 0.2000 0.0000 0.0000 (361073 PWs)   bands (ev):

   -51.7009 -51.7009 -51.6998 -51.6998 -51.3944 -51.3944 -51.3932 -51.3932
   -51.3144 -51.3144 -51.3132 -51.3132 -51.2634 -51.2634 -51.2623 -51.2622
   -50.6182 -50.6182 -50.6168 -50.6168 -50.4772 -50.4712 -50.4712 -50.4687
   -50.4685 -50.4676 -50.4674 -50.4666 -50.4545 -50.4543 -50.4543 -50.4541
   -50.4481 -50.4428 -50.4426 -50.4409 -50.4389 -50.4384 -50.4384 -50.4382
   -50.4281 -50.4280 -50.4279 -50.4267 -50.3952 -50.3952 -50.3940 -50.3940
   -50.3701 -50.3701 -50.3697 -50.3697  -7.2090  -6.7795  -6.4770  -6.4655
    -6.1525  -6.0379  -5.9317  -5.7624  -5.3964  -5.3399  -5.3193  -5.0640
    -5.0400  -4.9762  -4.7499  -4.6428  -4.5269  -4.4209  -4.3934  -4.3029
    -4.2861  -4.0754  -3.9935  -3.9117  -3.8780  -3.8160  -3.7692  -3.6271
    -3.4670  -3.3503  -3.2782  -3.2347  -3.2311  -3.2201  -3.0661  -3.0518
    -2.9843  -2.9265  -2.8463  -2.8358  -2.8217  -2.6762  -2.5673  -2.4726
    -2.4655  -2.3814  -2.3421  -2.0072  -1.9984  -1.8288  -1.8019  -1.5108
    -1.2376  -1.1259  -1.1174  -0.8339  -0.7078  -0.6525  -0.5085  -0.4543
    -0.4388  -0.4154  -0.3493  -0.3129  -0.2988

     occupation numbers 
     1.0000   1.0000   1.0000   1.0000   1.0000   1.0000   1.0000   1.0000
     1.0000   1.0000   1.0000   1.0000   1.0000   1.0000   1.0000   1.0000
     1.0000   1.0000   1.0000   1.0000   1.0000   1.0000   1.0000   1.0000
     1.0000   1.0000   1.0000   1.0000   1.0000   1.0000   1.0000   1.0000
     1.0000   1.0000   1.0000   1.0000   1.0000   1.0000   1.0000   1.0000
     1.0000   1.0000   1.0000   1.0000   1.0000   1.0000   1.0000   1.0000
     1.0000   1.0000   1.0000   1.0000   1.0000   1.0000   1.0000   1.0000
     1.0000   1.0000   1.0000   1.0000   1.0000   1.0000   1.0000   1.0000
     1.0000   1.0000   1.0000   1.0000   1.0000   1.0000   1.0001   1.0020
     1.0034   1.0766   0.8689   0.4387   0.2790   0.0910   0.0303   0.0003
     0.0000   0.0000   0.0000   0.0000   0.0000   0.0000   0.0000   0.0000
     0.0000   0.0000   0.0000   0.0000   0.0000   0.0000   0.0000   0.0000
     0.0000   0.0000   0.0000   0.0000   0.0000   0.0000   0.0000   0.0000
     0.0000   0.0000   0.0000   0.0000   0.0000   0.0000   0.0000   0.0000
     0.0000   0.0000   0.0000   0.0000   0.0000

          k = 0.2000 0.0925 0.0000 (361173 PWs)   bands (ev):

   -51.7009 -51.7009 -51.6998 -51.6998 -51.3944 -51.3944 -51.3932 -51.3932
   -51.3144 -51.3144 -51.3133 -51.3132 -51.2634 -51.2634 -51.2623 -51.2622
   -50.6182 -50.6182 -50.6168 -50.6168 -50.4772 -50.4712 -50.4712 -50.4687
   -50.4685 -50.4676 -50.4674 -50.4666 -50.4545 -50.4543 -50.4543 -50.4541
   -50.4481 -50.4428 -50.4426 -50.4409 -50.4389 -50.4384 -50.4384 -50.4382
   -50.4281 -50.4280 -50.4279 -50.4268 -50.3952 -50.3952 -50.3940 -50.3940
   -50.3701 -50.3701 -50.3697 -50.3697  -7.1887  -6.7638  -6.6910  -6.2817
    -6.2061  -6.0371  -5.7460  -5.7429  -5.5519  -5.3282  -5.2601  -5.1896
    -4.9015  -4.8768  -4.7986  -4.7499  -4.6156  -4.5730  -4.3770  -4.3051
    -4.1998  -4.1893  -3.8977  -3.8694  -3.8000  -3.7810  -3.6160  -3.5054
    -3.4894  -3.4517  -3.4222  -3.3936  -3.2853  -3.2243  -3.1791  -3.1483
    -2.9615  -2.9158  -2.7658  -2.7265  -2.7056  -2.6055  -2.5683  -2.4875
    -2.4248  -2.3648  -2.2067  -2.0283  -1.9618  -1.9585  -1.7108  -1.4236
    -1.2071  -1.2070  -1.0426  -0.9661  -0.6981  -0.6508  -0.5545  -0.5391
    -0.4921  -0.3749  -0.3552  -0.3459  -0.2144

     occupation numbers 
     1.0000   1.0000   1.0000   1.0000   1.0000   1.0000   1.0000   1.0000
     1.0000   1.0000   1.0000   1.0000   1.0000   1.0000   1.0000   1.0000
     1.0000   1.0000   1.0000   1.0000   1.0000   1.0000   1.0000   1.0000
     1.0000   1.0000   1.0000   1.0000   1.0000   1.0000   1.0000   1.0000
     1.0000   1.0000   1.0000   1.0000   1.0000   1.0000   1.0000   1.0000
     1.0000   1.0000   1.0000   1.0000   1.0000   1.0000   1.0000   1.0000
     1.0000   1.0000   1.0000   1.0000   1.0000   1.0000   1.0000   1.0000
     1.0000   1.0000   1.0000   1.0000   1.0000   1.0000   1.0000   1.0000
     1.0000   1.0000   1.0000   1.0000   1.0000   1.0000   1.0001   1.0019
     1.0275   1.0333   0.3679   0.2443   0.0641   0.0408   0.0002   0.0000
     0.0000   0.0000   0.0000   0.0000   0.0000   0.0000   0.0000   0.0000
     0.0000   0.0000   0.0000   0.0000   0.0000   0.0000   0.0000   0.0000
     0.0000   0.0000   0.0000   0.0000   0.0000   0.0000   0.0000   0.0000
     0.0000   0.0000   0.0000   0.0000   0.0000   0.0000   0.0000   0.0000
     0.0000   0.0000   0.0000   0.0000   0.0000

          k = 0.2000 0.1849 0.0000 (361156 PWs)   bands (ev):

   -51.7009 -51.7009 -51.6998 -51.6998 -51.3944 -51.3944 -51.3932 -51.3932
   -51.3144 -51.3144 -51.3133 -51.3132 -51.2634 -51.2634 -51.2623 -51.2622
   -50.6182 -50.6182 -50.6168 -50.6168 -50.4772 -50.4712 -50.4712 -50.4687
   -50.4685 -50.4676 -50.4674 -50.4666 -50.4545 -50.4543 -50.4543 -50.4541
   -50.4481 -50.4428 -50.4426 -50.4409 -50.4389 -50.4384 -50.4384 -50.4382
   -50.4281 -50.4280 -50.4279 -50.4268 -50.3952 -50.3952 -50.3940 -50.3940
   -50.3701 -50.3701 -50.3697 -50.3697  -7.1280  -6.8830  -6.6950  -6.4526
    -5.9865  -5.8998  -5.7230  -5.6847  -5.4492  -5.4478  -5.2595  -5.1842
    -5.0834  -5.0349  -4.7475  -4.6981  -4.6519  -4.5708  -4.5065  -4.3366
    -4.1157  -4.0703  -3.9141  -3.8345  -3.7615  -3.7494  -3.6510  -3.5979
    -3.5240  -3.4866  -3.4717  -3.3520  -3.3301  -3.2690  -3.1992  -3.1201
    -3.0238  -2.8494  -2.8428  -2.7529  -2.6792  -2.5009  -2.4512  -2.3411
    -2.2858  -2.2626  -2.1935  -2.1064  -1.9186  -1.8454  -1.6078  -1.4592
    -1.3109  -1.1520  -0.9790  -0.9571  -0.7530  -0.7115  -0.7043  -0.5628
    -0.5321  -0.4876  -0.4527  -0.3426  -0.3191

     occupation numbers 
     1.0000   1.0000   1.0000   1.0000   1.0000   1.0000   1.0000   1.0000
     1.0000   1.0000   1.0000   1.0000   1.0000   1.0000   1.0000   1.0000
     1.0000   1.0000   1.0000   1.0000   1.0000   1.0000   1.0000   1.0000
     1.0000   1.0000   1.0000   1.0000   1.0000   1.0000   1.0000   1.0000
     1.0000   1.0000   1.0000   1.0000   1.0000   1.0000   1.0000   1.0000
     1.0000   1.0000   1.0000   1.0000   1.0000   1.0000   1.0000   1.0000
     1.0000   1.0000   1.0000   1.0000   1.0000   1.0000   1.0000   1.0000
     1.0000   1.0000   1.0000   1.0000   1.0000   1.0000   1.0000   1.0000
     1.0000   1.0000   1.0000   1.0000   1.0000   1.0000   1.0000   1.0007
     1.0792   1.0726   0.4512   0.1323   0.0247   0.0178   0.0007   0.0001
     0.0000   0.0000   0.0000   0.0000   0.0000   0.0000   0.0000   0.0000
     0.0000   0.0000   0.0000   0.0000   0.0000   0.0000   0.0000   0.0000
     0.0000   0.0000   0.0000   0.0000   0.0000   0.0000   0.0000   0.0000
     0.0000   0.0000   0.0000   0.0000   0.0000   0.0000   0.0000   0.0000
     0.0000   0.0000   0.0000   0.0000   0.0000

          k = 0.2000-0.2774 0.0000 (361250 PWs)   bands (ev):

   -51.7009 -51.7009 -51.6998 -51.6998 -51.3944 -51.3944 -51.3932 -51.3932
   -51.3144 -51.3144 -51.3133 -51.3132 -51.2634 -51.2634 -51.2623 -51.2622
   -50.6182 -50.6182 -50.6168 -50.6168 -50.4772 -50.4712 -50.4712 -50.4687
   -50.4685 -50.4676 -50.4674 -50.4666 -50.4545 -50.4543 -50.4543 -50.4541
   -50.4481 -50.4428 -50.4426 -50.4409 -50.4389 -50.4384 -50.4384 -50.4382
   -50.4280 -50.4280 -50.4279 -50.4268 -50.3952 -50.3952 -50.3940 -50.3940
   -50.3701 -50.3701 -50.3697 -50.3697  -7.0390  -7.0120  -6.6137  -6.5735
    -5.9298  -5.8164  -5.6012  -5.5707  -5.5639  -5.5502  -5.1867  -5.1673
    -5.1445  -5.0683  -5.0095  -4.8024  -4.5277  -4.4101  -4.4093  -4.2645
    -4.1871  -4.1770  -3.9274  -3.8574  -3.7972  -3.6943  -3.6879  -3.6813
    -3.5934  -3.4589  -3.3497  -3.3457  -3.3272  -3.3131  -3.1768  -3.1147
    -3.0165  -2.9082  -2.8079  -2.7801  -2.6431  -2.3992  -2.3923  -2.3576
    -2.2688  -2.2037  -2.1979  -2.0405  -1.9780  -1.7881  -1.5532  -1.5025
    -1.2461  -1.1652  -0.9594  -0.8938  -0.8086  -0.7948  -0.7550  -0.6279
    -0.6021  -0.5479  -0.4543  -0.3831  -0.3588

     occupation numbers 
     1.0000   1.0000   1.0000   1.0000   1.0000   1.0000   1.0000   1.0000
     1.0000   1.0000   1.0000   1.0000   1.0000   1.0000   1.0000   1.0000
     1.0000   1.0000   1.0000   1.0000   1.0000   1.0000   1.0000   1.0000
     1.0000   1.0000   1.0000   1.0000   1.0000   1.0000   1.0000   1.0000
     1.0000   1.0000   1.0000   1.0000   1.0000   1.0000   1.0000   1.0000
     1.0000   1.0000   1.0000   1.0000   1.0000   1.0000   1.0000   1.0000
     1.0000   1.0000   1.0000   1.0000   1.0000   1.0000   1.0000   1.0000
     1.0000   1.0000   1.0000   1.0000   1.0000   1.0000   1.0000   1.0000
     1.0000   1.0000   1.0000   1.0000   1.0000   1.0000   1.0000   1.0062
     1.0346   1.0409   0.5224   0.2005   0.0601   0.0033   0.0026   0.0021
     0.0001   0.0000   0.0000   0.0000   0.0000   0.0000   0.0000   0.0000
     0.0000   0.0000   0.0000   0.0000   0.0000   0.0000   0.0000   0.0000
     0.0000   0.0000   0.0000   0.0000   0.0000   0.0000   0.0000   0.0000
     0.0000   0.0000   0.0000   0.0000   0.0000   0.0000   0.0000   0.0000
     0.0000   0.0000   0.0000   0.0000   0.0000

          k = 0.3000 0.0000 0.0000 (361143 PWs)   bands (ev):

   -51.7008 -51.7008 -51.7000 -51.7000 -51.3942 -51.3942 -51.3934 -51.3934
   -51.3143 -51.3142 -51.3134 -51.3134 -51.2632 -51.2632 -51.2624 -51.2624
   -50.6180 -50.6180 -50.6170 -50.6170 -50.4766 -50.4724 -50.4708 -50.4689
   -50.4686 -50.4677 -50.4670 -50.4665 -50.4544 -50.4543 -50.4542 -50.4541
   -50.4475 -50.4437 -50.4425 -50.4412 -50.4387 -50.4384 -50.4384 -50.4381
   -50.4280 -50.4279 -50.4279 -50.4269 -50.3951 -50.3951 -50.3942 -50.3942
   -50.3701 -50.3701 -50.3697 -50.3697  -7.0895  -6.6597  -6.3585  -6.3460
    -6.1263  -6.0331  -5.9188  -5.8121  -5.6998  -5.4145  -5.3937  -5.2773
    -5.1996  -5.0918  -4.9819  -4.8693  -4.8551  -4.3702  -4.2988  -4.2906
    -4.2688  -4.1779  -4.1611  -3.9391  -3.7922  -3.7563  -3.6438  -3.4586
    -3.4130  -3.3008  -3.2745  -3.1580  -3.1032  -3.0622  -3.0263  -2.8976
    -2.8843  -2.8174  -2.7540  -2.7316  -2.6625  -2.6111  -2.5241  -2.3384
    -2.2924  -2.2854  -2.2467  -2.0334  -1.9130  -1.9054  -1.7366  -1.4373
    -1.3489  -1.2445  -1.1610  -0.7157  -0.6678  -0.6648  -0.5160  -0.4794
    -0.4659  -0.4635  -0.4115  -0.3442  -0.1645

     occupation numbers 
     1.0000   1.0000   1.0000   1.0000   1.0000   1.0000   1.0000   1.0000
     1.0000   1.0000   1.0000   1.0000   1.0000   1.0000   1.0000   1.0000
     1.0000   1.0000   1.0000   1.0000   1.0000   1.0000   1.0000   1.0000
     1.0000   1.0000   1.0000   1.0000   1.0000   1.0000   1.0000   1.0000
     1.0000   1.0000   1.0000   1.0000   1.0000   1.0000   1.0000   1.0000
     1.0000   1.0000   1.0000   1.0000   1.0000   1.0000   1.0000   1.0000
     1.0000   1.0000   1.0000   1.0000   1.0000   1.0000   1.0000   1.0000
     1.0000   1.0000   1.0000   1.0000   1.0000   1.0000   1.0000   1.0000
     1.0000   1.0000   1.0000   1.0000   1.0000   1.0002   1.0023   1.0030
     1.0055   1.0402   1.0515   0.5874   0.0535   0.0215   0.0005   0.0000
     0.0000   0.0000   0.0000   0.0000   0.0000   0.0000   0.0000   0.0000
[...]
     atom   52 type  1   force =     0.00000014   -0.20336681   -8.42095664
     The core correction contribution to forces
     atom    1 type  1   force =     0.00000000    0.00000000    0.00000000
     atom    2 type  1   force =     0.00000000    0.00000000    0.00000000
     atom    3 type  1   force =     0.00000000    0.00000000    0.00000000
     atom    4 type  1   force =     0.00000000    0.00000000    0.00000000
     atom    5 type  1   force =     0.00000000    0.00000000    0.00000000
     atom    6 type  1   force =     0.00000000    0.00000000    0.00000000
     atom    7 type  1   force =     0.00000000    0.00000000    0.00000000
     atom    8 type  1   force =     0.00000000    0.00000000    0.00000000
     atom    9 type  1   force =     0.00000000    0.00000000    0.00000000
     atom   10 type  1   force =     0.00000000    0.00000000    0.00000000
     atom   11 type  1   force =     0.00000000    0.00000000    0.00000000
     atom   12 type  1   force =     0.00000000    0.00000000    0.00000000
     atom   13 type  1   force =     0.00000000    0.00000000    0.00000000
     atom   14 type  1   force =     0.00000000    0.00000000    0.00000000
     atom   15 type  1   force =     0.00000000    0.00000000    0.00000000
     atom   16 type  1   force =     0.00000000    0.00000000    0.00000000
     atom   17 type  1   force =     0.00000000    0.00000000    0.00000000
     atom   18 type  1   force =     0.00000000    0.00000000    0.00000000
     atom   19 type  1   force =     0.00000000    0.00000000    0.00000000
     atom   20 type  1   force =     0.00000000    0.00000000    0.00000000
     atom   21 type  1   force =     0.00000000    0.00000000    0.00000000
     atom   22 type  1   force =     0.00000000    0.00000000    0.00000000
     atom   23 type  1   force =     0.00000000    0.00000000    0.00000000
     atom   24 type  1   force =     0.00000000    0.00000000    0.00000000
     atom   25 type  1   force =     0.00000000    0.00000000    0.00000000
     atom   26 type  1   force =     0.00000000    0.00000000    0.00000000
     atom   27 type  1   force =     0.00000000    0.00000000    0.00000000
     atom   28 type  1   force =     0.00000000    0.00000000    0.00000000
     atom   29 type  1   force =     0.00000000    0.00000000    0.00000000
     atom   30 type  1   force =     0.00000000    0.00000000    0.00000000
     atom   31 type  1   force =     0.00000000    0.00000000    0.00000000
     atom   32 type  1   force =     0.00000000    0.00000000    0.00000000
     atom   33 type  1   force =     0.00000000    0.00000000    0.00000000
     atom   34 type  1   force =     0.00000000    0.00000000    0.00000000
     atom   35 type  1   force =     0.00000000    0.00000000    0.00000000
     atom   36 type  1   force =     0.00000000    0.00000000    0.00000000
     atom   37 type  1   force =     0.00000000    0.00000000    0.00000000
     atom   38 type  1   force =     0.00000000    0.00000000    0.00000000
     atom   39 type  1   force =     0.00000000    0.00000000    0.00000000
     atom   40 type  1   force =     0.00000000    0.00000000    0.00000000
     atom   41 type  1   force =     0.00000000    0.00000000    0.00000000
     atom   42 type  1   force =     0.00000000    0.00000000    0.00000000
     atom   43 type  1   force =     0.00000000    0.00000000    0.00000000
     atom   44 type  1   force =     0.00000000    0.00000000    0.00000000
     atom   45 type  1   force =     0.00000000    0.00000000    0.00000000
     atom   46 type  1   force =     0.00000000    0.00000000    0.00000000
     atom   47 type  1   force =     0.00000000    0.00000000    0.00000000
     atom   48 type  1   force =     0.00000000    0.00000000    0.00000000
     atom   49 type  1   force =     0.00000000    0.00000000    0.00000000
     atom   50 type  1   force =     0.00000000    0.00000000    0.00000000
     atom   51 type  1   force =     0.00000000    0.00000000    0.00000000
     atom   52 type  1   force =     0.00000000    0.00000000    0.00000000
     The Hubbard contrib.    to forces
     atom    1 type  1   force =     0.00000000    0.00000000    0.00000000
     atom    2 type  1   force =     0.00000000    0.00000000    0.00000000
     atom    3 type  1   force =     0.00000000    0.00000000    0.00000000
     atom    4 type  1   force =     0.00000000    0.00000000    0.00000000
     atom    5 type  1   force =     0.00000000    0.00000000    0.00000000
     atom    6 type  1   force =     0.00000000    0.00000000    0.00000000
     atom    7 type  1   force =     0.00000000    0.00000000    0.00000000
     atom    8 type  1   force =     0.00000000    0.00000000    0.00000000
     atom    9 type  1   force =     0.00000000    0.00000000    0.00000000
     atom   10 type  1   force =     0.00000000    0.00000000    0.00000000
     atom   11 type  1   force =     0.00000000    0.00000000    0.00000000
     atom   12 type  1   force =     0.00000000    0.00000000    0.00000000
     atom   13 type  1   force =     0.00000000    0.00000000    0.00000000
     atom   14 type  1   force =     0.00000000    0.00000000    0.00000000
     atom   15 type  1   force =     0.00000000    0.00000000    0.00000000
     atom   16 type  1   force =     0.00000000    0.00000000    0.00000000
     atom   17 type  1   force =     0.00000000    0.00000000    0.00000000
     atom   18 type  1   force =     0.00000000    0.00000000    0.00000000
     atom   19 type  1   force =     0.00000000    0.00000000    0.00000000
     atom   20 type  1   force =     0.00000000    0.00000000    0.00000000
     atom   21 type  1   force =     0.00000000    0.00000000    0.00000000
     atom   22 type  1   force =     0.00000000    0.00000000    0.00000000
     atom   23 type  1   force =     0.00000000    0.00000000    0.00000000
     atom   24 type  1   force =     0.00000000    0.00000000    0.00000000
     atom   25 type  1   force =     0.00000000    0.00000000    0.00000000
     atom   26 type  1   force =     0.00000000    0.00000000    0.00000000
     atom   27 type  1   force =     0.00000000    0.00000000    0.00000000
     atom   28 type  1   force =     0.00000000    0.00000000    0.00000000
     atom   29 type  1   force =     0.00000000    0.00000000    0.00000000
     atom   30 type  1   force =     0.00000000    0.00000000    0.00000000
     atom   31 type  1   force =     0.00000000    0.00000000    0.00000000
     atom   32 type  1   force =     0.00000000    0.00000000    0.00000000
     atom   33 type  1   force =     0.00000000    0.00000000    0.00000000
     atom   34 type  1   force =     0.00000000    0.00000000    0.00000000
     atom   35 type  1   force =     0.00000000    0.00000000    0.00000000
     atom   36 type  1   force =     0.00000000    0.00000000    0.00000000
     atom   37 type  1   force =     0.00000000    0.00000000    0.00000000
     atom   38 type  1   force =     0.00000000    0.00000000    0.00000000
     atom   39 type  1   force =     0.00000000    0.00000000    0.00000000
     atom   40 type  1   force =     0.00000000    0.00000000    0.00000000
     atom   41 type  1   force =     0.00000000    0.00000000    0.00000000
     atom   42 type  1   force =     0.00000000    0.00000000    0.00000000
     atom   43 type  1   force =     0.00000000    0.00000000    0.00000000
     atom   44 type  1   force =     0.00000000    0.00000000    0.00000000
     atom   45 type  1   force =     0.00000000    0.00000000    0.00000000
     atom   46 type  1   force =     0.00000000    0.00000000    0.00000000
     atom   47 type  1   force =     0.00000000    0.00000000    0.00000000
     atom   48 type  1   force =     0.00000000    0.00000000    0.00000000
     atom   49 type  1   force =     0.00000000    0.00000000    0.00000000
     atom   50 type  1   force =     0.00000000    0.00000000    0.00000000
     atom   51 type  1   force =     0.00000000    0.00000000    0.00000000
     atom   52 type  1   force =     0.00000000    0.00000000    0.00000000
     The SCF correction term to forces
     atom    1 type  1   force =     0.00000000    0.00000031   -0.00000072
     atom    2 type  1   force =     0.00000000   -0.00000044    0.00000338
     atom    3 type  1   force =     0.00000000    0.00000002    0.00000002
     atom    4 type  1   force =     0.00000000   -0.00000018    0.00000285
     atom    5 type  1   force =     0.00000000    0.00000004   -0.00000003
     atom    6 type  1   force =    -0.00000000    0.00000018    0.00000037
     atom    7 type  1   force =    -0.00000000    0.00000001   -0.00000001
     atom    8 type  1   force =    -0.00000000   -0.00000001   -0.00000000
     atom    9 type  1   force =    -0.00000000    0.00000003    0.00000012
     atom   10 type  1   force =    -0.00000000   -0.00000178    0.00000028
     atom   11 type  1   force =    -0.00000000   -0.00000019   -0.00000918
     atom   12 type  1   force =    -0.00000000   -0.00000031    0.00000063
     atom   13 type  1   force =    -0.00000000   -0.00000413   -0.00000184
     atom   14 type  1   force =     0.00000000   -0.00000010   -0.00000011
     atom   15 type  1   force =     0.00000000   -0.00000000    0.00000003
     atom   16 type  1   force =     0.00000000   -0.00000014   -0.00000037
     atom   17 type  1   force =    -0.00000000   -0.00000012   -0.00000005
     atom   18 type  1   force =    -0.00000000    0.00000013   -0.00000282
     atom   19 type  1   force =    -0.00000000    0.00000003    0.00000013
     atom   20 type  1   force =    -0.00000000    0.00000004   -0.00000004
     atom   21 type  1   force =    -0.00000000    0.00000041   -0.00000325
     atom   22 type  1   force =    -0.00000000   -0.00000046    0.00000062
     atom   23 type  1   force =    -0.00000000    0.00000024   -0.00000044
     atom   24 type  1   force =    -0.00000000    0.00000403    0.00000183
     atom   25 type  1   force =    -0.00000000    0.00000177   -0.00000050
     atom   26 type  1   force =    -0.00000000    0.00000026    0.00000913
     atom   27 type  1   force =     0.00000000    0.00000031   -0.00000073
     atom   28 type  1   force =     0.00000000   -0.00000044    0.00000337
     atom   29 type  1   force =    -0.00000000    0.00000002    0.00000002
     atom   30 type  1   force =     0.00000000   -0.00000018    0.00000285
     atom   31 type  1   force =    -0.00000000    0.00000004   -0.00000003
     atom   32 type  1   force =    -0.00000000    0.00000018    0.00000037
     atom   33 type  1   force =    -0.00000000    0.00000001   -0.00000001
     atom   34 type  1   force =     0.00000000   -0.00000001   -0.00000000
     atom   35 type  1   force =    -0.00000000    0.00000003    0.00000012
     atom   36 type  1   force =     0.00000000   -0.00000178    0.00000027
     atom   37 type  1   force =    -0.00000000   -0.00000019   -0.00000918
     atom   38 type  1   force =     0.00000000   -0.00000031    0.00000064
     atom   39 type  1   force =    -0.00000000   -0.00000412   -0.00000184
     atom   40 type  1   force =    -0.00000000   -0.00000010   -0.00000011
     atom   41 type  1   force =    -0.00000000   -0.00000000    0.00000003
     atom   42 type  1   force =    -0.00000000   -0.00000014   -0.00000037
     atom   43 type  1   force =     0.00000000   -0.00000012   -0.00000005
     atom   44 type  1   force =     0.00000000    0.00000013   -0.00000282
     atom   45 type  1   force =     0.00000000    0.00000003    0.00000013
     atom   46 type  1   force =     0.00000000    0.00000004   -0.00000004
     atom   47 type  1   force =     0.00000000    0.00000041   -0.00000325
     atom   48 type  1   force =     0.00000000   -0.00000046    0.00000062
     atom   49 type  1   force =     0.00000000    0.00000024   -0.00000044
     atom   50 type  1   force =     0.00000000    0.00000403    0.00000183
     atom   51 type  1   force =     0.00000000    0.00000177   -0.00000050
     atom   52 type  1   force =     0.00000000    0.00000026    0.00000913

     Total force =     0.001608     Total SCF correction =     0.000023
     Energy error            =      8.2E-06 Ry
     Gradient error          =      2.6E-04 Ry/Bohr

     bfgs converged in  22 scf cycles and  21 bfgs steps
     (criteria: energy <  1.0E-05 Ry, force <  3.9E-04 Ry/Bohr)

     End of BFGS Geometry Optimization

     Final energy             =    -782.1035736220 Ry

     File ./Li/Lithium.bfgs deleted, as requested
Begin final coordinates

ATOMIC_POSITIONS (angstrom)
Li               0.0000000000        7.8422305368       31.1317163121
Li               0.0000000000       10.3620145427       29.4355997328
Li               0.0000000000        2.7477477016       29.6009670088
Li               0.0000000000        5.6848885070       28.3801345455
Li               0.0000000000        8.5531471296       26.1960114327
Li               0.0000000000       11.3523446370       24.6676120784
Li               0.0000000000        0.8711364123       27.2192095249
Li               0.0000000000        3.9345934614       25.0099936035
Li               0.0000000000        6.7096766120       23.3463551807
Li               0.0000000000        9.7538368125       21.2652319668
Li               0.0000000000        2.0406631805       22.3128825905
Li               0.0000000000        4.1169646200       20.1336554228
Li               0.0000000000        1.2252263630       32.2015654325
Li               1.7175782693        8.0578006238       28.6987455350
Li               1.7175765144       10.8328998827       27.0350951930
Li               1.7175790808        3.4151549731       27.3774513788
Li               1.7175772546        6.2143438027       25.8490795782
Li               1.7175759109        9.0825996086       23.6649693276
Li               1.7175758457       12.0197355808       22.4441033470
Li               1.7175775188        1.5107306429       24.8258581848
Li               1.7175764935        4.4054518410       22.6095193771
Li               1.7175767090        6.9252198351       20.9133952650
Li               1.7175772108       10.6505091458       31.9114810036
Li               1.7175782344        1.1566591475       19.8435677927
Li               1.7175788866        5.0136272291       30.7798767966
Li               1.7175772914        0.3411849975       29.7322347619
Li               3.4351562293        7.8422316288       31.1317148863
Li               3.4351562293       10.3620193026       29.4355962883
Li               3.4351562293        2.7477478467       29.6009718317
Li               3.4351562293        5.6848878003       28.3801338413
Li               3.4351562293        8.5531476507       26.1960114388
Li               3.4351562293       11.3523476545       24.6676119605
Li               3.4351562293        0.8711382383       27.2192159228
Li               3.4351562293        3.9345930708       25.0099917769
Li               3.4351562293        6.7096767537       23.3463541245
Li               3.4351562293        9.7538360843       21.2652425347
Li               3.4351562293        2.0406609403       22.3128837887
Li               3.4351562293        4.1169648251       20.1336595617
Li               3.4351562293        1.2252216335       32.2015672174
Li               5.1527341894        8.0578006238       28.6987455350
Li               5.1527359443       10.8328998827       27.0350951930
Li               5.1527333779        3.4151549731       27.3774513788
Li               5.1527352041        6.2143438027       25.8490795782
Li               5.1527365478        9.0825996086       23.6649693276
Li               5.1527366130       12.0197355808       22.4441033470
Li               5.1527349399        1.5107306429       24.8258581848
Li               5.1527359652        4.4054518410       22.6095193771
Li               5.1527357497        6.9252198351       20.9133952650
Li               5.1527352479       10.6505091458       31.9114810036
Li               5.1527342243        1.1566591475       19.8435677927
Li               5.1527335721        5.0136272291       30.7798767966
Li               5.1527351673        0.3411849975       29.7322347619
End final coordinates



     Writing all to output data dir ./Li/Lithium.save/ :
     XML data file
     init_run     :     18.24s CPU     19.90s WALL (       1 calls)
     electrons    :  16156.16s CPU  16244.39s WALL (      22 calls)
     update_pot   :      4.84s CPU      4.92s WALL (      21 calls)
     forces       :   2175.02s CPU   2181.33s WALL (      22 calls)

     Called by init_run:
     wfcinit      :      4.28s CPU      4.71s WALL (       1 calls)
     wfcinit:wfcr :      4.07s CPU      4.50s WALL (      12 calls)
     potinit      :      0.20s CPU      0.57s WALL (       1 calls)
     hinit0       :      6.96s CPU      7.64s WALL (       1 calls)

     Called by electrons:
     c_bands      :  10203.87s CPU  10261.90s WALL (     406 calls)
     sum_band     :    829.58s CPU    835.39s WALL (     406 calls)
     v_of_rho     :     56.31s CPU     56.94s WALL (     407 calls)
     v_h          :      5.46s CPU      5.49s WALL (     407 calls)
     v_xc         :     50.85s CPU     51.45s WALL (     407 calls)
     newd         :     18.90s CPU     19.25s WALL (     407 calls)
     PAW_pot      :     10.34s CPU     10.80s WALL (     428 calls)
     mix_rho      :    134.30s CPU    135.26s WALL (     406 calls)

     Called by c_bands:
     init_us_2    :     94.84s CPU     95.23s WALL (   10272 calls)
     cegterg      :   9497.79s CPU   9551.76s WALL (    5336 calls)

     Called by sum_band:
     sum_band:wei :      2.31s CPU      2.32s WALL (     406 calls)
     sum_band:loo :    790.25s CPU    795.20s WALL (     406 calls)
     sum_band:buf :      9.00s CPU      9.17s WALL (    4872 calls)
     sum_band:ini :     44.10s CPU     44.25s WALL (    4872 calls)
     sum_band:cal :    133.27s CPU    134.18s WALL (    5124 calls)
     sum_band:bec :      3.04s CPU      3.26s WALL (    5124 calls)
     addusdens    :     13.82s CPU     14.18s WALL (     406 calls)
                                        0.00s GPU  (     406 calls)
     addusd:skk   :      3.68s CPU      3.70s WALL (     406 calls)
                                        0.00s GPU  (     406 calls)

     Called by *egterg:
     cdiaghg      :   2492.05s CPU   2508.62s WALL (   66039 calls)
     cegterg:over :    709.38s CPU    713.36s WALL (   61385 calls)
     cegterg:upda :    402.28s CPU    403.75s WALL (   61385 calls)
     cegterg:last :    107.61s CPU    107.97s WALL (    5812 calls)
     h_psi        :   5150.64s CPU   5180.17s WALL (   66733 calls)
     s_psi        :    397.31s CPU    398.80s WALL (   66733 calls)
     g_psi        :     10.94s CPU     11.04s WALL (   61385 calls)

     Called by h_psi:
     h_psi:calbec :    556.10s CPU    559.48s WALL (   66733 calls)
     vloc_psi     :   4155.87s CPU   4180.43s WALL (   66733 calls)
                                        0.00s GPU  (   66733 calls)
     add_vuspsi   :    412.42s CPU    413.97s WALL (   66733 calls)

     General routines
     calbec       :    713.18s CPU    717.71s WALL (   72913 calls)
     fft          :     58.31s CPU     58.99s WALL (    5333 calls)
     ffts         :     72.96s CPU     73.71s WALL (   45462 calls)
     fftw         :   4529.73s CPU   4556.50s WALL ( 4643936 calls)
     interpolate  :      4.54s CPU      4.87s WALL (     407 calls)
 
     Parallel routines

     PAW routines
     PAW_pot      :     10.34s CPU     10.80s WALL (     428 calls)
     PAW_symme    :      0.38s CPU      0.39s WALL (     834 calls)
 
     Environ routines
 
     PWSCF        :      5h13m CPU      5h15m WALL

 
   This run was terminated on:   9:18:31   5Jan2025            

=------------------------------------------------------------------------------=
   JOB DONE.
=------------------------------------------------------------------------------=
