
     Program PWSCF v.7.4 starts on 24Jan2025 at  1:57:34 

     This program is part of the open-source Quantum ESPRESSO suite
     for quantum simulation of materials; please cite
         "P. Giannozzi et al., J. Phys.:Condens. Matter 21 395502 (2009);
         "P. Giannozzi et al., J. Phys.:Condens. Matter 29 465901 (2017);
         "P. Giannozzi et al., J. Chem. Phys. 152 154105 (2020);
          URL http://www.quantum-espresso.org", 
     in publications or presentations arising from this work. More details at
     http://www.quantum-espresso.org/quote

     Parallel version (MPI & OpenMP), running on     512 processor cores
     Number of MPI processes:               512
     Threads/MPI process:                     1

     MPI processes distributed on     4 nodes
     231895 MiB available memory on the printing compute node when the environment starts

     Reading input from espresso.pwi
Warning: card &CELL ignored
Warning: card    PRESS_CONV_THR   = 0.1 ignored
Warning: card    CELL_DOFREE      = 'ALL' ignored
Warning: card / ignored
Warning: card &FCP ignored
Warning: card / ignored
Warning: card &RISM ignored
Warning: card / ignored

     Current dimensions of program PWSCF are:
     Max number of different atomic species (ntypx) = 10
     Max number of k-points (npk) =  40000
     Max angular momentum in pseudopotentials (lmaxx) =  4

     IMPORTANT: XC functional enforced from input :
     Exchange-correlation= PBE
                           (   1   4   3   4   0   0   0)
     Any further DFT definition will be discarded
     Please, verify this is what you really want


     Reading input from environ.in:
     * using ionic solvent mode
     * setting boundary derivatives method to SSCS default
     * setting electrolyte-boundary derivatives method to SSCS default

Environ Warning (1001): card EOF ignored

     

     K-points division:     npool     =       2
     R & G space division:  proc/nbgrp/npool/nimage =     256
     Subspace diagonalization in iterative solution of the eigenvalue problem:
     a serial algorithm will be used


     Parallelization info
     --------------------
     sticks:   dense  smooth     PW     G-vecs:    dense   smooth      PW
     Min          39      15      4                23005     5783     788
     Max          40      16      5                23062     5870     851
     Sum       10033    4007   1075              5896473  1491071  208783

     Using Slab Decomposition



     bravais-lattice index     =           12
     lattice parameter (alat)  =      11.2436  a.u.
     unit-cell volume          =   15431.5264 (a.u.)^3
     number of atoms/cell      =           28
     number of atomic types    =            1
     number of electrons       =        84.00
     number of Kohn-Sham states=           63
     kinetic-energy cutoff     =      80.0000  Ry
     charge density cutoff     =     800.0000  Ry
     scf convergence threshold =      1.0E-06
     mixing beta               =       0.2000
     number of iterations used =            8  local-TF  mixing
     energy convergence thresh.=      1.0E-05
     force convergence thresh. =      3.9E-04
     Exchange-correlation= PBE
                           (   1   4   3   4   0   0   0)
     nstep                     =          999


     ================================================================================

                                  Environ Setup Summary

     ================================================================================

     Please cite

          O. Andreussi, I. Dabo and N. Marzari, J. Chem. Phys. 136, 064102 (2012)
          F. Nattino, M. Truscott, N. Marzari, and O. Andreussi, J. Chem. Phys. 150, 041722 (2019)

     in publications or presentations arising from this work.

     ================================================================================

     Parameters
     ==========

     compensation onset threshold      =               0.1000E+00
     static permittivity               =                    89.90
     surface tension in input (dyn/cm) =                    37.30
     surface tension in internal units =               0.4792E-04

     Solvent Boundary
     ================

     solvent mode                      =                    ionic
     derivatives method                =                   lowmem
     electrolyte derivatives method    =                   lowmem
     numerical core for derivatives    =                      fft
     switching function adopted        =                     SCCS
     density limit for vacuum region   =               0.5000E-02
     density limit for bulk solvent    =               0.1000E-03
     soft-sphere radius mode           =                    bondi
     soft-sphere softness              =                     0.50
     alpha                             =                     1.32

     Electrostatic Setup
     ===================

     electrostatic problem to solve    =                    modpb
     numerical solver adopted          =                   newton
     type of auxiliary density adopted =                     none
     numerical core for poisson        =                      fft
     adopting a nested solver scheme
     inner solver                      =                       cg
     inner core                        =                      fft
     type of pbc corrections           =                parabolic
     numerical core for corrections    =                      1da

     ================================================================================


     >>>>> Grand-Canonical SCF is activated <<<<<
     Initial Total Charge  =     0.000000 e
     Target Fermi Energy   =    -1.654000 eV
     Thr. of Fermi Energy  =     0.001000 eV
     Wave-shift of Kerker  =     0.400000 bohr^-1
     Wave-shift of Hartree =     1.500000 bohr^-1
     Mixing Rate of Fermi  =     0.050000

     celldm(1)=  11.243615  celldm(2)=   1.258306  celldm(3)=   8.704589
     celldm(4)=  -0.132454  celldm(5)=   0.000000  celldm(6)=   0.000000

     crystal axes: (cart. coord. in units of alat)
               a(1) = (   1.000000   0.000000   0.000000 )  
               a(2) = (  -0.166667   1.247219   0.000000 )  
               a(3) = (   0.000000   0.000000   8.704589 )  

     reciprocal axes: (cart. coord. in units 2 pi/alat)
               b(1) = (  1.000000  0.133631 -0.000000 )  
               b(2) = (  0.000000  0.801784  0.000000 )  
               b(3) = (  0.000000 -0.000000  0.114882 )  


     PseudoPot. # 1 for Li read from file:
     /work/e89/e89/ba3g18/Repos/Pseudopotentials/Pslibrary/Li.pbe-sl-kjpaw_psl.1.0.0.UPF
     MD5 check sum: 3f4d2cafebb47c6c3aa8ed472e6f074d
     Pseudo is Projector augmented-wave, Zval =  3.0
     Generated using 'atomic' code by A. Dal Corso  v.7.4
     Shape of augmentation charge: PSQ
     Using radial grid of 1017 points,  4 beta functions with: 
                l(1) =   0
                l(2) =   0
                l(3) =   1
                l(4) =   1
     Q(r) pseudized with 0 coefficients 


     atomic species   valence    mass     pseudopotential
     Li                3.00     6.94000     Li( 1.00)

     No symmetry found


                                    s                        frac. trans.

      isym =  1     identity                                     

 cryst.   s( 1) = (     1          0          0      )
                  (     0          1          0      )
                  (     0          0          1      )

 cart.    s( 1) = (  1.0000000  0.0000000  0.0000000 )
                  (  0.0000000  1.0000000  0.0000000 )
                  (  0.0000000  0.0000000  1.0000000 )


     point group C_1 (1)    
     there are  1 classes
     the character table:

       E    
A      1.00

     the symmetry operations in each class and the name of the first element:

     E        1
          identity                                               

   Cartesian axes

     site n.     atom                  positions (alat units)
         1        Li     tau(   1) = (   0.0500877  -0.0210094   5.3284027  )
         2        Li     tau(   2) = (  -0.0502290   0.8229316   3.3758597  )
         3        Li     tau(   3) = (   0.1382799   0.3633652   3.4711143  )
         4        Li     tau(   4) = (   0.1760156   1.1795854   3.6580594  )
         5        Li     tau(   5) = (   0.2784212   0.7049583   3.8143610  )
         6        Li     tau(   6) = (   0.0170018   0.2822686   3.9572932  )
         7        Li     tau(   7) = (  -0.0231906   1.0614878   4.1069639  )
         8        Li     tau(   8) = (   0.1659147   0.6299554   4.2963462  )
         9        Li     tau(   9) = (   0.3342576   0.1717581   4.4083541  )
        10        Li     tau(  10) = (   0.3566568   0.9873921   4.5978308  )
        11        Li     tau(  11) = (  -0.0168533   0.5194891   4.7473581  )
        12        Li     tau(  12) = (   0.2215714   0.0968395   4.8900645  )
        13        Li     tau(  13) = (   0.1572764   0.8694219   5.0466831  )
        14        Li     tau(  14) = (   0.3614585   0.4384803   5.2334293  )
        15        Li     tau(  15) = (   0.5500895  -0.0210097   5.3284027  )
        16        Li     tau(  16) = (   0.4497621   0.8229296   3.3758634  )
        17        Li     tau(  17) = (   0.6382818   0.3633623   3.4711131  )
        18        Li     tau(  18) = (   0.6760180   1.1795913   3.6580620  )
        19        Li     tau(  19) = (   0.7784117   0.7049534   3.8143683  )
        20        Li     tau(  20) = (   0.5170111   0.2822754   3.9572941  )
        21        Li     tau(  21) = (   0.4768109   1.0614878   4.1069653  )
        22        Li     tau(  22) = (   0.6659158   0.6299551   4.2963387  )
        23        Li     tau(  23) = (   0.8342573   0.1717576   4.4083533  )
        24        Li     tau(  24) = (   0.8566589   0.9873930   4.5978325  )
        25        Li     tau(  25) = (   0.4831420   0.5194875   4.7473595  )
        26        Li     tau(  26) = (   0.7215699   0.0968383   4.8900661  )
        27        Li     tau(  27) = (   0.6572771   0.8694223   5.0466835  )
        28        Li     tau(  28) = (   0.8614587   0.4384807   5.2334300  )

   Crystallographic axes

     site n.     atom                  positions (cryst. coord.)
         1        Li     tau(   1) = (  0.0472802 -0.0168450  0.6121372  )
         2        Li     tau(   2) = (  0.0597401  0.6598132  0.3878253  )
         3        Li     tau(   3) = (  0.1868367  0.2913403  0.3987683  )
         4        Li     tau(   4) = (  0.3336447  0.9457725  0.4202449  )
         5        Li     tau(   5) = (  0.3726254  0.5652241  0.4382012  )
         6        Li     tau(   6) = (  0.0547216  0.2263184  0.4546215  )
         7        Li     tau(   7) = (  0.1186570  0.8510837  0.4718159  )
         8        Li     tau(   8) = (  0.2500962  0.5050880  0.4935726  )
         9        Li     tau(   9) = (  0.3572098  0.1377129  0.5064402  )
        10        Li     tau(  10) = (  0.4886029  0.7916750  0.5282077  )
        11        Li     tau(  11) = (  0.0525665  0.4165180  0.5453857  )
        12        Li     tau(  12) = (  0.2345121  0.0776443  0.5617801  )
        13        Li     tau(  13) = (  0.2734581  0.6970884  0.5797727  )
        14        Li     tau(  14) = (  0.4200530  0.3515664  0.6012265  )
        15        Li     tau(  15) = (  0.5472819 -0.0168452  0.6121372  )
        16        Li     tau(  16) = (  0.5597309  0.6598116  0.3878257  )
        17        Li     tau(  17) = (  0.6868382  0.2913380  0.3987682  )
        18        Li     tau(  18) = (  0.8336479  0.9457772  0.4202452  )
        19        Li     tau(  19) = (  0.8726152  0.5652202  0.4382020  )
        20        Li     tau(  20) = (  0.5547318  0.2263239  0.4546216  )
        21        Li     tau(  21) = (  0.6186585  0.8510837  0.4718161  )
        22        Li     tau(  22) = (  0.7500973  0.5050878  0.4935717  )
        23        Li     tau(  23) = (  0.8572094  0.1377125  0.5064401  )
        24        Li     tau(  24) = (  0.9886051  0.7916757  0.5282079  )
        25        Li     tau(  25) = (  0.5525616  0.4165167  0.5453858  )
        26        Li     tau(  26) = (  0.7345105  0.0776434  0.5617802  )
        27        Li     tau(  27) = (  0.7734588  0.6970887  0.5797727  )
        28        Li     tau(  28) = (  0.9200533  0.3515668  0.6012265  )

     number of k points=    50  Marzari-Vanderbilt smearing, width (Ry)=  0.0100
                       cart. coord. in units 2pi/alat
        k(    1) = (   0.0000000   0.0000000   0.0000000), wk =   0.0202020
        k(    2) = (   0.0000000   0.0890871   0.0000000), wk =   0.0404040
        k(    3) = (   0.0000000   0.1781742   0.0000000), wk =   0.0404040
        k(    4) = (   0.0000000   0.2672613   0.0000000), wk =   0.0404040
        k(    5) = (   0.0000000   0.3563484   0.0000000), wk =   0.0404040
        k(    6) = (   0.0909091   0.0121483   0.0000000), wk =   0.0404040
        k(    7) = (   0.0909091   0.1012354   0.0000000), wk =   0.0404040
        k(    8) = (   0.0909091   0.1903224   0.0000000), wk =   0.0404040
        k(    9) = (   0.0909091   0.2794095   0.0000000), wk =   0.0404040
        k(   10) = (   0.0909091   0.3684966   0.0000000), wk =   0.0404040
        k(   11) = (   0.0909091  -0.3442001   0.0000000), wk =   0.0404040
        k(   12) = (   0.0909091  -0.2551130   0.0000000), wk =   0.0404040
        k(   13) = (   0.0909091  -0.1660259   0.0000000), wk =   0.0404040
        k(   14) = (   0.0909091  -0.0769388   0.0000000), wk =   0.0404040
        k(   15) = (   0.1818182   0.0242965   0.0000000), wk =   0.0404040
        k(   16) = (   0.1818182   0.1133836   0.0000000), wk =   0.0404040
        k(   17) = (   0.1818182   0.2024707   0.0000000), wk =   0.0404040
        k(   18) = (   0.1818182   0.2915578   0.0000000), wk =   0.0404040
        k(   19) = (   0.1818182   0.3806449   0.0000000), wk =   0.0404040
        k(   20) = (   0.1818182  -0.3320518   0.0000000), wk =   0.0404040
        k(   21) = (   0.1818182  -0.2429647   0.0000000), wk =   0.0404040
        k(   22) = (   0.1818182  -0.1538777   0.0000000), wk =   0.0404040
        k(   23) = (   0.1818182  -0.0647906   0.0000000), wk =   0.0404040
        k(   24) = (   0.2727273   0.0364448   0.0000000), wk =   0.0404040
        k(   25) = (   0.2727273   0.1255319   0.0000000), wk =   0.0404040
        k(   26) = (   0.2727273   0.2146190   0.0000000), wk =   0.0404040
        k(   27) = (   0.2727273   0.3037061   0.0000000), wk =   0.0404040
        k(   28) = (   0.2727273   0.3927932   0.0000000), wk =   0.0404040
        k(   29) = (   0.2727273  -0.3199036   0.0000000), wk =   0.0404040
        k(   30) = (   0.2727273  -0.2308165   0.0000000), wk =   0.0404040
        k(   31) = (   0.2727273  -0.1417294   0.0000000), wk =   0.0404040
        k(   32) = (   0.2727273  -0.0526423   0.0000000), wk =   0.0404040
        k(   33) = (   0.3636364   0.0485931   0.0000000), wk =   0.0404040
        k(   34) = (   0.3636364   0.1376801   0.0000000), wk =   0.0404040
        k(   35) = (   0.3636364   0.2267672   0.0000000), wk =   0.0404040
        k(   36) = (   0.3636364   0.3158543   0.0000000), wk =   0.0404040
        k(   37) = (   0.3636364   0.4049414   0.0000000), wk =   0.0404040
        k(   38) = (   0.3636364  -0.3077553   0.0000000), wk =   0.0404040
        k(   39) = (   0.3636364  -0.2186682   0.0000000), wk =   0.0404040
        k(   40) = (   0.3636364  -0.1295811   0.0000000), wk =   0.0404040
        k(   41) = (   0.3636364  -0.0404940   0.0000000), wk =   0.0404040
        k(   42) = (   0.4545455   0.0607413   0.0000000), wk =   0.0404040
        k(   43) = (   0.4545455   0.1498284   0.0000000), wk =   0.0404040
        k(   44) = (   0.4545455   0.2389155   0.0000000), wk =   0.0404040
        k(   45) = (   0.4545455   0.3280026   0.0000000), wk =   0.0404040
        k(   46) = (   0.4545455   0.4170897   0.0000000), wk =   0.0404040
        k(   47) = (   0.4545455  -0.2956070   0.0000000), wk =   0.0404040
        k(   48) = (   0.4545455  -0.2065200   0.0000000), wk =   0.0404040
        k(   49) = (   0.4545455  -0.1174329   0.0000000), wk =   0.0404040
        k(   50) = (   0.4545455  -0.0283458   0.0000000), wk =   0.0404040

                       cryst. coord.
        k(    1) = (   0.0000000   0.0000000   0.0000000), wk =   0.0202020
        k(    2) = (   0.0000000   0.1111111   0.0000000), wk =   0.0404040
        k(    3) = (   0.0000000   0.2222222   0.0000000), wk =   0.0404040
        k(    4) = (   0.0000000   0.3333333   0.0000000), wk =   0.0404040
        k(    5) = (   0.0000000   0.4444444   0.0000000), wk =   0.0404040
        k(    6) = (   0.0909091  -0.0000000   0.0000000), wk =   0.0404040
        k(    7) = (   0.0909091   0.1111111   0.0000000), wk =   0.0404040
        k(    8) = (   0.0909091   0.2222222   0.0000000), wk =   0.0404040
        k(    9) = (   0.0909091   0.3333333   0.0000000), wk =   0.0404040
        k(   10) = (   0.0909091   0.4444444   0.0000000), wk =   0.0404040
        k(   11) = (   0.0909091  -0.4444444   0.0000000), wk =   0.0404040
        k(   12) = (   0.0909091  -0.3333333   0.0000000), wk =   0.0404040
        k(   13) = (   0.0909091  -0.2222222   0.0000000), wk =   0.0404040
        k(   14) = (   0.0909091  -0.1111111   0.0000000), wk =   0.0404040
        k(   15) = (   0.1818182  -0.0000000   0.0000000), wk =   0.0404040
        k(   16) = (   0.1818182   0.1111111   0.0000000), wk =   0.0404040
        k(   17) = (   0.1818182   0.2222222   0.0000000), wk =   0.0404040
        k(   18) = (   0.1818182   0.3333333   0.0000000), wk =   0.0404040
        k(   19) = (   0.1818182   0.4444444   0.0000000), wk =   0.0404040
        k(   20) = (   0.1818182  -0.4444444   0.0000000), wk =   0.0404040
        k(   21) = (   0.1818182  -0.3333333   0.0000000), wk =   0.0404040
        k(   22) = (   0.1818182  -0.2222222   0.0000000), wk =   0.0404040
        k(   23) = (   0.1818182  -0.1111111   0.0000000), wk =   0.0404040
        k(   24) = (   0.2727273   0.0000000   0.0000000), wk =   0.0404040
        k(   25) = (   0.2727273   0.1111111   0.0000000), wk =   0.0404040
        k(   26) = (   0.2727273   0.2222222   0.0000000), wk =   0.0404040
        k(   27) = (   0.2727273   0.3333333   0.0000000), wk =   0.0404040
        k(   28) = (   0.2727273   0.4444444   0.0000000), wk =   0.0404040
        k(   29) = (   0.2727273  -0.4444444   0.0000000), wk =   0.0404040
        k(   30) = (   0.2727273  -0.3333333   0.0000000), wk =   0.0404040
        k(   31) = (   0.2727273  -0.2222222   0.0000000), wk =   0.0404040
        k(   32) = (   0.2727273  -0.1111111   0.0000000), wk =   0.0404040
        k(   33) = (   0.3636364  -0.0000000   0.0000000), wk =   0.0404040
        k(   34) = (   0.3636364   0.1111111   0.0000000), wk =   0.0404040
        k(   35) = (   0.3636364   0.2222222   0.0000000), wk =   0.0404040
        k(   36) = (   0.3636364   0.3333333   0.0000000), wk =   0.0404040
        k(   37) = (   0.3636364   0.4444444   0.0000000), wk =   0.0404040
        k(   38) = (   0.3636364  -0.4444444   0.0000000), wk =   0.0404040
        k(   39) = (   0.3636364  -0.3333333   0.0000000), wk =   0.0404040
        k(   40) = (   0.3636364  -0.2222222   0.0000000), wk =   0.0404040
        k(   41) = (   0.3636364  -0.1111111   0.0000000), wk =   0.0404040
        k(   42) = (   0.4545455  -0.0000000   0.0000000), wk =   0.0404040
        k(   43) = (   0.4545455   0.1111111   0.0000000), wk =   0.0404040
        k(   44) = (   0.4545455   0.2222222   0.0000000), wk =   0.0404040
        k(   45) = (   0.4545455   0.3333333   0.0000000), wk =   0.0404040
        k(   46) = (   0.4545455   0.4444444   0.0000000), wk =   0.0404040
        k(   47) = (   0.4545455  -0.4444444   0.0000000), wk =   0.0404040
        k(   48) = (   0.4545455  -0.3333333   0.0000000), wk =   0.0404040
        k(   49) = (   0.4545455  -0.2222222   0.0000000), wk =   0.0404040
        k(   50) = (   0.4545455  -0.1111111   0.0000000), wk =   0.0404040

     Dense  grid:  5896473 G-vectors     FFT dimensions: ( 108, 128, 900)

     Smooth grid:  1491071 G-vectors     FFT dimensions: (  72,  81, 576)

     Dynamical RAM for                 wfc:       0.70 MB

     Dynamical RAM for     wfc (w. buffer):      18.20 MB

     Dynamical RAM for           str. fact:       0.35 MB

     Dynamical RAM for           local pot:       0.00 MB

     Dynamical RAM for          nlocal pot:       2.49 MB

     Dynamical RAM for                qrad:       0.65 MB

     Dynamical RAM for          rho,v,vnew:       2.32 MB

     Dynamical RAM for               rhoin:       0.77 MB

     Dynamical RAM for            rho*nmix:       5.62 MB

     Dynamical RAM for           G-vectors:       1.36 MB

     Dynamical RAM for          h,s,v(r/c):       2.91 MB

     Dynamical RAM for          <psi|beta>:       0.22 MB

     Dynamical RAM for                 psi:       2.80 MB

     Dynamical RAM for                hpsi:       2.80 MB

     Dynamical RAM for                spsi:       2.80 MB

     Dynamical RAM for      wfcinit/wfcrot:       1.49 MB

     Dynamical RAM for           addusdens:      12.65 MB

     Dynamical RAM for          addusforce:      22.17 MB

     Estimated static dynamical RAM per process >      28.95 MB

     Estimated max dynamical RAM per process >      89.97 MB

     Estimated total dynamical RAM >      26.96 GB

     Initial potential from superposition of free atoms

     starting charge      83.8710, renormalised to      84.0000

     negative rho (up, down):  2.661E-03 0.000E+00
     Starting wfcs are random
     Checking if some PAW data can be deallocated... 

     total cpu time spent up to now is       22.3 secs

     Self-consistent Calculation

     iteration #  1     ecut=    80.00 Ry     beta= 0.20
     Davidson diagonalization with overlap

---- Real-time Memory Report at c_bands before calling an iterative solver
           339 MiB given to the printing process from OS
             0 MiB allocation reported by mallinfo(arena+hblkhd)
        221014 MiB available memory on the node where the printing process lives
------------------
     c_bands:  1 eigenvalues not converged
     c_bands:  1 eigenvalues not converged
     c_bands:  1 eigenvalues not converged
     c_bands:  1 eigenvalues not converged
     c_bands:  1 eigenvalues not converged
     c_bands:  1 eigenvalues not converged
     ethr =  1.00E-12,  avg # of iterations =111.9

     negative rho (up, down):  2.002E-03 0.000E+00

     total cpu time spent up to now is      215.0 secs

     total energy              =    -421.07301939 Ry
     estimated scf accuracy    <       0.10511863 Ry

     total charge of GC-SCF    =      -0.02500163 e
     the Fermi energy          =      -4.30397358 eV
                        (error :       2.64997358 eV)
     electrostatic embedding   =       0.00000000 Ry
     cavitation energy         =       0.01804120 Ry
     electrolyte free energy   =       0.00664192 Ry
     correction to one-el term =      -0.00000000 Ry

     iteration #  2     ecut=    80.00 Ry     beta= 0.20
     Davidson diagonalization with overlap

---- Real-time Memory Report at c_bands before calling an iterative solver
           339 MiB given to the printing process from OS
             0 MiB allocation reported by mallinfo(arena+hblkhd)
        221154 MiB available memory on the node where the printing process lives
------------------
     ethr =  1.00E-05,  avg # of iterations = 11.0

     negative rho (up, down):  1.552E-03 0.000E+00

     add environment contribution to local potential

     total cpu time spent up to now is      239.0 secs

     total energy              =    -421.10694053 Ry
     estimated scf accuracy    <       0.03773866 Ry

     total charge of GC-SCF    =      -0.04255406 e
     the Fermi energy          =      -3.02720486 eV
                        (error :       1.37320486 eV)
     electrostatic embedding   =      -0.00021378 Ry
     cavitation energy         =       0.01804120 Ry
     electrolyte free energy   =       0.00664192 Ry
     correction to one-el term =      -0.00000000 Ry

     iteration #  3     ecut=    80.00 Ry     beta= 0.20
     Davidson diagonalization with overlap

---- Real-time Memory Report at c_bands before calling an iterative solver
           339 MiB given to the printing process from OS
             0 MiB allocation reported by mallinfo(arena+hblkhd)
        221080 MiB available memory on the node where the printing process lives
------------------
     ethr =  1.00E-05,  avg # of iterations = 23.4

     negative rho (up, down):  1.264E-03 0.000E+00

     add environment contribution to local potential

     total cpu time spent up to now is      278.0 secs

     total energy              =    -421.01875121 Ry
     estimated scf accuracy    <       0.03194195 Ry

     total charge of GC-SCF    =      -0.14226435 e
     the Fermi energy          =      -2.95649814 eV
                        (error :       1.30249814 eV)
     electrostatic embedding   =      -0.02353188 Ry
     cavitation energy         =       0.01804120 Ry
     electrolyte free energy   =      -0.00211930 Ry
     correction to one-el term =       1.98770672 Ry

     iteration #  4     ecut=    80.00 Ry     beta= 0.20
     Davidson diagonalization with overlap

---- Real-time Memory Report at c_bands before calling an iterative solver
           339 MiB given to the printing process from OS
             0 MiB allocation reported by mallinfo(arena+hblkhd)
        221098 MiB available memory on the node where the printing process lives
------------------
     ethr =  1.00E-05,  avg # of iterations = 10.9

     negative rho (up, down):  1.029E-03 0.000E+00

     add environment contribution to local potential

     total cpu time spent up to now is      302.7 secs

     total energy              =    -421.07114972 Ry
     estimated scf accuracy    <       0.01255667 Ry

     total charge of GC-SCF    =      -0.21997267 e
     the Fermi energy          =      -3.23161239 eV
                        (error :       1.57761239 eV)
     electrostatic embedding   =      -0.03202629 Ry
     cavitation energy         =       0.01804120 Ry
     electrolyte free energy   =      -0.00290000 Ry
     correction to one-el term =       6.29392318 Ry

     iteration #  5     ecut=    80.00 Ry     beta= 0.20
     Davidson diagonalization with overlap

---- Real-time Memory Report at c_bands before calling an iterative solver
           339 MiB given to the printing process from OS
             0 MiB allocation reported by mallinfo(arena+hblkhd)
        221090 MiB available memory on the node where the printing process lives
------------------
     ethr =  1.00E-05,  avg # of iterations = 16.9

     negative rho (up, down):  9.016E-04 0.000E+00

     add environment contribution to local potential

     total cpu time spent up to now is      335.8 secs

     total energy              =    -420.94442424 Ry
     estimated scf accuracy    <       0.00394002 Ry

     total charge of GC-SCF    =      -0.48172414 e
     the Fermi energy          =      -2.80337065 eV
                        (error :       1.14937065 eV)
     electrostatic embedding   =      -0.03991000 Ry
     cavitation energy         =       0.01804120 Ry
     electrolyte free energy   =      -0.00128052 Ry
     correction to one-el term =       9.26187857 Ry

     iteration #  6     ecut=    80.00 Ry     beta= 0.20
     Davidson diagonalization with overlap

---- Real-time Memory Report at c_bands before calling an iterative solver
           339 MiB given to the printing process from OS
             0 MiB allocation reported by mallinfo(arena+hblkhd)
        221048 MiB available memory on the node where the printing process lives
------------------
     ethr =  4.66E-06,  avg # of iterations = 25.4

     negative rho (up, down):  7.985E-04 0.000E+00

     add environment contribution to local potential

     total cpu time spent up to now is      373.9 secs

     total energy              =    -421.07872742 Ry
     estimated scf accuracy    <       0.01281596 Ry

     total charge of GC-SCF    =      -0.60055259 e
     the Fermi energy          =      -2.10859596 eV
                        (error :       0.45459596 eV)
     electrostatic embedding   =      -0.09393207 Ry
     cavitation energy         =       0.01804120 Ry
     electrolyte free energy   =      -0.00122901 Ry
     correction to one-el term =      21.35844724 Ry

     iteration #  7     ecut=    80.00 Ry     beta= 0.20
     Davidson diagonalization with overlap

---- Real-time Memory Report at c_bands before calling an iterative solver
           339 MiB given to the printing process from OS
             0 MiB allocation reported by mallinfo(arena+hblkhd)
        221020 MiB available memory on the node where the printing process lives
------------------
     ethr =  4.66E-06,  avg # of iterations =  6.0

     negative rho (up, down):  7.410E-04 0.000E+00

     add environment contribution to local potential

     total cpu time spent up to now is      390.3 secs

     total energy              =    -420.97141282 Ry
     estimated scf accuracy    <       0.01476974 Ry

     total charge of GC-SCF    =      -1.04014969 e
     the Fermi energy          =      -2.04208396 eV
                        (error :       0.38808396 eV)
     electrostatic embedding   =      -0.13100434 Ry
     cavitation energy         =       0.01804120 Ry
     electrolyte free energy   =      -0.00162614 Ry
     correction to one-el term =      25.77283702 Ry

     iteration #  8     ecut=    80.00 Ry     beta= 0.20
     Davidson diagonalization with overlap

---- Real-time Memory Report at c_bands before calling an iterative solver
           339 MiB given to the printing process from OS
             0 MiB allocation reported by mallinfo(arena+hblkhd)
        220998 MiB available memory on the node where the printing process lives
------------------
     ethr =  4.66E-06,  avg # of iterations = 11.9

     negative rho (up, down):  6.667E-04 0.000E+00

     add environment contribution to local potential

     total cpu time spent up to now is      415.7 secs

     total energy              =    -421.12506596 Ry
     estimated scf accuracy    <       0.00135698 Ry

     total charge of GC-SCF    =      -1.04297131 e
     the Fermi energy          =      -2.35075359 eV
                        (error :       0.69675359 eV)
     electrostatic embedding   =      -0.32963065 Ry
     cavitation energy         =       0.01804120 Ry
     electrolyte free energy   =      -0.00193975 Ry
     correction to one-el term =      40.74610164 Ry

     iteration #  9     ecut=    80.00 Ry     beta= 0.20
     Davidson diagonalization with overlap

---- Real-time Memory Report at c_bands before calling an iterative solver
           339 MiB given to the printing process from OS
             0 MiB allocation reported by mallinfo(arena+hblkhd)
        220944 MiB available memory on the node where the printing process lives
------------------
     ethr =  1.60E-06,  avg # of iterations =  2.5

     negative rho (up, down):  6.052E-04 0.000E+00

     add environment contribution to local potential

     total cpu time spent up to now is      427.9 secs

     total energy              =    -421.12458018 Ry
     estimated scf accuracy    <       0.00132199 Ry

     total charge of GC-SCF    =      -1.04266972 e
     the Fermi energy          =      -2.34748135 eV
                        (error :       0.69348135 eV)
     electrostatic embedding   =      -0.33107726 Ry
     cavitation energy         =       0.01804120 Ry
     electrolyte free energy   =      -0.00195331 Ry
     correction to one-el term =      40.85543546 Ry

     iteration # 10     ecut=    80.00 Ry     beta= 0.20
     Davidson diagonalization with overlap

---- Real-time Memory Report at c_bands before calling an iterative solver
           339 MiB given to the printing process from OS
             0 MiB allocation reported by mallinfo(arena+hblkhd)
        220924 MiB available memory on the node where the printing process lives
------------------
     ethr =  1.55E-06,  avg # of iterations =  3.6

     negative rho (up, down):  5.551E-04 0.000E+00

     add environment contribution to local potential

     total cpu time spent up to now is      441.6 secs

     total energy              =    -421.08618344 Ry
     estimated scf accuracy    <       0.00112741 Ry

     total charge of GC-SCF    =      -1.20227072 e
     the Fermi energy          =      -2.32592215 eV
                        (error :       0.67192215 eV)
     electrostatic embedding   =      -0.32992327 Ry
     cavitation energy         =       0.01804120 Ry
     electrolyte free energy   =      -0.00196622 Ry
     correction to one-el term =      40.88091143 Ry

     iteration # 11     ecut=    80.00 Ry     beta= 0.20
     Davidson diagonalization with overlap

---- Real-time Memory Report at c_bands before calling an iterative solver
           339 MiB given to the printing process from OS
             0 MiB allocation reported by mallinfo(arena+hblkhd)
        220889 MiB available memory on the node where the printing process lives
------------------
     ethr =  1.32E-06,  avg # of iterations = 14.9

     negative rho (up, down):  5.377E-04 0.000E+00

     add environment contribution to local potential

     total cpu time spent up to now is      470.6 secs

     total energy              =    -421.05080306 Ry
     estimated scf accuracy    <       0.00679776 Ry

     total charge of GC-SCF    =      -1.59654642 e
     the Fermi energy          =      -2.09552402 eV
                        (error :       0.44152402 eV)
     electrostatic embedding   =      -0.40964338 Ry
     cavitation energy         =       0.01804120 Ry
     electrolyte free energy   =      -0.00318293 Ry
     correction to one-el term =      46.15414826 Ry

     iteration # 12     ecut=    80.00 Ry     beta= 0.20
     Davidson diagonalization with overlap

---- Real-time Memory Report at c_bands before calling an iterative solver
           339 MiB given to the printing process from OS
             0 MiB allocation reported by mallinfo(arena+hblkhd)
        220889 MiB available memory on the node where the printing process lives
------------------
     ethr =  1.32E-06,  avg # of iterations = 13.9

     negative rho (up, down):  4.719E-04 0.000E+00

     add environment contribution to local potential

     total cpu time spent up to now is      499.5 secs

     total energy              =    -421.11341555 Ry
     estimated scf accuracy    <       0.00048007 Ry

     total charge of GC-SCF    =      -1.80721898 e
     the Fermi energy          =      -2.28200853 eV
                        (error :       0.62800853 eV)
     electrostatic embedding   =      -0.68697887 Ry
     cavitation energy         =       0.01804120 Ry
     electrolyte free energy   =      -0.00506068 Ry
     correction to one-el term =      59.30765755 Ry

     iteration # 13     ecut=    80.00 Ry     beta= 0.20
     Davidson diagonalization with overlap

---- Real-time Memory Report at c_bands before calling an iterative solver
           339 MiB given to the printing process from OS
             0 MiB allocation reported by mallinfo(arena+hblkhd)
        220891 MiB available memory on the node where the printing process lives
------------------
     ethr =  5.59E-07,  avg # of iterations = 10.9

     negative rho (up, down):  4.016E-04 0.000E+00

     add environment contribution to local potential

     total cpu time spent up to now is      525.0 secs

     total energy              =    -421.12827020 Ry
     estimated scf accuracy    <       0.00101746 Ry

     total charge of GC-SCF    =      -1.99303972 e
     the Fermi energy          =      -2.17625078 eV
                        (error :       0.52225078 eV)
     electrostatic embedding   =      -0.85188948 Ry
     cavitation energy         =       0.01804120 Ry
     electrolyte free energy   =      -0.00709733 Ry
     correction to one-el term =      66.40397024 Ry

     iteration # 14     ecut=    80.00 Ry     beta= 0.20
     Davidson diagonalization with overlap

---- Real-time Memory Report at c_bands before calling an iterative solver
           339 MiB given to the printing process from OS
             0 MiB allocation reported by mallinfo(arena+hblkhd)
        220896 MiB available memory on the node where the printing process lives
------------------
     ethr =  5.59E-07,  avg # of iterations = 11.0

     negative rho (up, down):  3.718E-04 0.000E+00

     add environment contribution to local potential

     total cpu time spent up to now is      548.9 secs

     total energy              =    -421.15856977 Ry
     estimated scf accuracy    <       0.00064158 Ry

     total charge of GC-SCF    =      -2.04040238 e
     the Fermi energy          =      -2.17187898 eV
                        (error :       0.51787898 eV)
     electrostatic embedding   =      -1.00942832 Ry
     cavitation energy         =       0.01804120 Ry
     electrolyte free energy   =      -0.00903592 Ry
     correction to one-el term =      72.01962322 Ry

     iteration # 15     ecut=    80.00 Ry     beta= 0.20
     Davidson diagonalization with overlap

---- Real-time Memory Report at c_bands before calling an iterative solver
           339 MiB given to the printing process from OS
             0 MiB allocation reported by mallinfo(arena+hblkhd)
        220891 MiB available memory on the node where the printing process lives
------------------
     ethr =  5.59E-07,  avg # of iterations =  8.5

     negative rho (up, down):  3.195E-04 0.000E+00

     add environment contribution to local potential

     total cpu time spent up to now is      568.2 secs

     total energy              =    -421.12572084 Ry
     estimated scf accuracy    <       0.00039636 Ry

     total charge of GC-SCF    =      -2.50913215 e
     the Fermi energy          =      -2.20161161 eV
                        (error :       0.54761161 eV)
     electrostatic embedding   =      -1.05000643 Ry
     cavitation energy         =       0.01804120 Ry
     electrolyte free energy   =      -0.00949363 Ry
     correction to one-el term =      73.18324430 Ry

     iteration # 16     ecut=    80.00 Ry     beta= 0.20
     Davidson diagonalization with overlap

---- Real-time Memory Report at c_bands before calling an iterative solver
           339 MiB given to the printing process from OS
             0 MiB allocation reported by mallinfo(arena+hblkhd)
        220885 MiB available memory on the node where the printing process lives
------------------
     ethr =  4.58E-07,  avg # of iterations = 14.7

     negative rho (up, down):  3.054E-04 0.000E+00

     add environment contribution to local potential

     total cpu time spent up to now is      596.0 secs

     total energy              =    -421.16529091 Ry
     estimated scf accuracy    <       0.00035698 Ry

     total charge of GC-SCF    =      -2.67848926 e
     the Fermi energy          =      -2.09388146 eV
                        (error :       0.43988146 eV)
     electrostatic embedding   =      -1.50934995 Ry
     cavitation energy         =       0.01804120 Ry
     electrolyte free energy   =      -0.01690709 Ry
     correction to one-el term =      87.38333531 Ry

     iteration # 17     ecut=    80.00 Ry     beta= 0.20
     Davidson diagonalization with overlap

---- Real-time Memory Report at c_bands before calling an iterative solver
           339 MiB given to the printing process from OS
             0 MiB allocation reported by mallinfo(arena+hblkhd)
        220907 MiB available memory on the node where the printing process lives
------------------
     ethr =  4.12E-07,  avg # of iterations = 10.4

     negative rho (up, down):  2.869E-04 0.000E+00

     add environment contribution to local potential

     total cpu time spent up to now is      620.3 secs

     total energy              =    -421.18586901 Ry
     estimated scf accuracy    <       0.00026535 Ry

     total charge of GC-SCF    =      -3.36690053 e
     the Fermi energy          =      -2.06343874 eV
                        (error :       0.40943874 eV)
     electrostatic embedding   =      -1.69393774 Ry
     cavitation energy         =       0.01804120 Ry
     electrolyte free energy   =      -0.02037223 Ry
     correction to one-el term =      92.34467344 Ry

     iteration # 18     ecut=    80.00 Ry     beta= 0.20
     Davidson diagonalization with overlap

---- Real-time Memory Report at c_bands before calling an iterative solver
           339 MiB given to the printing process from OS
             0 MiB allocation reported by mallinfo(arena+hblkhd)
        220901 MiB available memory on the node where the printing process lives
------------------
     ethr =  3.04E-07,  avg # of iterations = 18.0

     negative rho (up, down):  2.870E-04 0.000E+00

     add environment contribution to local potential

     total cpu time spent up to now is      654.0 secs

     total energy              =    -421.21771277 Ry
     estimated scf accuracy    <       0.00082867 Ry

     total charge of GC-SCF    =      -3.19161462 e
     the Fermi energy          =      -1.80726984 eV
                        (error :       0.15326984 eV)
     electrostatic embedding   =      -2.54751650 Ry
     cavitation energy         =       0.01804120 Ry
     electrolyte free energy   =      -0.04027021 Ry
     correction to one-el term =     112.54974078 Ry

     iteration # 19     ecut=    80.00 Ry     beta= 0.20
     Davidson diagonalization with overlap

---- Real-time Memory Report at c_bands before calling an iterative solver
           339 MiB given to the printing process from OS
             0 MiB allocation reported by mallinfo(arena+hblkhd)
        220859 MiB available memory on the node where the printing process lives
------------------
     ethr =  3.04E-07,  avg # of iterations = 10.7

     negative rho (up, down):  2.789E-04 0.000E+00

     add environment contribution to local potential

     total cpu time spent up to now is      680.5 secs

     total energy              =    -421.19747291 Ry
     estimated scf accuracy    <       0.00013368 Ry

     total charge of GC-SCF    =      -3.61818417 e
     the Fermi energy          =      -1.93607334 eV
                        (error :       0.28207334 eV)
     electrostatic embedding   =      -2.31302249 Ry
     cavitation energy         =       0.01804120 Ry
     electrolyte free energy   =      -0.03407410 Ry
     correction to one-el term =     107.19305578 Ry

     iteration # 20     ecut=    80.00 Ry     beta= 0.20
     Davidson diagonalization with overlap

---- Real-time Memory Report at c_bands before calling an iterative solver
           339 MiB given to the printing process from OS
             0 MiB allocation reported by mallinfo(arena+hblkhd)
        220877 MiB available memory on the node where the printing process lives
------------------
     ethr =  1.53E-07,  avg # of iterations = 17.1

     negative rho (up, down):  2.740E-04 0.000E+00

     add environment contribution to local potential

     total cpu time spent up to now is      712.4 secs

     total energy              =    -421.20339826 Ry
     estimated scf accuracy    <       0.00027637 Ry

     total charge of GC-SCF    =      -3.82408548 e
     the Fermi energy          =      -1.76609507 eV
                        (error :       0.11209507 eV)
     electrostatic embedding   =      -2.89137230 Ry
     cavitation energy         =       0.01804120 Ry
     electrolyte free energy   =      -0.04975800 Ry
     correction to one-el term =     119.33630667 Ry

     iteration # 21     ecut=    80.00 Ry     beta= 0.20
     Davidson diagonalization with overlap

---- Real-time Memory Report at c_bands before calling an iterative solver
           339 MiB given to the printing process from OS
             0 MiB allocation reported by mallinfo(arena+hblkhd)
        220868 MiB available memory on the node where the printing process lives
------------------
     ethr =  1.53E-07,  avg # of iterations = 10.1

     negative rho (up, down):  2.684E-04 0.000E+00

     add environment contribution to local potential

     total cpu time spent up to now is      738.0 secs

     total energy              =    -421.20767238 Ry
     estimated scf accuracy    <       0.00007495 Ry

     total charge of GC-SCF    =      -3.80445783 e
     the Fermi energy          =      -1.72670933 eV
                        (error :       0.07270933 eV)
     electrostatic embedding   =      -3.19164082 Ry
     cavitation energy         =       0.01804120 Ry
     electrolyte free energy   =      -0.05869009 Ry
     correction to one-el term =     124.98085893 Ry

     iteration # 22     ecut=    80.00 Ry     beta= 0.20
     Davidson diagonalization with overlap

---- Real-time Memory Report at c_bands before calling an iterative solver
           339 MiB given to the printing process from OS
             0 MiB allocation reported by mallinfo(arena+hblkhd)
        220863 MiB available memory on the node where the printing process lives
------------------
     ethr =  8.54E-08,  avg # of iterations = 10.1

     negative rho (up, down):  2.498E-04 0.000E+00

     add environment contribution to local potential

     total cpu time spent up to now is      761.3 secs

     total energy              =    -421.20878996 Ry
     estimated scf accuracy    <       0.00002720 Ry

     total charge of GC-SCF    =      -3.99953297 e
     the Fermi energy          =      -1.75203629 eV
                        (error :       0.09803629 eV)
     electrostatic embedding   =      -3.15601087 Ry
     cavitation energy         =       0.01804120 Ry
     electrolyte free energy   =      -0.05767945 Ry
     correction to one-el term =     124.13061140 Ry

     iteration # 23     ecut=    80.00 Ry     beta= 0.20
     Davidson diagonalization with overlap

---- Real-time Memory Report at c_bands before calling an iterative solver
           339 MiB given to the printing process from OS
             0 MiB allocation reported by mallinfo(arena+hblkhd)
        220867 MiB available memory on the node where the printing process lives
------------------
     ethr =  3.09E-08,  avg # of iterations = 19.1

     negative rho (up, down):  2.463E-04 0.000E+00

     add environment contribution to local potential

     total cpu time spent up to now is      794.9 secs

     total energy              =    -421.20802744 Ry
     estimated scf accuracy    <       0.00002964 Ry

     total charge of GC-SCF    =      -3.99461727 e
     the Fermi energy          =      -1.67671020 eV
                        (error :       0.02271020 eV)
     electrostatic embedding   =      -3.44599972 Ry
     cavitation energy         =       0.01804120 Ry
     electrolyte free energy   =      -0.06718151 Ry
     correction to one-el term =     129.34514111 Ry

     iteration # 24     ecut=    80.00 Ry     beta= 0.20
     Davidson diagonalization with overlap

---- Real-time Memory Report at c_bands before calling an iterative solver
           339 MiB given to the printing process from OS
             0 MiB allocation reported by mallinfo(arena+hblkhd)
        220883 MiB available memory on the node where the printing process lives
------------------
     ethr =  3.09E-08,  avg # of iterations =  8.9

     negative rho (up, down):  2.345E-04 0.000E+00

     add environment contribution to local potential

     total cpu time spent up to now is      816.8 secs

     total energy              =    -421.21153854 Ry
     estimated scf accuracy    <       0.00000937 Ry

     total charge of GC-SCF    =      -4.16964099 e
     the Fermi energy          =      -1.69240305 eV
                        (error :       0.03840305 eV)
     electrostatic embedding   =      -3.43494375 Ry
     cavitation energy         =       0.01804120 Ry
     electrolyte free energy   =      -0.06685825 Ry
     correction to one-el term =     129.01846393 Ry

     iteration # 25     ecut=    80.00 Ry     beta= 0.20
     Davidson diagonalization with overlap

---- Real-time Memory Report at c_bands before calling an iterative solver
           339 MiB given to the printing process from OS
             0 MiB allocation reported by mallinfo(arena+hblkhd)
        220897 MiB available memory on the node where the printing process lives
------------------
     ethr =  1.06E-08,  avg # of iterations = 20.8

     negative rho (up, down):  2.330E-04 0.000E+00

     add environment contribution to local potential

     total cpu time spent up to now is      853.6 secs

     total energy              =    -421.20989565 Ry
     estimated scf accuracy    <       0.00000476 Ry

     total charge of GC-SCF    =      -4.06105316 e
     the Fermi energy          =      -1.63927297 eV
                        (error :       0.01472703 eV)
     electrostatic embedding   =      -3.69755695 Ry
     cavitation energy         =       0.01804120 Ry
     electrolyte free energy   =      -0.07623424 Ry
     correction to one-el term =     133.29923255 Ry

     iteration # 26     ecut=    80.00 Ry     beta= 0.20
     Davidson diagonalization with overlap

---- Real-time Memory Report at c_bands before calling an iterative solver
           339 MiB given to the printing process from OS
             0 MiB allocation reported by mallinfo(arena+hblkhd)
        220902 MiB available memory on the node where the printing process lives
------------------
     ethr =  5.40E-09,  avg # of iterations = 19.5

     negative rho (up, down):  2.295E-04 0.000E+00

     add environment contribution to local potential

     total cpu time spent up to now is      888.3 secs

     total energy              =    -421.20839469 Ry
     estimated scf accuracy    <       0.00000147 Ry

     total charge of GC-SCF    =      -4.10338084 e
     the Fermi energy          =      -1.67920989 eV
                        (error :       0.02520989 eV)
     electrostatic embedding   =      -3.52173112 Ry
     cavitation energy         =       0.01804120 Ry
     electrolyte free energy   =      -0.07021083 Ry
     correction to one-el term =     130.15327062 Ry

     iteration # 27     ecut=    80.00 Ry     beta= 0.20
     Davidson diagonalization with overlap

---- Real-time Memory Report at c_bands before calling an iterative solver
           339 MiB given to the printing process from OS
             0 MiB allocation reported by mallinfo(arena+hblkhd)
        220894 MiB available memory on the node where the printing process lives
------------------
     ethr =  1.67E-09,  avg # of iterations = 19.7

     negative rho (up, down):  2.282E-04 0.000E+00

     add environment contribution to local potential

     total cpu time spent up to now is      923.6 secs

     total energy              =    -421.20837763 Ry
     estimated scf accuracy    <       0.00000069 Ry

     total charge of GC-SCF    =      -4.11229630 e
     the Fermi energy          =      -1.66479996 eV
                        (error :       0.01079996 eV)
     electrostatic embedding   =      -3.58226588 Ry
     cavitation energy         =       0.01804120 Ry
     electrolyte free energy   =      -0.07247132 Ry
     correction to one-el term =     131.10003502 Ry

     iteration # 28     ecut=    80.00 Ry     beta= 0.20
     Davidson diagonalization with overlap

---- Real-time Memory Report at c_bands before calling an iterative solver
           339 MiB given to the printing process from OS
             0 MiB allocation reported by mallinfo(arena+hblkhd)
        220870 MiB available memory on the node where the printing process lives
------------------
     ethr =  7.83E-10,  avg # of iterations = 14.8

     negative rho (up, down):  2.264E-04 0.000E+00

     add environment contribution to local potential

     total cpu time spent up to now is      952.9 secs

     total energy              =    -421.20841179 Ry
     estimated scf accuracy    <       0.00000037 Ry

     total charge of GC-SCF    =      -4.13232581 e
     the Fermi energy          =      -1.66235460 eV
                        (error :       0.00835460 eV)
     electrostatic embedding   =      -3.59272589 Ry
     cavitation energy         =       0.01804120 Ry
     electrolyte free energy   =      -0.07294465 Ry
     correction to one-el term =     131.23034706 Ry

     iteration # 29     ecut=    80.00 Ry     beta= 0.20
     Davidson diagonalization with overlap

---- Real-time Memory Report at c_bands before calling an iterative solver
           339 MiB given to the printing process from OS
             0 MiB allocation reported by mallinfo(arena+hblkhd)
        220843 MiB available memory on the node where the printing process lives
------------------
     ethr =  4.19E-10,  avg # of iterations = 16.2

     negative rho (up, down):  2.258E-04 0.000E+00

     add environment contribution to local potential

     total cpu time spent up to now is      983.6 secs

     total energy              =    -421.20839199 Ry
     estimated scf accuracy    <       0.00000015 Ry

     total charge of GC-SCF    =      -4.13292411 e
     the Fermi energy          =      -1.65584124 eV
                        (error :       0.00184124 eV)
     electrostatic embedding   =      -3.62147616 Ry
     cavitation energy         =       0.01804120 Ry
     electrolyte free energy   =      -0.07404157 Ry
     correction to one-el term =     131.68744036 Ry

     iteration # 30     ecut=    80.00 Ry     beta= 0.20
     Davidson diagonalization with overlap

---- Real-time Memory Report at c_bands before calling an iterative solver
           339 MiB given to the printing process from OS
             0 MiB allocation reported by mallinfo(arena+hblkhd)
        220865 MiB available memory on the node where the printing process lives
------------------
     ethr =  1.76E-10,  avg # of iterations = 11.8

     negative rho (up, down):  2.254E-04 0.000E+00

     add environment contribution to local potential

     total cpu time spent up to now is     1011.3 secs

     total energy              =    -421.20839507 Ry
     estimated scf accuracy    <       0.00000006 Ry

     total charge of GC-SCF    =      -4.13892506 e
     the Fermi energy          =      -1.65567462 eV
                        (error :       0.00167462 eV)
     electrostatic embedding   =      -3.62181884 Ry
     cavitation energy         =       0.01804120 Ry
     electrolyte free energy   =      -0.07407431 Ry
     correction to one-el term =     131.69443668 Ry

     iteration # 31     ecut=    80.00 Ry     beta= 0.20
     Davidson diagonalization with overlap

---- Real-time Memory Report at c_bands before calling an iterative solver
           339 MiB given to the printing process from OS
             0 MiB allocation reported by mallinfo(arena+hblkhd)
        220874 MiB available memory on the node where the printing process lives
------------------
     ethr =  6.74E-11,  avg # of iterations = 13.2

     negative rho (up, down):  2.235E-04 0.000E+00

     total cpu time spent up to now is     1033.4 secs

     End of self-consistent calculation

          k = 0.0000 0.0000 0.0000 (186229 PWs)   bands (ev):

   -48.5387 -48.5381 -48.5306 -48.5300 -48.4674 -48.4671 -48.4595 -48.4591
   -48.2615 -48.2613 -48.2533 -48.2531 -48.1967 -48.1923 -48.1874 -48.1847
   -48.1716 -48.1671 -48.1627 -48.1601 -48.1464 -48.1455 -48.1398 -48.1395
   -48.1364 -48.1360 -48.1336 -48.1333  -5.1076  -4.7950  -4.2916  -3.6914
    -3.0744  -3.0665  -3.0468  -2.7424  -2.7399  -2.3151  -2.2386  -2.1958
    -1.9086  -1.8895  -1.7574  -1.6631  -1.5934  -1.3621  -1.3367  -1.2930
    -1.2816  -1.1763  -0.9640  -0.8429  -0.7741  -0.6181  -0.4036  -0.3616
    -0.3004  -0.0774   0.0722   0.1395   0.2630   0.3572   0.4414

     occupation numbers 
     1.0000   1.0000   1.0000   1.0000   1.0000   1.0000   1.0000   1.0000
     1.0000   1.0000   1.0000   1.0000   1.0000   1.0000   1.0000   1.0000
     1.0000   1.0000   1.0000   1.0000   1.0000   1.0000   1.0000   1.0000
     1.0000   1.0000   1.0000   1.0000   1.0000   1.0000   1.0000   1.0000
     1.0000   1.0000   1.0000   1.0000   1.0000   1.0000   1.0000   1.0000
     1.0528   1.0658   0.9290   0.4491   0.1581   0.0001   0.0000   0.0000
     0.0000   0.0000   0.0000   0.0000   0.0000   0.0000   0.0000   0.0000
     0.0000   0.0000   0.0000   0.0000   0.0000   0.0000   0.0000

          k = 0.0000 0.0891 0.0000 (186265 PWs)   bands (ev):

   -48.5387 -48.5381 -48.5306 -48.5300 -48.4674 -48.4671 -48.4595 -48.4591
   -48.2615 -48.2613 -48.2533 -48.2531 -48.1967 -48.1923 -48.1874 -48.1847
   -48.1718 -48.1670 -48.1627 -48.1601 -48.1464 -48.1455 -48.1398 -48.1394
   -48.1364 -48.1361 -48.1336 -48.1333  -5.0824  -4.7694  -4.2652  -3.6652
    -3.4899  -3.1619  -3.0208  -2.6281  -2.6088  -2.2935  -2.2764  -2.0461
    -1.9431  -1.8144  -1.7535  -1.6758  -1.5441  -1.4134  -1.3169  -1.2693
    -1.2527  -1.1677  -0.9908  -0.8683  -0.7065  -0.6549  -0.3730  -0.3656
    -0.2293  -0.0433   0.0195   0.1057   0.2866   0.4173   0.4739

     occupation numbers 
     1.0000   1.0000   1.0000   1.0000   1.0000   1.0000   1.0000   1.0000
     1.0000   1.0000   1.0000   1.0000   1.0000   1.0000   1.0000   1.0000
     1.0000   1.0000   1.0000   1.0000   1.0000   1.0000   1.0000   1.0000
     1.0000   1.0000   1.0000   1.0000   1.0000   1.0000   1.0000   1.0000
     1.0000   1.0000   1.0000   1.0000   1.0000   1.0000   1.0000   1.0025
     1.0308   1.0673   0.9134   0.5171   0.0567   0.0011   0.0000   0.0000
     0.0000   0.0000   0.0000   0.0000   0.0000   0.0000   0.0000   0.0000
     0.0000   0.0000   0.0000   0.0000   0.0000   0.0000   0.0000

          k = 0.0000 0.1782 0.0000 (186243 PWs)   bands (ev):

   -48.5387 -48.5381 -48.5306 -48.5300 -48.4674 -48.4671 -48.4595 -48.4591
   -48.2615 -48.2613 -48.2533 -48.2531 -48.1966 -48.1923 -48.1874 -48.1847
   -48.1721 -48.1668 -48.1628 -48.1600 -48.1465 -48.1456 -48.1397 -48.1394
   -48.1364 -48.1361 -48.1336 -48.1333  -5.0066  -4.6926  -4.1864  -3.8697
    -3.5799  -3.5379  -3.0029  -2.9382  -2.3790  -2.2225  -2.1183  -1.9450
    -1.8763  -1.6980  -1.6745  -1.6585  -1.4440  -1.3933  -1.3901  -1.2107
    -1.1637  -1.1464  -1.0583  -0.8198  -0.7384  -0.5696  -0.4465  -0.3054
    -0.1593  -0.0680   0.0614   0.1581   0.1994   0.3773   0.5145

     occupation numbers 
     1.0000   1.0000   1.0000   1.0000   1.0000   1.0000   1.0000   1.0000
     1.0000   1.0000   1.0000   1.0000   1.0000   1.0000   1.0000   1.0000
     1.0000   1.0000   1.0000   1.0000   1.0000   1.0000   1.0000   1.0000
     1.0000   1.0000   1.0000   1.0000   1.0000   1.0000   1.0000   1.0000
     1.0000   1.0000   1.0000   1.0000   1.0000   1.0000   1.0002   1.0298
     1.0738   0.6397   0.5102   0.4250   0.0033   0.0005   0.0005   0.0000
     0.0000   0.0000   0.0000   0.0000   0.0000   0.0000   0.0000   0.0000
     0.0000   0.0000   0.0000   0.0000   0.0000   0.0000   0.0000

          k = 0.0000 0.2673 0.0000 (186330 PWs)   bands (ev):

   -48.5387 -48.5381 -48.5306 -48.5300 -48.4674 -48.4671 -48.4595 -48.4591
   -48.2615 -48.2613 -48.2533 -48.2531 -48.1966 -48.1923 -48.1874 -48.1847
   -48.1724 -48.1665 -48.1628 -48.1599 -48.1466 -48.1456 -48.1396 -48.1393
   -48.1364 -48.1361 -48.1336 -48.1333  -4.8803  -4.5652  -4.1964  -4.0604
    -3.8622  -3.4518  -3.3268  -2.8090  -2.7003  -2.1780  -1.9929  -1.9088
    -1.6906  -1.6572  -1.5452  -1.4603  -1.4349  -1.3205  -1.2920  -1.2174
    -1.1138  -1.0524  -0.9733  -0.8291  -0.6869  -0.6198  -0.4566  -0.3043
    -0.2549  -0.1317   0.1085   0.2277   0.3411   0.4244   0.5273

     occupation numbers 
     1.0000   1.0000   1.0000   1.0000   1.0000   1.0000   1.0000   1.0000
     1.0000   1.0000   1.0000   1.0000   1.0000   1.0000   1.0000   1.0000
     1.0000   1.0000   1.0000   1.0000   1.0000   1.0000   1.0000   1.0000
     1.0000   1.0000   1.0000   1.0000   1.0000   1.0000   1.0000   1.0000
     1.0000   1.0000   1.0000   1.0000   1.0000   1.0000   1.0107   1.0527
     0.5990   0.4184   0.0582   0.0056   0.0024   0.0000   0.0000   0.0000
     0.0000   0.0000   0.0000   0.0000   0.0000   0.0000   0.0000   0.0000
     0.0000   0.0000   0.0000   0.0000   0.0000   0.0000   0.0000

          k = 0.0000 0.3563 0.0000 (186318 PWs)   bands (ev):

   -48.5387 -48.5381 -48.5306 -48.5300 -48.4674 -48.4671 -48.4595 -48.4591
   -48.2615 -48.2613 -48.2533 -48.2531 -48.1965 -48.1923 -48.1874 -48.1847
   -48.1726 -48.1664 -48.1629 -48.1599 -48.1466 -48.1457 -48.1396 -48.1393
   -48.1365 -48.1361 -48.1336 -48.1333  -4.7036  -4.4788  -4.3820  -4.1582
    -3.8604  -3.6290  -3.2443  -3.0020  -2.6148  -2.3694  -1.9545  -1.8409
    -1.7540  -1.5982  -1.4423  -1.4073  -1.3330  -1.2726  -1.2269  -1.0613
    -0.9883  -0.9487  -0.8874  -0.8330  -0.8074  -0.5098  -0.5063  -0.4116
    -0.2580  -0.2388   0.1539   0.2975   0.4570   0.5206   0.5936

     occupation numbers 
     1.0000   1.0000   1.0000   1.0000   1.0000   1.0000   1.0000   1.0000
     1.0000   1.0000   1.0000   1.0000   1.0000   1.0000   1.0000   1.0000
     1.0000   1.0000   1.0000   1.0000   1.0000   1.0000   1.0000   1.0000
     1.0000   1.0000   1.0000   1.0000   1.0000   1.0000   1.0000   1.0000
     1.0000   1.0000   1.0000   1.0000   1.0000   1.0000   1.0249   1.0830
     0.9156   0.1726   0.0031   0.0009   0.0000   0.0000   0.0000   0.0000
     0.0000   0.0000   0.0000   0.0000   0.0000   0.0000   0.0000   0.0000
     0.0000   0.0000   0.0000   0.0000   0.0000   0.0000   0.0000

          k = 0.0909 0.0121 0.0000 (186373 PWs)   bands (ev):

   -48.5386 -48.5380 -48.5308 -48.5301 -48.4673 -48.4670 -48.4596 -48.4593
   -48.2614 -48.2612 -48.2535 -48.2533 -48.1966 -48.1922 -48.1875 -48.1849
   -48.1714 -48.1670 -48.1628 -48.1602 -48.1462 -48.1453 -48.1397 -48.1393
   -48.1366 -48.1363 -48.1337 -48.1334  -5.0808  -4.7676  -4.2630  -3.6611
    -3.1030  -3.0172  -2.9791  -2.7726  -2.6520  -2.4426  -2.2865  -2.2408
    -2.1366  -2.1304  -1.7290  -1.6501  -1.4005  -1.3336  -1.3316  -1.3008
    -1.1788  -1.0869  -0.9716  -0.8150  -0.7364  -0.6930  -0.3714  -0.3690
    -0.2653  -0.0431  -0.0417   0.1077   0.2930   0.2976   0.4761

     occupation numbers 
     1.0000   1.0000   1.0000   1.0000   1.0000   1.0000   1.0000   1.0000
     1.0000   1.0000   1.0000   1.0000   1.0000   1.0000   1.0000   1.0000
     1.0000   1.0000   1.0000   1.0000   1.0000   1.0000   1.0000   1.0000
     1.0000   1.0000   1.0000   1.0000   1.0000   1.0000   1.0000   1.0000
     1.0000   1.0000   1.0000   1.0000   1.0000   1.0000   1.0000   1.0000
     1.0001   1.0001   0.8035   0.3827   0.0007   0.0000   0.0000   0.0000
     0.0000   0.0000   0.0000   0.0000   0.0000   0.0000   0.0000   0.0000
     0.0000   0.0000   0.0000   0.0000   0.0000   0.0000   0.0000

          k = 0.0909 0.1012 0.0000 (186296 PWs)   bands (ev):

   -48.5386 -48.5380 -48.5308 -48.5301 -48.4673 -48.4670 -48.4596 -48.4593
   -48.2614 -48.2612 -48.2535 -48.2533 -48.1965 -48.1922 -48.1875 -48.1848
   -48.1716 -48.1668 -48.1629 -48.1602 -48.1462 -48.1454 -48.1396 -48.1393
   -48.1366 -48.1363 -48.1338 -48.1334  -5.0487  -4.7351  -4.2296  -3.6289
    -3.5161  -3.1882  -2.9816  -2.6512  -2.5140  -2.4827  -2.2494  -2.1910
    -2.1708  -2.0492  -1.6853  -1.6643  -1.3928  -1.2639  -1.2257  -1.2175
    -1.1548  -1.0631  -0.8709  -0.8255  -0.7397  -0.6601  -0.3980  -0.3306
    -0.1725  -0.1496   0.0021   0.1410   0.1499   0.3309   0.4314

     occupation numbers 
     1.0000   1.0000   1.0000   1.0000   1.0000   1.0000   1.0000   1.0000
     1.0000   1.0000   1.0000   1.0000   1.0000   1.0000   1.0000   1.0000
     1.0000   1.0000   1.0000   1.0000   1.0000   1.0000   1.0000   1.0000
     1.0000   1.0000   1.0000   1.0000   1.0000   1.0000   1.0000   1.0000
     1.0000   1.0000   1.0000   1.0000   1.0000   1.0000   1.0000   1.0000
     1.0000   1.0022   0.5694   0.4551   0.0005   0.0000   0.0000   0.0000
     0.0000   0.0000   0.0000   0.0000   0.0000   0.0000   0.0000   0.0000
     0.0000   0.0000   0.0000   0.0000   0.0000   0.0000   0.0000

          k = 0.0909 0.1903 0.0000 (186330 PWs)   bands (ev):

   -48.5386 -48.5380 -48.5308 -48.5301 -48.4673 -48.4670 -48.4596 -48.4593
   -48.2614 -48.2612 -48.2535 -48.2533 -48.1965 -48.1922 -48.1875 -48.1848
   -48.1719 -48.1666 -48.1629 -48.1601 -48.1463 -48.1454 -48.1396 -48.1392
   -48.1366 -48.1363 -48.1337 -48.1334  -4.9660  -4.6515  -4.1440  -3.8906
    -3.5595  -3.5338  -3.0211  -2.8920  -2.4767  -2.3923  -2.1806  -2.1596
    -2.0222  -1.8314  -1.6358  -1.6054  -1.3536  -1.2189  -1.1481  -1.1014
    -1.0692  -1.0450  -0.9383  -0.7818  -0.7635  -0.5427  -0.5171  -0.2763
    -0.2590  -0.0099   0.0023   0.1156   0.2516   0.2886   0.4209

     occupation numbers 
     1.0000   1.0000   1.0000   1.0000   1.0000   1.0000   1.0000   1.0000
     1.0000   1.0000   1.0000   1.0000   1.0000   1.0000   1.0000   1.0000
     1.0000   1.0000   1.0000   1.0000   1.0000   1.0000   1.0000   1.0000
     1.0000   1.0000   1.0000   1.0000   1.0000   1.0000   1.0000   1.0000
     1.0000   1.0000   1.0000   1.0000   1.0000   1.0000   1.0000   1.0000
     1.0049   1.0802   0.3153   0.1957   0.0001   0.0000   0.0000   0.0000
     0.0000   0.0000   0.0000   0.0000   0.0000   0.0000   0.0000   0.0000
     0.0000   0.0000   0.0000   0.0000   0.0000   0.0000   0.0000

          k = 0.0909 0.2794 0.0000 (186389 PWs)   bands (ev):

   -48.5386 -48.5380 -48.5308 -48.5301 -48.4673 -48.4670 -48.4596 -48.4593
   -48.2614 -48.2612 -48.2535 -48.2533 -48.1964 -48.1922 -48.1875 -48.1848
   -48.1722 -48.1664 -48.1630 -48.1601 -48.1464 -48.1455 -48.1395 -48.1392
   -48.1367 -48.1363 -48.1337 -48.1334  -4.8327  -4.5172  -4.2106  -4.0152
    -3.8714  -3.4116  -3.3274  -2.7657  -2.7005  -2.4258  -2.1579  -2.1041
    -1.9692  -1.5748  -1.5675  -1.4114  -1.3156  -1.2024  -1.1892  -1.1286
    -0.9826  -0.9257  -0.9077  -0.7983  -0.6800  -0.6221  -0.4130  -0.3081
    -0.2695  -0.2217   0.1608   0.2884   0.3573   0.3897   0.4661

     occupation numbers 
     1.0000   1.0000   1.0000   1.0000   1.0000   1.0000   1.0000   1.0000
     1.0000   1.0000   1.0000   1.0000   1.0000   1.0000   1.0000   1.0000
     1.0000   1.0000   1.0000   1.0000   1.0000   1.0000   1.0000   1.0000
     1.0000   1.0000   1.0000   1.0000   1.0000   1.0000   1.0000   1.0000
     1.0000   1.0000   1.0000   1.0000   1.0000   1.0000   1.0000   1.0003
     1.0184   0.1105   0.0951   0.0010   0.0000   0.0000   0.0000   0.0000
     0.0000   0.0000   0.0000   0.0000   0.0000   0.0000   0.0000   0.0000
     0.0000   0.0000   0.0000   0.0000   0.0000   0.0000   0.0000

          k = 0.0909 0.3685 0.0000 (186431 PWs)   bands (ev):

   -48.5386 -48.5380 -48.5308 -48.5301 -48.4673 -48.4670 -48.4596 -48.4593
   -48.2614 -48.2612 -48.2535 -48.2533 -48.1963 -48.1922 -48.1875 -48.1848
   -48.1724 -48.1662 -48.1631 -48.1600 -48.1464 -48.1455 -48.1394 -48.1391
   -48.1367 -48.1363 -48.1337 -48.1334  -4.6489  -4.4850  -4.3283  -4.1642
    -3.8046  -3.6345  -3.1854  -3.0063  -2.5567  -2.3672  -2.3319  -2.0072
    -1.9125  -1.5825  -1.5774  -1.4562  -1.3188  -1.2139  -1.1821  -1.0409
    -0.8947  -0.8742  -0.8423  -0.7767  -0.6722  -0.4716  -0.4710  -0.3701
    -0.2550  -0.2263   0.1821   0.3237   0.4379   0.5268   0.6591

     occupation numbers 
     1.0000   1.0000   1.0000   1.0000   1.0000   1.0000   1.0000   1.0000
     1.0000   1.0000   1.0000   1.0000   1.0000   1.0000   1.0000   1.0000
     1.0000   1.0000   1.0000   1.0000   1.0000   1.0000   1.0000   1.0000
     1.0000   1.0000   1.0000   1.0000   1.0000   1.0000   1.0000   1.0000
     1.0000   1.0000   1.0000   1.0000   1.0000   1.0000   1.0000   1.0074
     1.0501   0.1288   0.1164   0.0049   0.0000   0.0000   0.0000   0.0000
     0.0000   0.0000   0.0000   0.0000   0.0000   0.0000   0.0000   0.0000
     0.0000   0.0000   0.0000   0.0000   0.0000   0.0000   0.0000

          k = 0.0909-0.3442 0.0000 (186485 PWs)   bands (ev):

   -48.5386 -48.5380 -48.5308 -48.5301 -48.4673 -48.4670 -48.4596 -48.4593
   -48.2614 -48.2612 -48.2535 -48.2533 -48.1963 -48.1922 -48.1875 -48.1848
   -48.1724 -48.1662 -48.1631 -48.1600 -48.1464 -48.1455 -48.1394 -48.1391
   -48.1367 -48.1363 -48.1337 -48.1334  -4.7042  -4.4226  -4.3764  -4.0976
    -3.8579  -3.5660  -3.2415  -2.9362  -2.6086  -2.3063  -2.1982  -1.9319
    -1.8838  -1.8139  -1.5684  -1.5525  -1.2789  -1.2705  -1.2300  -1.1723
    -0.9531  -0.9465  -0.8647  -0.7761  -0.6386  -0.4880  -0.4083  -0.3856
    -0.2236  -0.1341   0.1914   0.3396   0.4591   0.5183   0.5968

     occupation numbers 
     1.0000   1.0000   1.0000   1.0000   1.0000   1.0000   1.0000   1.0000
     1.0000   1.0000   1.0000   1.0000   1.0000   1.0000   1.0000   1.0000
     1.0000   1.0000   1.0000   1.0000   1.0000   1.0000   1.0000   1.0000
     1.0000   1.0000   1.0000   1.0000   1.0000   1.0000   1.0000   1.0000
     1.0000   1.0000   1.0000   1.0000   1.0000   1.0000   1.0000   1.0374
     1.0695   1.0668   0.0969   0.0687   0.0000   0.0000   0.0000   0.0000
     0.0000   0.0000   0.0000   0.0000   0.0000   0.0000   0.0000   0.0000
     0.0000   0.0000   0.0000   0.0000   0.0000   0.0000   0.0000

          k = 0.0909-0.2551 0.0000 (186443 PWs)   bands (ev):

   -48.5386 -48.5380 -48.5308 -48.5301 -48.4673 -48.4670 -48.4596 -48.4593
   -48.2614 -48.2612 -48.2535 -48.2533 -48.1964 -48.1922 -48.1875 -48.1848
   -48.1722 -48.1664 -48.1631 -48.1600 -48.1464 -48.1455 -48.1395 -48.1392
   -48.1367 -48.1363 -48.1337 -48.1334  -4.8741  -4.5583  -4.1274  -4.0508
    -3.7948  -3.4391  -3.2597  -2.7954  -2.6305  -2.1405  -2.0469  -2.0305
    -1.9441  -1.7609  -1.7074  -1.6832  -1.3900  -1.3256  -1.3204  -1.2808
    -1.0995  -1.0289  -0.9572  -0.8925  -0.6858  -0.5279  -0.4340  -0.2750
    -0.2226   0.0594   0.1208   0.2370   0.3571   0.4508   0.6063

     occupation numbers 
     1.0000   1.0000   1.0000   1.0000   1.0000   1.0000   1.0000   1.0000
     1.0000   1.0000   1.0000   1.0000   1.0000   1.0000   1.0000   1.0000
     1.0000   1.0000   1.0000   1.0000   1.0000   1.0000   1.0000   1.0000
     1.0000   1.0000   1.0000   1.0000   1.0000   1.0000   1.0000   1.0000
     1.0000   1.0000   1.0000   1.0000   1.0000   1.0001   1.0024   1.0039
     1.0303   0.9419   0.6911   0.5577   0.0005   0.0000   0.0000   0.0000
     0.0000   0.0000   0.0000   0.0000   0.0000   0.0000   0.0000   0.0000
     0.0000   0.0000   0.0000   0.0000   0.0000   0.0000   0.0000

          k = 0.0909-0.1660 0.0000 (186362 PWs)   bands (ev):

   -48.5386 -48.5380 -48.5308 -48.5301 -48.4673 -48.4670 -48.4596 -48.4593
   -48.2614 -48.2612 -48.2535 -48.2533 -48.1965 -48.1922 -48.1875 -48.1848
   -48.1719 -48.1666 -48.1630 -48.1601 -48.1463 -48.1454 -48.1396 -48.1393
   -48.1367 -48.1363 -48.1337 -48.1334  -4.9935  -4.6790  -4.1717  -3.7938
    -3.5632  -3.4619  -2.9283  -2.9178  -2.3045  -2.2233  -2.2007  -2.1539
    -1.9377  -1.8791  -1.8225  -1.6306  -1.5635  -1.4368  -1.3670  -1.2811
    -1.1591  -1.0919  -1.0253  -0.8579  -0.7900  -0.5564  -0.4924  -0.2870
    -0.1031  -0.0575   0.0783   0.2179   0.2302   0.3993   0.5554

     occupation numbers 
     1.0000   1.0000   1.0000   1.0000   1.0000   1.0000   1.0000   1.0000
     1.0000   1.0000   1.0000   1.0000   1.0000   1.0000   1.0000   1.0000
     1.0000   1.0000   1.0000   1.0000   1.0000   1.0000   1.0000   1.0000
     1.0000   1.0000   1.0000   1.0000   1.0000   1.0000   1.0000   1.0000
     1.0000   1.0000   1.0000   1.0000   1.0000   1.0000   1.0000   1.0000
     1.0339   1.0723   1.0748   0.2925   0.0874   0.0026   0.0002   0.0000
     0.0000   0.0000   0.0000   0.0000   0.0000   0.0000   0.0000   0.0000
     0.0000   0.0000   0.0000   0.0000   0.0000   0.0000   0.0000

          k = 0.0909-0.0769 0.0000 (186293 PWs)   bands (ev):

   -48.5386 -48.5380 -48.5308 -48.5301 -48.4673 -48.4670 -48.4596 -48.4593
   -48.2614 -48.2612 -48.2535 -48.2533 -48.1965 -48.1922 -48.1875 -48.1848
   -48.1716 -48.1669 -48.1629 -48.1602 -48.1462 -48.1454 -48.1396 -48.1393
   -48.1367 -48.1363 -48.1337 -48.1334  -5.0624  -4.7489  -4.2435  -3.6416
    -3.4072  -3.0788  -2.9960  -2.6461  -2.5456  -2.3560  -2.3191  -2.2578
    -2.0569  -1.9870  -1.7559  -1.6293  -1.5758  -1.3957  -1.3707  -1.2266
    -1.2114  -1.1063  -1.0608  -0.8444  -0.7143  -0.6843  -0.4627  -0.3345
    -0.2165  -0.0171   0.0097   0.1323   0.3120   0.3385   0.5017

     occupation numbers 
     1.0000   1.0000   1.0000   1.0000   1.0000   1.0000   1.0000   1.0000
     1.0000   1.0000   1.0000   1.0000   1.0000   1.0000   1.0000   1.0000
     1.0000   1.0000   1.0000   1.0000   1.0000   1.0000   1.0000   1.0000
     1.0000   1.0000   1.0000   1.0000   1.0000   1.0000   1.0000   1.0000
     1.0000   1.0000   1.0000   1.0000   1.0000   1.0000   1.0000   1.0000
     1.0017   1.0123   0.9229   0.2869   0.1127   0.0006   0.0002   0.0000
     0.0000   0.0000   0.0000   0.0000   0.0000   0.0000   0.0000   0.0000
     0.0000   0.0000   0.0000   0.0000   0.0000   0.0000   0.0000

          k = 0.1818 0.0243 0.0000 (186409 PWs)   bands (ev):

   -48.5381 -48.5375 -48.5312 -48.5306 -48.4668 -48.4665 -48.4601 -48.4598
   -48.2609 -48.2607 -48.2540 -48.2538 -48.1960 -48.1917 -48.1881 -48.1853
   -48.1709 -48.1665 -48.1634 -48.1606 -48.1456 -48.1448 -48.1393 -48.1389
   -48.1373 -48.1369 -48.1341 -48.1337  -5.0003  -4.6856  -4.1773  -3.5702
    -3.0803  -2.9430  -2.9217  -2.8328  -2.7470  -2.6219  -2.5047  -2.2203
    -2.1736  -2.0929  -1.9894  -1.6435  -1.6408  -1.4570  -1.2562  -1.2449
    -1.1968  -0.8665  -0.7434  -0.7290  -0.6259  -0.6256  -0.5848  -0.3559
    -0.2658  -0.1599   0.0218   0.0653   0.1795   0.2141   0.4010

     occupation numbers 
     1.0000   1.0000   1.0000   1.0000   1.0000   1.0000   1.0000   1.0000
     1.0000   1.0000   1.0000   1.0000   1.0000   1.0000   1.0000   1.0000
     1.0000   1.0000   1.0000   1.0000   1.0000   1.0000   1.0000   1.0000
     1.0000   1.0000   1.0000   1.0000   1.0000   1.0000   1.0000   1.0000
     1.0000   1.0000   1.0000   1.0000   1.0000   1.0000   1.0000   1.0000
     1.0000   1.0005   1.0116   0.3510   0.3379   0.0050   0.0000   0.0000
     0.0000   0.0000   0.0000   0.0000   0.0000   0.0000   0.0000   0.0000
     0.0000   0.0000   0.0000   0.0000   0.0000   0.0000   0.0000

          k = 0.1818 0.1134 0.0000 (186374 PWs)   bands (ev):

   -48.5381 -48.5375 -48.5312 -48.5306 -48.4668 -48.4665 -48.4601 -48.4598
   -48.2609 -48.2607 -48.2540 -48.2538 -48.1960 -48.1917 -48.1881 -48.1853
   -48.1711 -48.1664 -48.1634 -48.1606 -48.1457 -48.1448 -48.1392 -48.1389
   -48.1373 -48.1368 -48.1341 -48.1337  -4.9612  -4.6462  -4.1370  -3.5368
    -3.4824  -3.1583  -2.9782  -2.8787  -2.6537  -2.6155  -2.3610  -2.1474
    -2.1152  -2.0429  -1.9907  -1.5557  -1.4806  -1.3181  -1.3077  -1.1202
    -0.9781  -0.9561  -0.8663  -0.7210  -0.7171  -0.6351  -0.5453  -0.2913
    -0.2402  -0.2298  -0.0469   0.1189   0.2060   0.2647   0.4446

     occupation numbers 
     1.0000   1.0000   1.0000   1.0000   1.0000   1.0000   1.0000   1.0000
     1.0000   1.0000   1.0000   1.0000   1.0000   1.0000   1.0000   1.0000
     1.0000   1.0000   1.0000   1.0000   1.0000   1.0000   1.0000   1.0000
     1.0000   1.0000   1.0000   1.0000   1.0000   1.0000   1.0000   1.0000
     1.0000   1.0000   1.0000   1.0000   1.0000   1.0000   1.0000   1.0001
     1.0002   1.0027   1.0112   0.0738   0.0105   0.0000   0.0000   0.0000
     0.0000   0.0000   0.0000   0.0000   0.0000   0.0000   0.0000   0.0000
     0.0000   0.0000   0.0000   0.0000   0.0000   0.0000   0.0000

          k = 0.1818 0.2025 0.0000 (186449 PWs)   bands (ev):

   -48.5381 -48.5375 -48.5312 -48.5306 -48.4668 -48.4665 -48.4601 -48.4598
   -48.2609 -48.2607 -48.2540 -48.2538 -48.1959 -48.1917 -48.1881 -48.1853
   -48.1714 -48.1662 -48.1635 -48.1605 -48.1458 -48.1449 -48.1392 -48.1389
   -48.1373 -48.1369 -48.1341 -48.1337  -4.8715  -4.5556  -4.0448  -3.8570
    -3.5228  -3.4296  -2.9807  -2.9651  -2.7820  -2.6370  -2.3437  -2.0899
    -2.0746  -1.8658  -1.7400  -1.4741  -1.4541  -1.3432  -1.2566  -1.0654
    -1.0275  -0.9735  -0.8583  -0.6873  -0.6758  -0.6038  -0.4304  -0.3988
    -0.1483  -0.0314   0.0477   0.1163   0.2409   0.3745   0.4375

     occupation numbers 
     1.0000   1.0000   1.0000   1.0000   1.0000   1.0000   1.0000   1.0000
     1.0000   1.0000   1.0000   1.0000   1.0000   1.0000   1.0000   1.0000
     1.0000   1.0000   1.0000   1.0000   1.0000   1.0000   1.0000   1.0000
     1.0000   1.0000   1.0000   1.0000   1.0000   1.0000   1.0000   1.0000
     1.0000   1.0000   1.0000   1.0000   1.0000   1.0000   1.0000   1.0006
     1.0010   1.0789   0.8560   0.0086   0.0046   0.0001   0.0000   0.0000
     0.0000   0.0000   0.0000   0.0000   0.0000   0.0000   0.0000   0.0000
     0.0000   0.0000   0.0000   0.0000   0.0000   0.0000   0.0000

          k = 0.1818 0.2916 0.0000 (186554 PWs)   bands (ev):

   -48.5381 -48.5375 -48.5312 -48.5306 -48.4668 -48.4665 -48.4601 -48.4598
   -48.2609 -48.2607 -48.2540 -48.2538 -48.1958 -48.1917 -48.1881 -48.1853
   -48.1717 -48.1659 -48.1636 -48.1604 -48.1458 -48.1449 -48.1391 -48.1388
   -48.1373 -48.1369 -48.1340 -48.1337  -4.7311  -4.4146  -4.1703  -3.9197
    -3.8184  -3.3342  -3.2463  -2.9042  -2.6855  -2.6118  -2.5726  -2.0798
    -2.0185  -1.8734  -1.7105  -1.4496  -1.4399  -1.3143  -1.3126  -1.0509
    -0.9899  -0.8183  -0.8137  -0.6205  -0.5001  -0.4920  -0.4295  -0.3039
    -0.1225  -0.1105   0.1488   0.2771   0.4185   0.4979   0.5025

     occupation numbers 
     1.0000   1.0000   1.0000   1.0000   1.0000   1.0000   1.0000   1.0000
     1.0000   1.0000   1.0000   1.0000   1.0000   1.0000   1.0000   1.0000
     1.0000   1.0000   1.0000   1.0000   1.0000   1.0000   1.0000   1.0000
     1.0000   1.0000   1.0000   1.0000   1.0000   1.0000   1.0000   1.0000
     1.0000   1.0000   1.0000   1.0000   1.0000   1.0000   1.0000   1.0008
     1.0055   1.0754   0.7077   0.0040   0.0029   0.0000   0.0000   0.0000
     0.0000   0.0000   0.0000   0.0000   0.0000   0.0000   0.0000   0.0000
     0.0000   0.0000   0.0000   0.0000   0.0000   0.0000   0.0000

          k = 0.1818 0.3806 0.0000 (186504 PWs)   bands (ev):

   -48.5381 -48.5375 -48.5312 -48.5306 -48.4668 -48.4665 -48.4601 -48.4598
   -48.2609 -48.2607 -48.2540 -48.2538 -48.1958 -48.1917 -48.1881 -48.1852
   -48.1719 -48.1658 -48.1637 -48.1604 -48.1459 -48.1450 -48.1391 -48.1388
   -48.1374 -48.1369 -48.1340 -48.1337  -4.5402  -4.4379  -4.2189  -4.1155
    -3.6913  -3.5825  -3.0654  -2.9491  -2.7968  -2.4620  -2.4354  -2.2988
    -2.0334  -1.9116  -1.8063  -1.7058  -1.4898  -1.3211  -1.1296  -1.0941
    -0.7834  -0.7360  -0.7309  -0.6661  -0.4749  -0.3713  -0.3134  -0.2632
    -0.1800  -0.1279   0.2764   0.3127   0.4193   0.6350   0.6679

     occupation numbers 
     1.0000   1.0000   1.0000   1.0000   1.0000   1.0000   1.0000   1.0000
     1.0000   1.0000   1.0000   1.0000   1.0000   1.0000   1.0000   1.0000
     1.0000   1.0000   1.0000   1.0000   1.0000   1.0000   1.0000   1.0000
     1.0000   1.0000   1.0000   1.0000   1.0000   1.0000   1.0000   1.0000
     1.0000   1.0000   1.0000   1.0000   1.0000   1.0000   1.0000   1.0000
     1.0036   1.0508   1.0571   0.6826   0.0138   0.0000   0.0000   0.0000
     0.0000   0.0000   0.0000   0.0000   0.0000   0.0000   0.0000   0.0000
     0.0000   0.0000   0.0000   0.0000   0.0000   0.0000   0.0000

          k = 0.1818-0.3321 0.0000 (186497 PWs)   bands (ev):

   -48.5381 -48.5375 -48.5312 -48.5306 -48.4668 -48.4665 -48.4601 -48.4598
   -48.2609 -48.2607 -48.2540 -48.2538 -48.1958 -48.1917 -48.1881 -48.1852
   -48.1718 -48.1658 -48.1637 -48.1604 -48.1459 -48.1450 -48.1391 -48.1388
   -48.1374 -48.1369 -48.1340 -48.1337  -4.6509  -4.3393  -4.2886  -3.9831
[...]
     atom   20 type  1   force =    -0.00011712    0.00017504   -0.00014740
     atom   21 type  1   force =    -0.00011804   -0.00028391    0.00036262
     atom   22 type  1   force =    -0.00010263   -0.00001814    0.00009389
     atom   23 type  1   force =     0.00011194    0.00002009   -0.00012945
     atom   24 type  1   force =     0.00010621    0.00028269   -0.00038147
     atom   25 type  1   force =     0.00011356   -0.00017135    0.00016806
     atom   26 type  1   force =    -0.00001247   -0.00005398   -0.00019477
     atom   27 type  1   force =    -0.00013438    0.00018356   -0.00014496
     atom   28 type  1   force =    -0.00013453   -0.00011609   -0.00016444
     The non-local contrib.  to forces
     atom    1 type  1   force =     0.00037364   -0.01417050    0.03193315
     atom    2 type  1   force =    -0.00037694    0.01420238   -0.03191086
     atom    3 type  1   force =    -0.00016071   -0.01378078   -0.03295351
     atom    4 type  1   force =     0.00066239    0.00363621   -0.01067781
     atom    5 type  1   force =    -0.00134112   -0.00379127    0.00486125
     atom    6 type  1   force =     0.00141556    0.00131292    0.00088663
     atom    7 type  1   force =    -0.00070239   -0.00186129    0.00069064
     atom    8 type  1   force =     0.00000276    0.00124478    0.00493917
     atom    9 type  1   force =    -0.00000934   -0.00125178   -0.00495577
     atom   10 type  1   force =     0.00072135    0.00185083   -0.00061871
     atom   11 type  1   force =    -0.00141297   -0.00129724   -0.00081074
     atom   12 type  1   force =     0.00132076    0.00379931   -0.00475876
     atom   13 type  1   force =    -0.00065249   -0.00364343    0.01077038
     atom   14 type  1   force =     0.00015831    0.01375919    0.03298721
     atom   15 type  1   force =     0.00037255   -0.01417068    0.03193318
     atom   16 type  1   force =    -0.00037070    0.01420261   -0.03191152
     atom   17 type  1   force =    -0.00016132   -0.01378112   -0.03295597
     atom   18 type  1   force =     0.00066202    0.00363273   -0.01067955
     atom   19 type  1   force =    -0.00133720   -0.00378916    0.00485762
     atom   20 type  1   force =     0.00141016    0.00131016    0.00088627
     atom   21 type  1   force =    -0.00070457   -0.00186069    0.00069130
     atom   22 type  1   force =     0.00000249    0.00124568    0.00494373
     atom   23 type  1   force =    -0.00000973   -0.00125147   -0.00495336
     atom   24 type  1   force =     0.00071974    0.00185088   -0.00061855
     atom   25 type  1   force =    -0.00141010   -0.00129649   -0.00081102
     atom   26 type  1   force =     0.00132142    0.00380026   -0.00475953
     atom   27 type  1   force =    -0.00065293   -0.00364419    0.01076938
     atom   28 type  1   force =     0.00015830    0.01375931    0.03298652
     The ionic contribution  to forces
     atom    1 type  1   force =     0.00088536   -0.22886461   12.96460932
     atom    2 type  1   force =    -0.00090576    0.22916680  -12.96526077
     atom    3 type  1   force =     0.00167510   -0.34005760  -12.07540563
     atom    4 type  1   force =    -0.00021911    0.12390606   -9.77638560
     atom    5 type  1   force =     0.00578536    0.01569892   -7.33715905
     atom    6 type  1   force =    -0.00599336   -0.04539132   -5.45811387
     atom    7 type  1   force =     0.00195580    0.01645998   -3.35475850
     atom    8 type  1   force =    -0.00110035    0.01799016   -0.76269807
     atom    9 type  1   force =     0.00117787   -0.01798780    0.76148205
     atom   10 type  1   force =    -0.00203186   -0.01663367    3.35566274
     atom   11 type  1   force =     0.00600005    0.04570966    5.45805974
     atom   12 type  1   force =    -0.00572840   -0.01571134    7.33500872
     atom   13 type  1   force =     0.00012811   -0.12401201    9.77876631
     atom   14 type  1   force =    -0.00164806    0.33973998   12.07617668
     atom   15 type  1   force =     0.00086795   -0.22886645   12.96461305
     atom   16 type  1   force =    -0.00079971    0.22917294  -12.96525817
     atom   17 type  1   force =     0.00166075   -0.34004366  -12.07544324
     atom   18 type  1   force =    -0.00022564    0.12384236   -9.77639240
     atom   19 type  1   force =     0.00588797    0.01574360   -7.33714033
     atom   20 type  1   force =    -0.00611935   -0.04544935   -5.45810899
     atom   21 type  1   force =     0.00191452    0.01646874   -3.35473463
     atom   22 type  1   force =    -0.00110767    0.01799958   -0.76271796
     atom   23 type  1   force =     0.00117950   -0.01798512    0.76150746
     atom   24 type  1   force =    -0.00206356   -0.01663989    3.35568060
     atom   25 type  1   force =     0.00606330    0.04572626    5.45806629
     atom   26 type  1   force =    -0.00571162   -0.01570000    7.33501356
     atom   27 type  1   force =     0.00012437   -0.12402343    9.77875686
     atom   28 type  1   force =    -0.00165156    0.33974121   12.07617383
     The local contribution  to forces
     atom    1 type  1   force =    -0.00070318    0.22193368  -12.86310592
     atom    2 type  1   force =     0.00072697   -0.22228053   12.86387623
     atom    3 type  1   force =    -0.00120563    0.31619458   11.93081549
     atom    4 type  1   force =     0.00005385   -0.11384625    9.61521766
     atom    5 type  1   force =    -0.00425362   -0.01108750    7.22482672
     atom    6 type  1   force =     0.00430558    0.04022065    5.36935430
     atom    7 type  1   force =    -0.00127861   -0.01307047    3.30055808
     atom    8 type  1   force =     0.00098050   -0.01912671    0.74664317
     atom    9 type  1   force =    -0.00104237    0.01911990   -0.74542576
     atom   10 type  1   force =     0.00132637    0.01327210   -3.30154227
     atom   11 type  1   force =    -0.00431553   -0.04054716   -5.36944641
     atom   12 type  1   force =     0.00422433    0.01107605   -7.22290322
     atom   13 type  1   force =     0.00001623    0.11397068   -9.61776043
     atom   14 type  1   force =     0.00118571   -0.31587192  -11.93168059
     atom   15 type  1   force =    -0.00068580    0.22193563  -12.86310950
     atom   16 type  1   force =     0.00062144   -0.22228628   12.86387033
     atom   17 type  1   force =    -0.00119171    0.31618173   11.93085494
     atom   18 type  1   force =     0.00005984   -0.11378376    9.61522427
     atom   19 type  1   force =    -0.00435325   -0.01113149    7.22480724
     atom   20 type  1   force =     0.00442954    0.04027716    5.36934916
     atom   21 type  1   force =    -0.00123705   -0.01307952    3.30053384
     atom   22 type  1   force =     0.00098743   -0.01913672    0.74666215
     atom   23 type  1   force =    -0.00104325    0.01911765   -0.74545198
     atom   24 type  1   force =     0.00135816    0.01327827   -3.30156076
     atom   25 type  1   force =    -0.00437813   -0.04056322   -5.36945334
     atom   26 type  1   force =     0.00420815    0.01106459   -7.22290799
     atom   27 type  1   force =     0.00001992    0.11398222   -9.61775053
     atom   28 type  1   force =     0.00118881   -0.31587331  -11.93167765
     The core correction contribution to forces
     atom    1 type  1   force =     0.00000000    0.00000000    0.00000000
     atom    2 type  1   force =     0.00000000    0.00000000    0.00000000
     atom    3 type  1   force =     0.00000000    0.00000000    0.00000000
     atom    4 type  1   force =     0.00000000    0.00000000    0.00000000
     atom    5 type  1   force =     0.00000000    0.00000000    0.00000000
     atom    6 type  1   force =     0.00000000    0.00000000    0.00000000
     atom    7 type  1   force =     0.00000000    0.00000000    0.00000000
     atom    8 type  1   force =     0.00000000    0.00000000    0.00000000
     atom    9 type  1   force =     0.00000000    0.00000000    0.00000000
     atom   10 type  1   force =     0.00000000    0.00000000    0.00000000
     atom   11 type  1   force =     0.00000000    0.00000000    0.00000000
     atom   12 type  1   force =     0.00000000    0.00000000    0.00000000
     atom   13 type  1   force =     0.00000000    0.00000000    0.00000000
     atom   14 type  1   force =     0.00000000    0.00000000    0.00000000
     atom   15 type  1   force =     0.00000000    0.00000000    0.00000000
     atom   16 type  1   force =     0.00000000    0.00000000    0.00000000
     atom   17 type  1   force =     0.00000000    0.00000000    0.00000000
     atom   18 type  1   force =     0.00000000    0.00000000    0.00000000
     atom   19 type  1   force =     0.00000000    0.00000000    0.00000000
     atom   20 type  1   force =     0.00000000    0.00000000    0.00000000
     atom   21 type  1   force =     0.00000000    0.00000000    0.00000000
     atom   22 type  1   force =     0.00000000    0.00000000    0.00000000
     atom   23 type  1   force =     0.00000000    0.00000000    0.00000000
     atom   24 type  1   force =     0.00000000    0.00000000    0.00000000
     atom   25 type  1   force =     0.00000000    0.00000000    0.00000000
     atom   26 type  1   force =     0.00000000    0.00000000    0.00000000
     atom   27 type  1   force =     0.00000000    0.00000000    0.00000000
     atom   28 type  1   force =     0.00000000    0.00000000    0.00000000
     The Hubbard contrib.    to forces
     atom    1 type  1   force =     0.00000000    0.00000000    0.00000000
     atom    2 type  1   force =     0.00000000    0.00000000    0.00000000
     atom    3 type  1   force =     0.00000000    0.00000000    0.00000000
     atom    4 type  1   force =     0.00000000    0.00000000    0.00000000
     atom    5 type  1   force =     0.00000000    0.00000000    0.00000000
     atom    6 type  1   force =     0.00000000    0.00000000    0.00000000
     atom    7 type  1   force =     0.00000000    0.00000000    0.00000000
     atom    8 type  1   force =     0.00000000    0.00000000    0.00000000
     atom    9 type  1   force =     0.00000000    0.00000000    0.00000000
     atom   10 type  1   force =     0.00000000    0.00000000    0.00000000
     atom   11 type  1   force =     0.00000000    0.00000000    0.00000000
     atom   12 type  1   force =     0.00000000    0.00000000    0.00000000
     atom   13 type  1   force =     0.00000000    0.00000000    0.00000000
     atom   14 type  1   force =     0.00000000    0.00000000    0.00000000
     atom   15 type  1   force =     0.00000000    0.00000000    0.00000000
     atom   16 type  1   force =     0.00000000    0.00000000    0.00000000
     atom   17 type  1   force =     0.00000000    0.00000000    0.00000000
     atom   18 type  1   force =     0.00000000    0.00000000    0.00000000
     atom   19 type  1   force =     0.00000000    0.00000000    0.00000000
     atom   20 type  1   force =     0.00000000    0.00000000    0.00000000
     atom   21 type  1   force =     0.00000000    0.00000000    0.00000000
     atom   22 type  1   force =     0.00000000    0.00000000    0.00000000
     atom   23 type  1   force =     0.00000000    0.00000000    0.00000000
     atom   24 type  1   force =     0.00000000    0.00000000    0.00000000
     atom   25 type  1   force =     0.00000000    0.00000000    0.00000000
     atom   26 type  1   force =     0.00000000    0.00000000    0.00000000
     atom   27 type  1   force =     0.00000000    0.00000000    0.00000000
     atom   28 type  1   force =     0.00000000    0.00000000    0.00000000
     The SCF correction term to forces
     atom    1 type  1   force =     0.00000063   -0.00014361    0.00005360
     atom    2 type  1   force =     0.00000042    0.00016541    0.00004075
     atom    3 type  1   force =     0.00000509   -0.00013353    0.00005937
     atom    4 type  1   force =     0.00000476   -0.00008150    0.00036728
     atom    5 type  1   force =     0.00000110    0.00021508    0.00042330
     atom    6 type  1   force =    -0.00000546   -0.00020555    0.00045997
     atom    7 type  1   force =    -0.00000637    0.00007824    0.00017355
     atom    8 type  1   force =    -0.00000486    0.00000150    0.00021606
     atom    9 type  1   force =     0.00000623    0.00001106   -0.00010424
     atom   10 type  1   force =     0.00000510   -0.00009729   -0.00001720
     atom   11 type  1   force =     0.00000438    0.00020652   -0.00023599
     atom   12 type  1   force =     0.00000048   -0.00020801   -0.00013198
     atom   13 type  1   force =    -0.00000531    0.00008812   -0.00012111
     atom   14 type  1   force =    -0.00000584    0.00010288    0.00008985
     atom   15 type  1   force =     0.00000048   -0.00014362    0.00005358
     atom   16 type  1   force =    -0.00000034    0.00016538    0.00004109
     atom   17 type  1   force =     0.00000514   -0.00013355    0.00006011
     atom   18 type  1   force =     0.00000396   -0.00008100    0.00036801
     atom   19 type  1   force =    -0.00000093    0.00021441    0.00042415
     atom   20 type  1   force =    -0.00000257   -0.00020484    0.00045999
     atom   21 type  1   force =    -0.00000496    0.00007841    0.00017311
     atom   22 type  1   force =    -0.00000494    0.00000122    0.00021481
     atom   23 type  1   force =     0.00000566    0.00001110   -0.00010526
     atom   24 type  1   force =     0.00000576   -0.00009738   -0.00001734
     atom   25 type  1   force =     0.00000328    0.00020625   -0.00023599
     atom   26 type  1   force =    -0.00000003   -0.00020817   -0.00013187
     atom   27 type  1   force =    -0.00000549    0.00008825   -0.00012074
     atom   28 type  1   force =    -0.00000547    0.00010290    0.00009013

     Total force =     0.001467     Total SCF correction =     0.001413
     SCF correction compared to forces is large: reduce conv_thr to get better values
     Energy error            =      3.1E-06 Ry
     Gradient error          =      3.8E-04 Ry/Bohr

     bfgs converged in   4 scf cycles and   1 bfgs steps
     (criteria: energy <  1.0E-05 Ry, force <  3.9E-04 Ry/Bohr)

     End of BFGS Geometry Optimization

     Final energy             =    -421.2083925579 Ry

     File ./Li/Lithium.bfgs deleted, as requested
Begin final coordinates

ATOMIC_POSITIONS (angstrom)
Li               0.2980176735       -0.1249024521       31.7033746595
Li              -0.2988574713        4.8962295756       20.0858747866
Li               0.8228179931        2.1620569644       20.6527813134
Li               1.0473364830        7.0182921221       21.7650036607
Li               1.6565811448        4.1943901589       22.6950177700
Li               0.1010963605        1.6795977123       23.5452051015
Li              -0.1380412698        6.3155404085       24.4360503991
Li               0.9871129272        3.7481443709       25.5626857942
Li               1.9888499483        1.0219402785       26.2290478256
Li               2.1221152809        5.8750203898       27.3562605576
Li              -0.1002135332        3.0907574825       28.2462765166
Li               1.3183118076        0.5761953768       29.0951465490
Li               0.9357006841        5.1730240217       30.0270428770
Li               2.1505581813        2.6088144481       31.1381136143
Li               3.2729598833       -0.1249040560       31.7033745646
Li               2.6760244118        4.8962177416       20.0858961175
Li               3.7977612839        2.1620402578       20.6527738649
Li               4.0222821756        7.0183254234       21.7650184331
Li               4.6314596781        4.1943627455       22.6950584669
Li               3.0760813077        1.6796362089       23.5452102066
Li               2.8368991810        6.3155407144       24.4360587919
Li               3.9620515467        3.7481432233       25.5626435407
Li               4.9637805724        1.0219375334       26.2290434739
Li               5.0970591492        5.8750255201       27.3562701913
Li               2.8746927036        3.0907480986       28.2462847476
Li               4.2932358782        0.5761891712       29.0951554528
Li               3.9106367946        5.1730261250       30.0270445194
Li               5.1254918488        2.6088174524       31.1381175825
End final coordinates



     Writing all to output data dir ./Li/Lithium.save/ :
     XML data file
     init_run     :     13.25s CPU     22.08s WALL (       1 calls)
     electrons    :    925.37s CPU   1212.43s WALL (       4 calls)
     update_pot   :      0.21s CPU      0.25s WALL (       3 calls)
     forces       :     27.37s CPU     29.81s WALL (       4 calls)

     Called by init_run:
     wfcinit      :      2.33s CPU      3.32s WALL (       1 calls)
     wfcinit:wfcr :      2.22s CPU      3.21s WALL (      25 calls)
     potinit      :      0.87s CPU      0.92s WALL (       1 calls)
     hinit0       :      5.07s CPU     12.70s WALL (       1 calls)

     Called by electrons:
     c_bands      :    752.30s CPU    997.03s WALL (      42 calls)
     sum_band     :     44.81s CPU     62.95s WALL (      42 calls)
     v_of_rho     :      2.07s CPU      2.44s WALL (      43 calls)
     v_h          :      0.20s CPU      0.23s WALL (      43 calls)
     v_xc         :      1.87s CPU      2.21s WALL (      43 calls)
     newd         :      0.90s CPU      0.98s WALL (      43 calls)
     PAW_pot      :      0.36s CPU      0.51s WALL (      46 calls)
     mix_rho      :      5.47s CPU      7.04s WALL (      42 calls)

     Called by c_bands:
     init_us_2    :      3.91s CPU      4.30s WALL (    2300 calls)
     cegterg      :    715.15s CPU    905.78s WALL (    1298 calls)

     Called by sum_band:
     sum_band:wei :      0.09s CPU      0.10s WALL (      42 calls)
     sum_band:loo :     43.51s CPU     61.49s WALL (      42 calls)
     sum_band:buf :      0.45s CPU      0.50s WALL (    1050 calls)
     sum_band:ini :      1.63s CPU      1.72s WALL (    1050 calls)
     sum_band:cal :      5.51s CPU      6.78s WALL (    1125 calls)
     sum_band:bec :      0.10s CPU      0.11s WALL (    1125 calls)
     addusdens    :      0.91s CPU      0.95s WALL (      42 calls)
                                        0.00s GPU  (      42 calls)
     addusd:skk   :      0.19s CPU      0.19s WALL (      42 calls)
                                        0.00s GPU  (      42 calls)

     Called by *egterg:
     cdiaghg      :    181.44s CPU    189.16s WALL (   16155 calls)
     cegterg:over :     41.22s CPU     46.89s WALL (   15146 calls)
     cegterg:upda :     27.43s CPU     28.75s WALL (   15146 calls)
     cegterg:last :      9.46s CPU      9.60s WALL (    1876 calls)
     h_psi        :    412.76s CPU    585.23s WALL (   16469 calls)
     s_psi        :     23.95s CPU     24.83s WALL (   16469 calls)
     g_psi        :      0.45s CPU      0.49s WALL (   15146 calls)

     Called by h_psi:
     h_psi:calbec :     36.37s CPU     45.89s WALL (   16469 calls)
     vloc_psi     :    348.69s CPU    509.38s WALL (   16469 calls)
                                        0.00s GPU  (   16469 calls)
     add_vuspsi   :     25.99s CPU     28.06s WALL (   16469 calls)

     General routines
     calbec       :     43.58s CPU     54.60s WALL (   17994 calls)
     fft          :      5.58s CPU     13.48s WALL (     565 calls)
     ffts         :      4.89s CPU      6.10s WALL (    4390 calls)
     fftw         :    371.26s CPU    543.30s WALL (  700646 calls)
     interpolate  :      0.98s CPU      1.00s WALL (      43 calls)

     Parallel routines

     PAW routines
     PAW_pot      :      0.36s CPU      0.51s WALL (      46 calls)

     Environ routines

     PWSCF        :  16m23.24s CPU  21m24.78s WALL


   This run was terminated on:   2:18:58  24Jan2025            

=------------------------------------------------------------------------------=
   JOB DONE.
=------------------------------------------------------------------------------=
